Control file title. For DL_FIELD 4.10
49062
    1MOL     N1    1   0.765   3.954   5.801  0.6410 -0.7753 -0.0893
    1MOL     C2    2   0.812   3.818   5.804 -0.2553 -0.1352  0.5093
    1MOL     C3    3   0.769   3.757   5.935  0.2852 -0.1837  0.1326
    1MOL     C4    4   0.665   3.659   5.944  0.5346 -0.1394  0.4315
    1MOL     C5    5   0.636   3.600   6.064 -0.0151 -0.8460  0.2593
    1MOL     C6    6   0.703   3.629   6.183  0.3697 -0.0347 -0.4141
    1MOL     C7    7   0.799   3.734   6.182  0.7801  0.4538 -0.3006
    1MOL     C8    8   0.833   3.792   6.059  0.0391  0.2202  0.4652
    1MOL     C9    9   0.953   3.895   6.059 -0.7863  0.1988 -0.0514
    1MOL    N10   10   1.084   3.849   6.017  0.6242 -0.1041 -0.3032
    1MOL    C11   11   1.175   3.921   5.963  0.1826 -0.1669  0.0347
    1MOL    O12   12   1.182   4.047   5.957  0.6728  0.8777  0.0837
    1MOL    C13   13   1.280   3.837   5.885  0.1780 -0.2725 -0.6889
    1MOL    C14   14   1.282   3.869   5.733  0.0180  0.6808  0.3036
    1MOL    C15   15   1.192   3.778   5.647 -0.6055 -0.0312 -0.6115
    1MOL    C16   16   1.246   3.641   5.591  0.2562 -0.3916 -0.2463
    1MOL    C17   17   1.152   3.571   5.491  0.7453 -0.1504 -0.2093
    1MOL    C18   18   1.241   3.464   5.420  0.9658 -0.1889  0.2271
    1MOL    C19   19   1.149   3.359   5.351 -0.2484 -0.0858 -0.0215
    1MOL    C20   20   1.202   3.239   5.268 -0.0077  0.7883  0.1191
    1MOL    C21   21   1.209   3.112   5.350  0.2293  0.3304 -0.4476
    1MOL    O22   22   1.304   3.086   5.422  0.1789 -0.3045  0.1463
    1MOL    H23   23   0.738   3.978   5.895 -0.0604 -1.3714 -0.1330
    1MOL    H24   24   0.775   3.755   5.723  0.4005 -1.3374  1.1337
    1MOL    H25   25   0.920   3.813   5.797 -0.3671  0.2596 -2.2115
    1MOL    H26   26   0.606   3.633   5.858 -0.6617  1.7669  0.6462
    1MOL    H27   27   0.552   3.532   6.067 -0.0019 -0.8244  1.6181
    1MOL    H28   28   0.671   3.586   6.276  1.9374  0.0766  0.1894
    1MOL    H29   29   0.855   3.764   6.269  1.2274 -1.7626  0.2260
    1MOL    H30   30   0.967   3.925   6.163  0.2863 -1.3761  0.2763
    1MOL    H31   31   0.934   3.979   5.992  4.0567  1.4134 -0.0280
    1MOL    H32   32   1.087   3.748   6.014 -1.3104 -0.1343 -2.3027
    1MOL    H33   33   1.250   3.736   5.910 -0.1303  0.1821  0.7869
    1MOL    H34   34   1.378   3.853   5.929  0.0117  1.6390 -0.9432
    1MOL    H35   35   1.383   3.854   5.696  0.2418  0.3870  1.0198
    1MOL    H36   36   1.251   3.972   5.713 -0.3368  0.6529  0.7147
    1MOL    H37   37   1.097   3.773   5.700  0.1275 -0.3571  0.7093
    1MOL    H38   38   1.170   3.841   5.561  1.6274  0.4366 -0.8608
    1MOL    H39   39   1.340   3.670   5.544  1.9508 -2.9762  1.4124
    1MOL    H40   40   1.267   3.589   5.684 -0.6546 -1.2124 -0.4929
    1MOL    H41   41   1.065   3.524   5.536 -0.9948  2.3182 -0.9344
    1MOL    H42   42   1.116   3.637   5.412  0.4467 -0.3559 -0.2437
    1MOL    H43   43   1.299   3.411   5.495  1.1235  2.1122  1.7658
    1MOL    H44   44   1.305   3.507   5.344  0.8122 -0.3702 -0.0080
    1MOL    H45   45   1.097   3.314   5.435  0.0602 -1.4966 -0.5752
    1MOL    H46   46   1.069   3.407   5.294  1.7809  1.8681 -1.3149
    1MOL    H47   47   1.307   3.253   5.241  0.0199  2.1410  0.8935
    1MOL    H48   48   1.142   3.229   5.177 -0.2061 -0.8401  0.4140
    1MOL    H49   49   0.845   4.013   5.784 -0.8838  0.9504 -1.4798
    1MOL    N50   50   1.098   3.035   5.337 -0.2864  0.0889 -0.8924
    1MOL    C51   51   1.064   2.908   5.404 -0.4037  0.2788 -0.5115
    1MOL    C52   52   1.094   2.777   5.336 -0.1428 -0.1347  0.9121
    1MOL    C53   53   1.179   2.775   5.220 -0.3624 -0.8814 -0.6091
    1MOL    C54   54   1.208   2.660   5.149 -0.6224 -0.1210  0.4964
    1MOL    C55   55   1.152   2.540   5.190  1.0957 -0.0712  0.7084
    1MOL    C56   56   1.074   2.536   5.310  0.3899  0.3913  0.2793
    1MOL    C57   57   1.046   2.655   5.377  0.0554 -0.3300 -0.3095
    1MOL    C58   58   0.975   2.656   5.516 -0.9561  0.5785  0.2848
    1MOL    N59   59   1.004   2.532   5.587 -0.2479  0.9021 -0.0591
    1MOL    C60   60   0.920   2.432   5.613  0.5825  0.2130 -0.6291
    1MOL    O61   61   0.807   2.420   5.570  0.6690 -0.4241 -0.2754
    1MOL    C62   62   0.968   2.328   5.710  0.4072 -0.3842 -0.3479
    1MOL    C63   63   0.851   2.230   5.746 -0.2422  0.0495  0.5821
    1MOL    C64   64   0.895   2.118   5.840 -0.1710  0.1359  0.0213
    1MOL    C65   65   0.914   2.155   5.988  0.4347  0.4704 -0.2066
    1MOL    C66   66   0.931   2.035   6.085 -0.4925  0.1188 -1.2491
    1MOL    C67   67   0.965   2.089   6.226  0.5426 -0.0347  0.2555
    1MOL    C68   68   0.987   1.987   6.338  0.6663  0.1366  0.2945
    1MOL    C69   69   1.003   2.048   6.476  0.0169  0.5393  0.4973
    1MOL    C70   70   1.117   2.137   6.487 -0.8444  0.5137 -0.0781
    1MOL    O71   71   1.227   2.078   6.494  0.0468 -0.4064  0.7273
    1MOL    H72   72   1.027   3.060   5.270 -2.3386 -1.7307  0.5112
    1MOL    H73   73   0.957   2.897   5.422 -0.2323  1.0377  1.0264
    1MOL    H74   74   1.111   2.902   5.502 -0.9279  1.1734 -0.1939
    1MOL    H75   75   1.229   2.864   5.185 -0.3779  0.2594  2.1842
    1MOL    H76   76   1.276   2.671   5.066 -2.0791  1.4413 -0.5217
    1MOL    H77   77   1.178   2.450   5.137 -0.0625 -0.7331  1.2530
    1MOL    H78   78   1.043   2.442   5.353 -0.7540  0.0376 -1.2698
    1MOL    H79   79   0.869   2.676   5.524 -0.8930  1.6699 -1.5018
    1MOL    H80   80   1.009   2.736   5.582  3.0076  0.0250 -0.9275
    1MOL    H81   81   1.095   2.513   5.627 -0.0393  0.2798 -0.8199
    1MOL    H82   82   1.009   2.390   5.790  0.2225 -0.8161  0.0781
    1MOL    H83   83   1.050   2.271   5.667  0.5290  0.4006 -1.1844
    1MOL    H84   84   0.827   2.188   5.648 -3.0823 -2.6385  2.3657
    1MOL    H85   85   0.767   2.282   5.790  0.1119  1.4808 -0.3716
    1MOL    H86   86   0.810   2.050   5.838 -0.0591  0.0311 -1.0494
    1MOL    H87   87   0.978   2.056   5.806 -0.4462 -2.3102  3.4811
    1MOL    H88   88   1.004   2.216   5.984  1.1136 -0.4664  0.5509
    1MOL    H89   89   0.847   2.231   6.027 -0.5101 -0.1908 -0.5094
    1MOL    H90   90   0.838   1.978   6.085 -1.8659  2.2890 -0.4061
    1MOL    H91   91   1.020   1.979   6.055 -0.0317  0.0408  0.2442
    1MOL    H92   92   0.890   2.163   6.256  0.2681  0.0777 -0.6884
    1MOL    H93   93   1.056   2.146   6.206  0.2943  0.0321 -0.7173
    1MOL    H94   94   1.067   1.924   6.299  0.2539  0.9522 -1.9034
    1MOL    H95   95   0.899   1.924   6.351 -0.2094  1.8209  3.0087
    1MOL    H96   96   1.006   1.978   6.559  0.7760  2.0129  1.7466
    1MOL    H97   97   0.916   2.109   6.500 -0.2285  0.7539 -0.9346
    1MOL    N98   98   1.105   2.264   6.481  0.5860  0.0298  0.1312
    1MOL    C99   99   1.210   2.362   6.451  0.0266  0.3940  0.0891
    1MOL   C100  100   1.203   2.380   6.302 -0.8839 -0.2348 -0.2245
    1MOL   C101  101   1.284   2.300   6.221 -0.3941 -0.5612 -0.0062
    1MOL   C102  102   1.285   2.306   6.084  0.4415 -0.1754 -0.0678
    1MOL   C103  103   1.205   2.401   6.020  0.4880 -0.4751  0.4257
    1MOL   C104  104   1.122   2.482   6.094 -0.4316  0.2478  0.4422
    1MOL   C105  105   1.124   2.476   6.233  0.7462  0.3136 -0.8455
    1MOL   C106  106   1.022   2.556   6.309 -0.2570  0.3692  0.3199
    1MOL   N107  107   0.882   2.520   6.276 -0.1683  0.6786 -0.5057
    1MOL   C108  108   0.810   2.428   6.334 -0.0631  0.4073 -0.0437
    1MOL   O109  109   0.842   2.365   6.431  0.1813 -0.3897  0.1033
    1MOL   C110  110   0.673   2.402   6.271  0.4727 -0.4265  0.4677
    1MOL   C111  111   0.609   2.275   6.326  0.2614 -0.8030 -0.2100
    1MOL   C112  112   0.476   2.261   6.255 -0.0535 -0.5284 -0.6590
    1MOL   C113  113   0.394   2.148   6.321  0.5688 -0.1877  0.0741
    1MOL   C114  114   0.241   2.161   6.296 -0.0121 -0.1220  0.5069
    1MOL   C115  115   0.166   2.243   6.402  0.1368 -0.8066 -0.3781
    1MOL   C116  116   0.014   2.238   6.399  0.2417 -0.0617 -0.3979
    1MOL   C117  117   7.747   2.336   6.498 -0.1213  0.2729  0.0134
    1MOL   C118  118   7.720   2.281   6.633 -0.4261  0.0435 -0.6239
    1MOL   O119  119   7.637   2.195   6.659 -0.5856 -0.1798  0.1264
    1MOL   H120  120   1.012   2.302   6.471  1.6816  2.4857 -1.3122
    1MOL   H121  121   1.198   2.459   6.499 -0.9118 -0.1819  1.0153
    1MOL   H122  122   1.303   2.318   6.487 -0.8981 -2.5161 -0.9090
    1MOL   H123  123   1.330   2.220   6.277 -0.7260 -0.3856  0.5284
    1MOL   H124  124   1.342   2.230   6.032 -0.1783 -1.4303  1.0406
    1MOL   H125  125   1.178   2.408   5.916 -2.3635 -1.1025  1.0746
    1MOL   H126  126   1.054   2.553   6.049 -0.6229  0.8538  1.6614
    1MOL   H127  127   1.036   2.663   6.296 -0.3305  0.4166  0.6239
    1MOL   H128  128   1.015   2.543   6.417 -0.6617 -0.3413  0.2127
    1MOL   H129  129   0.847   2.560   6.190 -1.0331 -0.7891 -0.8540
    1MOL   H130  130   0.682   2.390   6.163  1.3889 -0.2236  0.5143
    1MOL   H131  131   0.610   2.489   6.288 -2.1789 -2.0342 -0.7431
    1MOL   H132  132   0.608   2.284   6.434  0.4891  1.7204 -0.3850
    1MOL   H133  133   0.672   2.187   6.307  1.6417 -0.1299  1.1246
    1MOL   H134  134   0.436   2.362   6.269  2.4176  0.5220 -0.7224
    1MOL   H135  135   0.484   2.247   6.147  0.6901  1.1361 -0.8430
    1MOL   H136  136   0.419   2.051   6.279 -1.2743 -0.8433  0.4114
    1MOL   H137  137   0.423   2.141   6.426 -1.3508  1.6543  0.7664
    1MOL   H138  138   0.221   2.200   6.196  0.6767  0.8190  0.7295
    1MOL   H139  139   0.188   2.067   6.310  0.1674 -0.3182 -0.1184
    1MOL   H140  140   0.198   2.347   6.398 -0.4046 -0.6812 -1.8560
    1MOL   H141  141   0.212   2.217   6.497  0.4028  0.9119 -0.0213
    1MOL   H142  142   7.758   2.262   6.304 -0.0046 -1.8743 -0.7412
    1MOL   H143  143   7.761   2.139   6.411  0.5366 -0.1939 -0.4157
    1MOL   H144  144   7.647   2.361   6.462 -0.2534 -2.4905 -1.7437
    1MOL   H145  145   0.008   2.432   6.485 -0.3560  0.3237 -0.5733
    1MOL   N146  146   0.015   2.322   6.727 -0.0333 -0.4641 -0.4029
    1MOL   C147  147   0.012   2.294   6.867 -0.5426  0.4119  0.2131
    1MOL   C148  148   7.768   2.416   6.959  0.4183 -0.3125  0.7250
    1MOL   C149  149   7.709   2.531   6.903 -0.4766 -0.4850 -0.5023
    1MOL   C150  150   7.700   2.653   6.979  0.4522 -0.3206  0.0302
    1MOL   C151  151   7.755   2.651   7.108  0.2945 -0.0109 -0.3244
    1MOL   C152  152   0.019   2.530   7.164 -0.3026  0.4195 -0.6153
    1MOL   C153  153   0.021   2.409   7.092  0.7131  0.1327  0.4630
    1MOL   C154  154   0.065   2.282   7.168 -0.3943 -0.1321  0.0353
    1MOL   N155  155   0.177   2.204   7.120 -0.4956  0.0712  0.1650
    1MOL   C156  156   0.309   2.218   7.150  0.4385  0.4084 -0.3771
    1MOL   O157  157   0.351   2.301   7.233  0.4991 -0.2949  0.0498
    1MOL   C158  158   0.415   2.131   7.076  0.5019 -0.0777  0.2402
    1MOL   C159  159   0.505   2.046   7.174 -0.2209 -0.0069  0.2493
    1MOL   C160  160   0.616   1.975   7.101  1.1465  0.4456  0.1358
    1MOL   C161  161   0.727   1.913   7.188  0.6680  0.2455  0.0442
    1MOL   C162  162   0.676   1.836   7.313  0.2272 -0.6621  0.1081
    1MOL   C163  163   0.783   1.747   7.378  0.6990 -0.7734  0.5847
    1MOL   C164  164   0.742   1.715   7.522 -0.0198  0.7189  0.0614
    1MOL   C165  165   0.615   1.624   7.536 -0.1664 -0.9972 -0.0797
    1MOL   C166  166   0.562   1.621   7.679  0.2083  0.2826  0.0953
    1MOL   O167  167   0.500   1.718   7.720  0.1428 -0.1229  0.8016
    1MOL   H168  168   0.091   2.383   6.699 -0.1816 -0.5172 -0.9200
    1MOL   H169  169   0.115   2.262   6.884  0.4556  3.0929 -0.4976
    1MOL   H170  170   7.733   2.214   6.892 -0.3168 -0.3958 -1.7253
    1MOL   H171  171   7.691   2.539   6.797  1.4448  2.8594 -0.6362
    1MOL   H172  172   7.643   2.732   6.932 -0.8996 -0.6934  1.0009
    1MOL   H173  173   7.737   2.741   7.165  0.3464  1.2084 -2.1940
    1MOL   H174  174   0.059   2.549   7.263 -0.6146 -0.6484 -0.2844
    1MOL   H175  175   7.770   2.215   7.181  0.2395 -0.2640  4.1036
    1MOL   H176  176   0.082   2.314   7.271 -0.3805  0.5677 -0.1858
    1MOL   H177  177   0.159   2.141   7.043  0.8933  0.0621 -0.1733
    1MOL   H178  178   0.479   2.197   7.017  0.6309  0.6051  1.1458
    1MOL   H179  179   0.365   2.067   7.003  0.0563  0.8379 -0.2633
    1MOL   H180  180   0.446   1.970   7.224 -1.5544  1.1540  0.4395
    1MOL   H181  181   0.545   2.120   7.244  0.6794  0.4261 -0.6974
    1MOL   H182  182   0.575   1.891   7.045  4.2551 -0.2285 -1.2058
    1MOL   H183  183   0.648   2.053   7.033 -1.8456  0.3196 -1.5107
    1MOL   H184  184   0.773   1.844   7.116  1.0724 -1.0566  1.5050
    1MOL   H185  185   0.805   1.984   7.214 -0.4629  1.7546 -0.6739
    1MOL   H186  186   0.639   1.905   7.388  1.3137  0.4810 -0.3915
    1MOL   H187  187   0.587   1.776   7.295 -0.3623  0.1554  0.2743
    1MOL   H188  188   0.864   1.820   7.378  0.7952 -0.8435  2.2826
    1MOL   H189  189   0.812   1.663   7.314  0.2168  0.6422 -1.5148
    1MOL   H190  190   0.818   1.677   7.589 -0.3584 -1.8396 -0.9219
    1MOL   H191  191   0.718   1.812   7.564  0.4822  0.5901  0.6356
    1MOL   H192  192   0.633   1.523   7.499 -2.4296 -0.9109 -1.4996
    1MOL   H193  193   0.534   1.673   7.481  0.0250  1.2447  1.5671
    1MOL   N194  194   0.585   1.508   7.748  0.0337 -0.7694 -0.3214
    1MOL   C195  195   0.508   1.473   0.075 -0.6985 -0.2310 -0.2832
    1MOL   C196  196   0.534   1.338   0.136  0.1666 -0.3752  0.1343
    1MOL   C197  197   0.536   1.228   0.050 -0.5332 -0.3388 -0.5059
    1MOL   C198  198   0.540   1.098   0.102 -0.1468 -0.5476 -0.6111
    1MOL   C199  199   0.555   1.071   0.236  0.3404  0.4464 -0.1987
    1MOL   C200  200   0.531   1.181   0.319 -0.4962 -0.0233  0.0298
    1MOL   C201  201   0.520   1.315   0.276  0.4466 -0.3294 -0.4355
    1MOL   C202  202   0.496   1.422   0.371 -0.0578  0.1728  0.3171
    1MOL   N203  203   0.619   1.470   0.426 -0.2988  0.4156  0.2288
    1MOL   C204  204   0.641   1.481   0.559 -0.4602  0.3712  0.2855
    1MOL   O205  205   0.577   1.416   0.637  0.6651 -0.2781  0.2686
    1MOL   C206  206   0.761   1.558   0.602 -0.1598  0.1244 -0.6259
    1MOL   C207  207   0.766   1.601   0.748  0.0112  0.4760 -0.0761
    1MOL   C208  208   0.845   1.731   0.771 -0.1103 -0.8163  0.4244
    1MOL   C209  209   0.997   1.704   0.766 -0.1566  0.2702  0.5154
    1MOL   C210  210   1.089   1.815   0.819  0.4976  0.2564 -0.5601
    1MOL   C211  211   1.240   1.786   0.805  0.6420  0.1212 -0.1330
    1MOL   C212  212   1.331   1.889   0.869 -0.4744  0.1095 -0.3009
    1MOL   C213  213   1.351   1.892   1.022 -0.3297  0.1122 -0.2464
    1MOL   C214  214   1.374   1.756   1.085  0.3197  0.0787  1.1889
    1MOL   O215  215   1.472   1.699   1.052 -0.8515 -0.2771  0.6855
    1MOL   H216  216   0.644   1.435   7.711 -0.1404 -1.4740  0.7674
    1MOL   H217  217   0.525   1.550   0.150  2.4329 -0.0364 -1.1507
    1MOL   H218  218   0.403   1.471   0.044 -0.1916  2.3690 -2.3230
    1MOL   H219  219   0.521   1.239   7.734 -1.6079 -2.3060 -0.5753
    1MOL   H220  220   0.532   1.011   0.038  1.1514 -0.9547 -0.2440
    1MOL   H221  221   0.563   0.973   0.280  0.3672  0.4934 -0.0989
    1MOL   H222  222   0.513   1.160   0.423 -0.2077 -1.3830 -0.1852
    1MOL   H223  223   0.427   1.366   0.434  0.6791 -1.5453 -0.3839
    1MOL   H224  224   0.435   1.502   0.329 -0.5309  0.2691  1.1611
    1MOL   H225  225   0.679   1.526   0.368  0.7806 -1.0127 -0.0785
    1MOL   H226  226   0.768   1.643   0.535 -0.1443  0.2146 -0.5110
    1MOL   H227  227   0.833   1.479   0.582 -1.4848 -0.5438 -2.9040
    1MOL   H228  228   0.669   1.616   0.795  0.9295 -0.9486  2.3845
    1MOL   H229  229   0.807   1.521   0.810  1.5685  0.2169 -1.3899
    1MOL   H230  230   0.819   1.808   0.699  1.5154  0.7453  1.4563
    1MOL   H231  231   0.815   1.771   0.868  0.9377  0.8053  0.1048
    1MOL   H232  232   1.040   1.620   0.821  1.8162 -0.1970 -1.6814
    1MOL   H233  233   1.022   1.687   0.661  1.3618  0.1404  0.8836
    1MOL   H234  234   1.077   1.911   0.769 -0.7944  0.0378 -0.6661
    1MOL   H235  235   1.065   1.836   0.923  0.5146 -0.5998 -0.3857
    1MOL   H236  236   1.264   1.782   0.699 -0.0394  0.2312 -0.2961
    1MOL   H237  237   1.260   1.687   0.846  0.1794 -0.3562 -1.0537
    1MOL   H238  238   1.314   1.989   0.832 -0.4309 -1.0391 -3.5340
    1MOL   H239  239   1.430   1.857   0.834  0.2726 -1.1833  2.7883
    1MOL   H240  240   1.426   1.959   1.063 -0.6475 -1.1921  2.6135
    1MOL   H241  241   1.261   1.929   1.071 -0.3685 -1.8395  1.2095
    1MOL   N242  242   1.281   1.704   1.164  0.6242  0.1867 -0.4404
    1MOL   C243  243   1.277   1.571   1.213 -0.3965 -0.4952 -0.1964
    1MOL   C244  244   1.162   1.503   1.140 -0.5879 -0.1009  0.4982
    1MOL   C245  245   1.190   1.435   1.019  0.0968  0.7295 -0.1915
    1MOL   C246  246   1.092   1.371   0.944 -0.1502  0.3485  0.7533
    1MOL   C247  247   0.959   1.365   0.991  0.5921  0.1710 -0.6646
    1MOL   C248  248   0.933   1.432   1.109  0.1403 -0.0561  0.6800
    1MOL   C249  249   1.031   1.507   1.181  0.3841 -0.6668 -0.5090
    1MOL   C250  250   0.991   1.579   1.314 -0.6332 -0.7162 -0.0913
    1MOL   N251  251   0.901   1.688   1.282 -0.4767  0.1105  0.0227
    1MOL   C252  252   0.929   1.812   1.236 -0.4122 -0.1488 -0.4584
    1MOL   O253  253   1.042   1.860   1.231 -0.1881  0.3277  0.2536
    1MOL   C254  254   0.813   1.892   1.189  0.3317 -0.2784 -0.3353
    1MOL   C255  255   0.705   1.919   1.303 -0.2852  0.1848  0.1638
    1MOL   C256  256   0.739   2.029   1.402  0.8215  0.1209  0.1948
    1MOL   C257  257   0.615   2.107   1.441 -0.0133  0.8921  0.3407
    1MOL   C258  258   0.639   2.219   1.545 -0.4967  0.6215  0.0003
    1MOL   C259  259   0.509   2.293   1.587 -0.0608 -0.0903 -0.4280
    1MOL   C260  260   0.516   2.362   1.724  0.5487  0.4796 -0.4766
    1MOL   C261  261   0.599   2.493   1.719 -0.5798  0.8011  0.0830
    1MOL   C262  262   0.562   2.588   1.835  0.1379  0.6805 -0.0787
    1MOL   O263  263   0.491   2.682   1.809 -0.1308 -0.0984 -0.0271
    1MOL   H264  264   1.206   1.761   1.200  0.1439  0.6912 -2.1843
    1MOL   H265  265   1.371   1.524   1.185 -0.3091 -1.0323  1.0067
    1MOL   H266  266   1.275   1.556   1.320 -4.3843 -0.8016 -0.2498
    1MOL   H267  267   1.289   1.426   0.975 -0.9640 -2.2676 -2.0999
    1MOL   H268  268   1.116   1.314   0.856 -0.7975  0.8917  0.2196
    1MOL   H269  269   0.873   1.321   0.941  0.2602 -0.9729  0.8863
    1MOL   H270  270   0.836   1.415   1.153 -1.6533  2.6088 -2.0454
    1MOL   H271  271   1.073   1.625   1.370 -0.8582  1.3619 -1.4412
    1MOL   H272  272   0.940   1.498   1.367 -0.6161 -0.7000 -0.0500
    1MOL   H273  273   0.802   1.672   1.293 -0.6679  1.7220  0.6991
    1MOL   H274  274   0.769   1.832   1.110 -0.0433 -0.7248  0.2054
    1MOL   H275  275   0.842   1.983   1.137 -0.3463  1.1824  1.7869
    1MOL   H276  276   0.703   1.826   1.359 -1.0443 -0.9942 -1.7476
    1MOL   H277  277   0.613   1.939   1.248 -0.5661 -1.2716  0.0783
    1MOL   H278  278   0.808   2.103   1.360  0.6299  0.7155  0.9088
    1MOL   H279  279   0.785   1.989   1.492  1.3060 -1.3796 -0.7003
    1MOL   H280  280   0.570   2.153   1.353  0.3235 -0.9487 -0.8244
    1MOL   H281  281   0.549   2.031   1.482  0.9558  0.3722  0.9445
    1MOL   H282  282   0.684   2.162   1.626  0.4383  0.3049 -0.7333
    1MOL   H283  283   0.707   2.296   1.509 -0.4204  0.2437 -0.6617
    1MOL   H284  284   0.429   2.218   1.590 -0.5908  0.5013  0.8272
    1MOL   H285  285   0.477   2.355   1.504 -0.3358 -1.6870 -1.5392
    1MOL   H286  286   0.418   2.394   1.762  0.1081 -1.3201 -0.0756
    1MOL   H287  287   0.549   2.284   1.792  0.2322  0.0056 -0.8647
    1MOL   H288  288   0.706   2.472   1.710 -0.2216  2.7360 -0.3303
    1MOL   H289  289   0.574   2.530   1.620  0.2779 -0.5791 -0.6684
    1MOL   N290  290   0.605   2.565   1.958 -0.4807 -0.3047 -0.4394
    1MOL   C291  291   0.683   2.454   2.007 -0.3569  0.0649 -0.4320
    1MOL   C292  292   0.684   2.456   2.163 -0.4300  0.4701 -0.0455
    1MOL   C293  293   0.751   2.566   2.229 -1.3141  0.0073 -0.3755
    1MOL   C294  294   0.741   2.586   2.370  0.3947  0.2155  0.5469
    1MOL   C295  295   0.671   2.493   2.444 -0.2072  0.0275  0.7640
    1MOL   C296  296   0.611   2.383   2.382  1.0419  0.1686  0.4743
    1MOL   C297  297   0.617   2.361   2.242 -0.5729 -0.8880 -0.2279
    1MOL   C298  298   0.545   2.236   2.181 -0.1724 -0.8686  0.1899
    1MOL   N299  299   0.508   2.137   2.278  0.0625  0.2482 -0.0334
    1MOL   C300  300   0.389   2.124   2.335 -0.9851 -0.3065 -0.0143
    1MOL   O301  301   0.289   2.189   2.306  0.1451  0.0535 -0.2606
    1MOL   C302  302   0.393   2.032   2.462 -0.5203  0.3775 -0.6162
    1MOL   C303  303   0.280   2.032   2.562 -0.0428  0.0714 -0.0748
    1MOL   C304  304   0.301   1.935   2.677 -0.9615 -0.7976 -0.2367
    1MOL   C305  305   0.204   1.954   2.803  0.1873  1.2130 -0.0128
    1MOL   C306  306   0.223   1.841   2.914  0.8623  0.2842 -0.1760
    1MOL   C307  307   0.112   1.837   3.018  0.0869  0.1021 -0.3204
    1MOL   C308  308   0.064   1.974   3.068  0.5751  0.5046  0.4154
    1MOL   C309  309   7.756   1.952   3.176  0.1097 -0.1059 -0.1327
    1MOL   C310  310   7.679   2.083   3.216 -0.2542 -0.1790 -0.0307
    1MOL   O311  311   7.735   2.193   3.213 -0.1426 -0.3628  0.8569
    1MOL   H312  312   0.583   2.640   2.022 -0.3909  0.6195 -1.4770
    1MOL   H313  313   0.661   2.354   1.969  2.6274 -0.6531 -0.4251
    1MOL   H314  314   0.788   2.471   1.981  0.2648 -2.3724  0.3767
    1MOL   H315  315   0.794   2.650   2.177 -0.4440 -0.6610 -0.7460
    1MOL   H316  316   0.784   2.673   2.416 -1.4270  0.8285  1.1341
    1MOL   H317  317   0.669   2.500   2.552 -0.5852 -2.2330  0.9271
    1MOL   H318  318   0.544   2.323   2.442 -0.8868 -1.9881 -3.6796
    1MOL   H319  319   0.623   2.196   2.116  0.2029 -2.0887  1.3654
    1MOL   H320  320   0.465   2.256   2.109  0.7662  0.3563 -0.5308
    1MOL   H321  321   0.581   2.073   2.306  1.6628  1.6667 -0.9250
    1MOL   H322  322   0.392   1.936   2.412  2.7692  1.1661 -2.3488
    1MOL   H323  323   0.491   2.046   2.507  0.0509 -0.0861 -1.7047
    1MOL   H324  324   0.180   2.008   2.526  0.3389 -3.1046  0.7997
    1MOL   H325  325   0.273   2.136   2.595 -2.2185 -1.0039  3.1767
    1MOL   H326  326   0.400   1.957   2.719 -1.5184  1.3636  0.0089
    1MOL   H327  327   0.298   1.834   2.637 -0.8188 -0.5027 -1.0039
    1MOL   H328  328   0.204   2.055   2.842 -0.2801  1.6199 -1.0415
    1MOL   H329  329   0.101   1.940   2.769  0.2584 -0.3799  0.3924
    1MOL   H330  330   0.235   1.748   2.859  0.3529  0.5617 -0.7690
    1MOL   H331  331   0.319   1.859   2.962 -0.7258 -1.2554  3.7599
    1MOL   H332  332   0.148   1.779   3.103  0.2155  1.7510  0.7754
    1MOL   H333  333   0.027   1.777   2.986  0.3678  0.6215 -2.0710
    1MOL   H334  334   0.146   2.042   3.092  0.0223  0.8716  1.2731
    1MOL   H335  335   0.003   2.009   2.985 -2.2248  1.0832  2.6522
    1MOL   H336  336   7.684   1.873   3.159  1.5223 -1.1382 -1.4567
    1MOL   H337  337   0.019   1.916   3.265 -1.1424 -0.3579  0.5087
    1MOL   N338  338   7.552   2.071   3.256  0.5160 -0.0541 -0.2216
    1MOL   C339  339   7.472   2.176   3.321  0.5773 -0.0995  0.0580
    1MOL   C340  340   7.346   2.122   3.384  0.2646 -0.0336 -0.0204
    1MOL   C341  341   7.218   2.171   3.340 -0.0611  0.2105  0.5298
    1MOL   C342  342   7.102   2.132   3.414  0.1188 -0.4027  0.2845
    1MOL   C343  343   7.115   2.062   3.534  0.2196  0.8181  0.3131
    1MOL   C344  344   7.241   2.015   3.577  0.3459  0.1275 -0.3611
    1MOL   C345  345   7.359   2.047   3.504 -0.3334  0.6259 -0.4439
    1MOL   C346  346   7.483   1.971   3.561  0.1848  0.1240  0.5320
    1MOL   N347  347   7.477   1.823   3.561 -0.3739  0.1771  0.1348
    1MOL   C348  348   7.501   1.747   3.456 -0.1692  0.0993  0.1125
    1MOL   O349  349   7.521   1.791   3.347 -0.9528  0.0657  0.2940
    1MOL   C350  350   7.518   1.596   3.467 -0.2925 -0.7031 -0.1841
    1MOL   C351  351   7.572   1.526   3.334 -0.0364 -0.6628  0.1335
    1MOL   C352  352   7.712   1.559   3.303 -0.1454  0.2540 -0.2453
    1MOL   C353  353   7.760   1.499   3.175  0.0967 -0.1451 -0.2900
    1MOL   C354  354   7.743   1.347   3.162 -0.0370 -0.0496 -1.1295
    1MOL   C355  355   7.789   1.290   3.031 -0.1816  0.7225 -0.0141
    1MOL   C356  356   0.026   1.134   3.031 -0.3117  0.1682  0.0415
    1MOL   C357  357   0.102   1.089   2.905  0.2750 -0.4902 -0.0471
    1MOL   C358  358   0.255   1.100   2.924  0.3699  0.5419  0.1795
    1MOL   O359  359   0.326   1.011   2.971  0.5918 -0.3240 -0.7006
    1MOL   H360  360   7.519   1.976   3.260 -0.2845  0.2132 -0.3234
    1MOL   H361  361   7.528   2.226   3.399 -3.8795  0.8616  2.7809
    1MOL   H362  362   7.446   2.261   3.257  0.0617 -2.2777 -2.7510
    1MOL   H363  363   7.212   2.241   3.258 -1.9233  2.3616  2.3918
    1MOL   H364  364   7.011   2.172   3.372  1.4871  1.4017 -1.0551
    1MOL   H365  365   7.029   2.034   3.593  0.9800 -0.4085  0.8700
    1MOL   H366  366   7.239   1.949   3.662  2.8218 -0.0431 -0.3914
    1MOL   H367  367   7.491   1.997   3.667  0.3629  2.3553 -0.0081
    1MOL   H368  368   7.583   2.002   3.530  0.5888 -1.2425  0.4285
    1MOL   H369  369   7.442   1.781   3.646  2.9385 -2.2032  0.4115
    1MOL   H370  370   7.423   1.559   3.506  0.0320 -0.0531  1.2743
    1MOL   H371  371   7.589   1.576   3.547 -2.6141 -0.2341  2.0895
    1MOL   H372  372   7.508   1.557   3.252 -1.3045  0.8224  1.6374
    1MOL   H373  373   7.559   1.419   3.342 -0.8179 -0.4939  1.2521
    1MOL   H374  374   7.728   1.666   3.316 -0.0461  0.1307  0.7252
    1MOL   H375  375   7.768   1.513   3.384 -0.8284 -1.5639 -0.7847
    1MOL   H376  376   0.072   1.527   3.149  0.5283 -2.4437 -1.1510
    1MOL   H377  377   7.707   1.543   3.091 -0.6985  0.8214  0.6941
    1MOL   H378  378   0.015   1.307   3.243  2.1154  2.4757 -1.4644
    1MOL   H379  379   7.641   1.308   3.170  0.2179 -0.8732 -1.7659
    1MOL   H380  380   0.087   1.349   3.006 -0.9322  0.9733 -2.1859
    1MOL   H381  381   7.724   1.307   2.945  0.4618 -0.5484 -0.7681
    1MOL   H382  382   0.089   1.115   3.118  0.3938 -0.5776 -0.6313
    1MOL   H383  383   7.719   1.085   3.034  0.2971 -1.1183 -1.1078
    1MOL   H384  384   0.061   1.124   2.810 -1.8801 -0.4255  0.8619
    1MOL   H385  385   0.083   0.982   2.908 -0.3309 -0.3690  1.0098
    1MOL   N386  386   0.312   1.204   2.862 -0.8573 -0.0229  0.0918
    1MOL   C387  387   0.459   1.234   2.869  0.5565  0.1368 -0.2562
    1MOL   C388  388   0.486   1.373   2.934  0.2988  0.3872  0.4683
    1MOL   C389  389   0.392   1.431   3.019 -0.9196 -0.3596  0.0582
    1MOL   C390  390   0.417   1.561   3.066 -0.2487  0.2404 -0.1629
    1MOL   C391  391   0.526   1.637   3.020  0.3614  0.5114  0.0432
    1MOL   C392  392   0.615   1.579   2.936 -0.2729  1.0144  0.4858
    1MOL   C393  393   0.605   1.445   2.898 -0.7988 -0.2267  0.6463
    1MOL   C394  394   0.716   1.391   2.805 -0.6273  0.1872 -0.3049
    1MOL   N395  395   0.748   1.245   2.829  0.1263 -0.3285 -0.3205
    1MOL   C396  396   0.764   1.157   2.725 -0.0609 -0.2248  0.0924
    1MOL   O397  397   0.753   1.189   2.608 -0.0616  0.0268  0.0785
    1MOL   C398  398   0.807   1.018   2.755 -0.2668 -0.4654 -0.0706
    1MOL   C399  399   0.823   0.935   2.620  0.6147 -0.6825 -0.3080
    1MOL   C400  400   0.955   0.950   2.543  0.1138  0.2472 -0.5919
    1MOL   C401  401   0.961   0.881   2.399  0.8222 -0.3358 -0.3289
    1MOL   C402  402   1.073   0.920   2.300 -0.0088  0.2646  0.1022
    1MOL   C403  403   1.035   1.040   2.209 -0.7473 -0.1122 -0.1406
    1MOL   C404  404   1.144   1.086   2.104  0.5314  0.1170  0.3303
    1MOL   C405  405   1.163   0.997   1.976 -0.1897 -0.0156 -0.1641
    1MOL   C406  406   1.038   0.995   1.881 -0.4181 -0.3926  0.1713
    1MOL   O407  407   0.957   1.085   1.867  0.9307 -0.0676 -0.0533
    1MOL   H408  408   0.252   1.264   2.807  1.0069  0.4543 -1.4733
    1MOL   H409  409   0.515   1.162   2.927  0.3963  0.3976  0.2245
    1MOL   H410  410   0.491   1.228   2.765  1.4099  0.0543  0.0083
    1MOL   H411  411   0.311   1.378   3.067  0.5399 -1.5887  1.2276
    1MOL   H412  412   0.344   1.602   3.135  0.3207  1.3573 -0.2136
    1MOL   H413  413   0.546   1.737   3.057 -1.8832  0.9766  0.0633
    1MOL   H414  414   0.696   1.648   2.912  1.2958 -0.6965  0.7311
    1MOL   H415  415   0.801   1.457   2.826 -1.2085  0.6503  0.6060
    1MOL   H416  416   0.686   1.411   2.702 -2.0388 -0.6148 -0.0588
    1MOL   H417  417   0.752   1.208   2.923  0.5093 -0.0314 -0.2196
    1MOL   H418  418   0.896   1.021   2.818 -0.0574 -1.9776 -0.2734
    1MOL   H419  419   0.733   0.968   2.818 -0.3262  0.8859  0.9613
    1MOL   H420  420   0.732   0.950   2.561 -0.3736 -0.6554  1.2019
    1MOL   H421  421   0.830   0.832   2.654  0.5202 -0.1616  1.3395
    1MOL   H422  422   1.045   0.925   2.598  0.8435  1.1865 -1.3517
    1MOL   H423  423   0.976   1.056   2.530 -2.2582  0.8218 -0.1026
    1MOL   H424  424   0.967   0.775   2.422 -1.6113 -0.4521 -0.1243
    1MOL   H425  425   0.865   0.894   2.350  1.6386  1.4809 -1.4976
    1MOL   H426  426   1.171   0.943   2.341  0.0313  1.2767 -0.5438
    1MOL   H427  427   1.089   0.837   2.232 -0.2174  1.1984 -1.1015
    1MOL   H428  428   0.991   1.121   2.268 -1.0204 -0.6845  0.4490
    1MOL   H429  429   0.949   1.001   2.155 -0.3860  0.6862 -1.2880
    1MOL   H430  430   1.243   1.115   2.141  0.3627  0.7528  0.2924
    1MOL   H431  431   1.117   1.181   2.058  2.2543  0.5707  0.2110
    1MOL   H432  432   1.187   0.894   2.000 -0.3980  0.1096  0.5893
    1MOL   H433  433   1.241   1.030   1.908 -0.3303 -0.9670 -0.7933
    1MOL   N434  434   1.024   0.867   1.826  0.5082  0.5592  0.1464
    1MOL   C435  435   0.899   0.812   1.771 -1.2232  0.1555  0.1985
    1MOL   C436  436   0.843   0.697   1.853  0.1209 -0.3592 -0.0964
    1MOL   C437  437   0.871   0.686   1.994 -0.3212 -0.4511  0.3460
    1MOL   C438  438   0.817   0.583   2.070  0.3673  0.1553 -0.3496
    1MOL   C439  439   0.735   0.487   2.015  0.0156  0.0812  0.1906
    1MOL   C440  440   0.704   0.493   1.875 -0.0705  0.4829  0.0185
    1MOL   C441  441   0.748   0.607   1.798 -0.1853 -0.5062  0.3123
    1MOL   C442  442   0.701   0.621   1.650  0.5192 -0.0593  0.0036
    1MOL   N443  443   0.603   0.725   1.644  0.5531  0.1064 -0.7239
    1MOL   C444  444   0.513   0.726   1.544  0.4795  0.2900 -0.3908
    1MOL   O445  445   0.528   0.647   1.451 -0.5323 -0.0611  0.5759
    1MOL   C446  446   0.385   0.810   1.566 -0.9985 -0.4719 -0.1696
    1MOL   C447  447   0.315   0.823   1.429 -0.0877  0.4980 -0.4966
    1MOL   C448  448   0.207   0.707   1.416 -0.1268  0.1167  0.8472
    1MOL   C449  449   0.147   0.690   1.270  1.0493 -0.3080 -0.1462
    1MOL   C450  450   7.786   0.657   1.269  0.2185 -0.2984 -0.5624
    1MOL   C451  451   7.735   0.565   1.150  0.5990 -0.3201 -0.1890
    1MOL   C452  452   7.579   0.540   1.155 -0.0441  0.5420  0.3427
    1MOL   C453  453   7.533   0.453   1.278  0.5921 -0.1216  0.2273
    1MOL   C454  454   7.608   0.321   1.295  0.0741 -0.0761 -0.1329
    1MOL   O455  455   7.599   0.241   1.207 -0.2179  0.2994  0.6141
    1MOL   H456  456   1.093   0.799   1.854 -0.5188 -0.0770  1.1725
    1MOL   H457  457   0.921   0.784   1.668  0.7919  2.4537 -0.0496
    1MOL   H458  458   0.822   0.889   1.780 -1.8101 -0.4122  0.1133
    1MOL   H459  459   0.943   0.755   2.035  0.2109 -0.5953 -0.3239
    1MOL   H460  460   0.845   0.569   2.174 -1.6193 -2.9538 -0.1583
    1MOL   H461  461   0.706   0.407   2.081  0.6714  0.0777  0.4765
    1MOL   H462  462   0.638   0.426   1.822  1.0909 -0.4525 -0.2314
    1MOL   H463  463   0.659   0.523   1.628  2.0545 -0.6498 -0.3286
    1MOL   H464  464   0.786   0.638   1.585  0.4314  2.2711  0.4257
    1MOL   H465  465   0.598   0.797   1.714 -2.9068 -1.1726  0.4388
    1MOL   H466  466   0.427   0.908   1.588 -0.3968 -0.5510 -0.9137
    1MOL   H467  467   0.322   0.783   1.651 -1.8200  1.7254 -0.0593
    1MOL   H468  468   0.390   0.821   1.349  0.4621 -0.0971  0.0374
    1MOL   H469  469   0.263   0.918   1.412  0.1758  0.6579 -0.4165
    1MOL   H470  470   0.261   0.618   1.449 -1.0187 -0.4247  0.8661
    1MOL   H471  471   0.127   0.722   1.487 -1.0571  0.0514 -0.1729
    1MOL   H472  472   0.174   0.775   1.207 -0.2786  0.6170  0.5051
    1MOL   H473  473   0.197   0.603   1.228  0.3142 -2.1780  2.7106
    1MOL   H474  474   7.758   0.603   1.360  2.4023 -0.7406 -0.1340
    1MOL   H475  475   7.740   0.756   1.280  0.4493 -0.2146 -0.3556
    1MOL   H476  476   7.772   0.465   1.170 -1.2538 -1.2796 -1.3854
    1MOL   H477  477   7.764   0.594   1.049 -3.0719  0.8832 -0.9774
    1MOL   H478  478   7.516   0.627   1.175 -0.1570  0.0507  2.1871
    1MOL   H479  479   7.538   0.494   1.065  0.0562 -0.0915  0.6210
    1MOL   H480  480   7.539   0.510   1.371  0.3243  1.8175 -0.9225
    1MOL   H481  481   7.425   0.446   1.263  0.5780  0.6814 -0.0393
    1MOL   N482  482   7.686   0.296   1.402  0.2633  0.4079  0.1335
    1MOL   C483  483   7.767   0.178   1.436 -0.3120 -0.1250 -0.5986
    1MOL   C484  484   0.124   0.188   1.401 -0.4000 -0.1232 -0.2350
    1MOL   C485  485   0.181   0.308   1.360 -0.4864 -0.1275  0.4098
    1MOL   C486  486   0.319   0.325   1.346 -0.6430 -0.1767 -0.0669
    1MOL   C487  487   0.398   0.212   1.355  0.3029 -0.5304 -0.1598
    1MOL   C488  488   0.342   0.088   1.385  0.2907  0.3818 -0.2264
    1MOL   C489  489   0.207   0.076   1.427  0.2102  0.5552  0.2780
    1MOL   C490  490   0.155   7.740   1.493  0.3684 -0.5346 -0.4372
    1MOL   N491  491   0.216   7.619   1.454 -0.2472  0.1621  0.0372
    1MOL   C492  492   0.298   7.544   1.532  0.0553 -0.0862  0.8773
    1MOL   O493  493   0.333   7.575   1.642 -0.0701  0.0990  0.1230
    1MOL   C494  494   0.345   7.411   1.481 -0.1862  0.5300  1.1069
    1MOL   C495  495   0.494   7.392   1.496 -0.6164 -0.2549 -0.1822
    1MOL   C496  496   0.578   7.487   1.406  0.4696  0.2604 -0.2481
    1MOL   C497  497   0.563   7.487   1.248 -0.2098  0.2391 -0.4184
    1MOL   C498  498   0.681   7.571   1.188 -0.1104 -0.3034 -0.7060
    1MOL   C499  499   0.658   7.726   1.191  0.1570  0.6448 -0.8272
    1MOL   C500  500   0.776   0.012   1.124  0.4009  0.1220 -0.0609
    1MOL   C501  501   0.755   0.159   1.097 -0.4046  0.0317  0.4465
    1MOL   C502  502   0.629   0.187   1.013 -0.3365 -0.3521 -0.3080
    1MOL   O503  503   0.611   0.112   0.917 -0.1103  0.1962 -0.0604
    1MOL   H504  504   7.697   0.374   1.465  1.0060  0.0305  0.4710
    1MOL   H505  505   7.749   0.163   1.542  0.7697  0.1473 -0.3647
    1MOL   H506  506   7.729   0.095   1.376 -0.5790  0.3002 -1.0222
    1MOL   H507  507   0.113   0.389   1.336  1.3733  1.1511 -0.6697
    1MOL   H508  508   0.367   0.421   1.332 -1.1863 -0.1510 -1.8441
    1MOL   H509  509   0.500   0.219   1.321  0.5171  2.3276  0.9572
    1MOL   H510  510   0.409   0.003   1.390 -0.5439 -0.3294 -0.9079
    1MOL   H511  511   0.047   7.732   1.479  0.2778 -1.4022  0.6768
    1MOL   H512  512   0.164   7.752   1.601 -1.7543 -1.6158 -0.1173
    1MOL   H513  513   0.188   7.575   1.367  0.8049 -1.9212  0.7225
    1MOL   H514  514   0.329   7.403   1.374 -1.4863  1.3042  1.2423
    1MOL   H515  515   0.297   7.325   1.528  0.3889  1.6485  3.8564
    1MOL   H516  516   0.530   7.290   1.491  1.8597  0.5744 -0.0168
    1MOL   H517  517   0.528   7.426   1.594 -1.1637  2.1565 -0.7758
    1MOL   H518  518   0.571   7.592   1.435  1.0647  0.2785 -0.1643
    1MOL   H519  519   0.681   7.459   1.428  0.3293 -0.4274 -0.4333
    1MOL   H520  520   0.559   7.382   1.218  0.0594  0.0513  0.1968
    1MOL   H521  521   0.467   7.526   1.215  0.5410  0.6668 -2.1448
    1MOL   H522  522   0.780   7.544   1.223 -0.8518 -0.6822  1.1407
    1MOL   H523  523   0.688   7.547   1.082  1.8168  0.2083 -0.7029
    1MOL   H524  524   0.653   7.755   1.296  0.9199 -2.5553  0.1468
    1MOL   H525  525   0.560   7.736   1.144  0.4083 -3.3041 -2.3703
    1MOL   H526  526   0.871   0.004   1.177 -0.5988 -1.8022  1.5010
    1MOL   H527  527   0.804   7.742   1.037 -2.8897 -0.4901 -0.7922
    1MOL   H528  528   0.831   0.200   1.031 -0.0525 -0.5318  0.4956
    1MOL   H529  529   0.768   0.219   1.187  0.0434 -0.2956  0.6030
    1MOL   N530  530   0.544   0.284   1.055  0.6718  0.2771 -0.3993
    1MOL   C531  531   0.425   0.321   0.987 -0.7370 -0.4886 -0.4511
    1MOL   C532  532   0.398   0.476   1.002 -0.3985  0.5738 -0.6462
    1MOL   C533  533   0.492   0.557   1.079  1.0063  0.7295 -0.3529
    1MOL   C534  534   0.483   0.699   1.086 -0.0515  0.4018  0.3560
    1MOL   C535  535   0.377   0.763   1.022 -0.8615  0.1574  0.0378
    1MOL   C536  536   0.279   0.680   0.956 -0.5850 -0.8636  0.0218
    1MOL   C537  537   0.294   0.543   0.939  0.0842 -0.6905  0.1545
    1MOL   C538  538   0.194   0.480   0.838  0.2626  0.7439 -0.5113
    1MOL   N539  539   0.176   0.552   0.711 -0.1203 -0.2086 -0.5325
    1MOL   C540  540   0.067   0.630   0.686  0.1078 -0.0062  0.4510
    1MOL   O541  541   7.767   0.643   0.766 -0.4518  0.0880  1.0311
    1MOL   C542  542   0.069   0.718   0.558  0.0165  0.2109 -0.1317
    1MOL   C543  543   7.721   0.740   0.492 -0.7388 -0.4207 -0.3022
    1MOL   C544  544   7.642   0.625   0.429  0.3188 -0.1183 -0.9792
    1MOL   C545  545   7.521   0.679   0.353 -0.1203 -0.1580 -0.2518
    1MOL   C546  546   7.446   0.547   0.301 -0.5181  0.7356 -0.0920
    1MOL   C547  547   7.358   0.587   0.185 -0.1652  0.4805 -0.2263
    1MOL   C548  548   7.434   0.629   0.056 -0.2060  0.1311 -0.4543
    1MOL   C549  549   7.532   0.524   7.785 -0.1403 -0.9257 -0.2963
    1MOL   C550  550   7.564   0.559   7.637  0.0372 -0.3908 -0.1614
    1MOL   O551  551   7.579   0.680   7.598 -0.1821  0.1397  0.2708
    1MOL   H552  552   0.559   0.317   1.149 -3.0939 -1.8889  1.0768
    1MOL   H553  553   0.347   0.262   1.035 -2.3906  2.0654  0.0936
    1MOL   H554  554   0.426   0.296   0.881 -2.4735 -0.6899 -0.4489
    1MOL   H555  555   0.571   0.509   1.136  0.1478 -0.9889 -0.5636
    1MOL   H556  556   0.551   0.757   1.146 -3.0475  3.3387  1.0476
    1MOL   H557  557   0.373   0.871   1.029 -0.6608  0.1766 -0.1523
    1MOL   H558  558   0.200   0.731   0.904  0.0227  0.0965  0.0194
    1MOL   H559  559   0.101   0.459   0.890 -0.1311  2.3380 -0.5495
    1MOL   H560  560   0.227   0.383   0.802  1.9874  0.7225  1.0584
    1MOL   H561  561   0.256   0.547   0.650  1.1322 -0.2793  1.0947
    1MOL   H562  562   0.138   0.673   0.488  1.5964  0.6522  1.1098
    1MOL   H563  563   0.101   0.818   0.586 -3.4364  1.9002 -1.8926
    1MOL   H564  564   7.725   0.822   0.420 -0.7084  0.4265  0.6519
    1MOL   H565  565   7.656   0.789   0.565 -1.6124 -0.8149 -0.7965
    1MOL   H566  566   7.716   0.577   0.365  0.1348  2.1511 -2.9874
    1MOL   H567  567   7.617   0.548   0.501  0.0452 -0.7542 -1.7434
    1MOL   H568  568   7.453   0.748   0.403  0.6887  0.7585 -0.4116
    1MOL   H569  569   7.557   0.733   0.265  0.4437  1.5846  1.0273
    1MOL   H570  570   7.513   0.462   0.287 -2.6067 -1.1720  1.0667
    1MOL   H571  571   7.380   0.531   0.387 -0.2917  0.9079  0.1137
    1MOL   H572  572   7.303   0.677   0.213 -1.4940  0.6394 -3.1586
    1MOL   H573  573   7.284   0.512   0.160 -0.8130  1.9141 -2.7810
    1MOL   H574  574   7.351   0.645   7.776 -0.3105 -0.0972 -0.3832
    1MOL   H575  575   7.470   0.732   0.047 -0.6092  0.2524 -0.6708
    1MOL   H576  576   7.473   0.432   7.786 -1.3886 -0.1321  0.9437
    1MOL   H577  577   7.625   0.503   0.050  0.1245 -1.3468 -0.9042
    1MOL   N578  578   7.583   0.458   7.551 -0.1218  0.2010 -0.0769
    1MOL   C579  579   7.616   0.464   7.415  0.1541  0.2199  0.4352
    1MOL   C580  580   7.563   0.334   7.349  0.2482  0.3032  0.4544
    1MOL   C581  581   7.423   0.316   7.334 -0.6837 -0.3672 -0.2448
    1MOL   C582  582   7.376   0.195   7.280  0.6524  0.5178 -0.1876
    1MOL   C583  583   7.466   0.089   7.253  0.3324 -0.2267 -0.3715
    1MOL   C584  584   7.601   0.110   7.269  0.2973 -0.4689  0.0848
    1MOL   C585  585   7.654   0.234   7.314 -0.6515  0.0764  1.0419
    1MOL   C586  586   0.009   0.233   7.359  0.0829 -0.5942 -0.4352
    1MOL   N587  587   0.002   0.225   7.507  0.4291 -0.1824  0.0730
    1MOL   C588  588   0.094   0.268   7.591  0.1274 -0.2948 -0.6668
    1MOL   O589  589   0.198   0.319   7.543  0.1830  0.0743 -1.0338
    1MOL   C590  590   0.063   0.265   7.736 -0.4841 -0.3537  0.2793
    1MOL   C591  591   0.129   0.373   0.026 -0.8141 -0.2167  0.1221
    1MOL   C592  592   0.078   0.385   0.172 -0.1142  0.7792  0.1504
    1MOL   C593  593   0.160   0.310   0.282 -0.7440  0.5534  0.0624
    1MOL   C594  594   0.094   0.319   0.415 -0.2608 -0.1869  0.6085
    1MOL   C595  595   0.157   0.220   0.518 -0.2211 -0.0912 -0.2445
    1MOL   C596  596   0.051   0.164   0.624  0.5022  0.0077 -0.4136
    1MOL   C597  597   0.085   0.030   0.688 -0.0808 -0.4045 -0.2977
    1MOL   C598  598   0.185   0.036   0.805 -0.7891 -0.6866 -0.0382
    1MOL   O599  599   0.245   0.142   0.832  0.0706  0.4739 -0.0619
    1MOL   H600  600   7.579   0.366   7.592 -1.4482 -0.0589 -0.7555
    1MOL   H601  601   7.721   0.491   7.402  0.3944 -1.5853 -1.6228
    1MOL   H602  602   7.561   0.547   7.371  1.3719  0.8170  0.0287
    1MOL   H603  603   7.352   0.393   7.361  0.3193  0.7562 -0.7697
    1MOL   H604  604   7.269   0.181   7.279  0.8253 -0.8914 -1.0875
    1MOL   H605  605   7.436   7.777   7.236 -0.5269 -0.2408  1.1124
    1MOL   H606  606   7.668   0.026   7.254 -1.1647 -1.5116 -0.7142
    1MOL   H607  607   0.059   0.328   7.339 -0.2403 -0.5517 -1.0232
    1MOL   H608  608   0.068   0.153   7.315  1.0637  0.4991 -1.1373
    1MOL   H609  609   7.705   0.191   7.544 -1.0339  2.1511 -1.1424
    1MOL   H610  610   0.087   0.168   7.781  0.7967  0.1304  0.6705
    1MOL   H611  611   7.746   0.279   7.746 -0.5603 -0.1769 -0.8130
    1MOL   H612  612   0.129   0.469   7.766 -0.5696 -0.7289 -0.8754
    1MOL   H613  613   0.237   0.359   0.029 -0.7245  0.5098  0.2666
    1MOL   H614  614   0.073   0.493   0.183  0.1233  1.1335 -2.8141
    1MOL   H615  615   7.764   0.357   0.185 -0.5312  1.9950 -0.5017
    1MOL   H616  616   0.181   0.205   0.262  0.6190  1.1673 -1.9175
    1MOL   H617  617   0.258   0.358   0.283  0.0124 -0.9116 -1.9124
    1MOL   H618  618   0.093   0.419   0.456 -1.4704  0.6985 -1.5155
    1MOL   H619  619   7.787   0.281   0.384 -0.0396 -0.6819  0.5055
    1MOL   H620  620   0.238   0.266   0.575 -1.1908  0.1536  0.9764
    1MOL   H621  621   0.188   0.134   0.460 -1.7699  0.1241 -1.4286
    1MOL   H622  622   0.044   0.234   0.708  0.0762  1.3600 -1.5626
    1MOL   H623  623   7.735   0.165   0.597  0.1077 -0.3628  1.0365
    1MOL   H624  624   7.789   7.760   0.720 -1.7032  1.7181 -0.5989
    1MOL   H625  625   0.127   7.756   0.611 -1.8317 -1.4381 -0.4273
    1MOL   N626  626   0.192   7.716   0.881  0.4929  0.0471 -0.2770
    1MOL   C627  627   0.271   7.700   0.999 -0.0002  0.3212  0.1523
    1MOL   C628  628   0.197   7.601   1.088  0.3279 -0.6996 -0.3844
    1MOL   C629  629   0.082   7.650   1.166  0.1273  0.7606  0.7259
    1MOL   C630  630   0.003   7.563   1.240 -0.0321  0.3535  0.2806
    1MOL   C631  631   0.039   7.431   1.234 -1.0990  0.4520  1.0053
    1MOL   C632  632   0.148   7.381   1.167  0.6532  0.4690  0.3473
    1MOL   C633  633   0.225   7.462   1.085 -0.1297 -0.6107  0.2359
    1MOL   C634  634   0.332   7.399   0.999 -0.3639 -0.4603 -0.2308
    1MOL   N635  635   0.301   7.385   0.856 -0.3534 -0.4800  0.1002
    1MOL   C636  636   0.267   7.265   0.799  0.0405 -0.1573  0.1762
    1MOL   O637  637   0.248   7.155   0.858 -0.1302 -0.7605  0.2143
    1MOL   C638  638   0.237   7.263   0.651  0.2893 -0.0091  0.1127
    1MOL   C639  639   0.089   7.230   0.616 -0.1663  0.5109 -0.0463
    1MOL   C640  640   7.776   7.333   0.663  0.0878 -0.2903 -0.0547
    1MOL   C641  641   7.716   7.311   0.800 -0.0897 -0.3596 -0.1689
    1MOL   C642  642   7.609   7.412   0.835  0.0471  0.0091 -0.2088
    1MOL   C643  643   7.672   7.552   0.865  0.0428  0.2286  0.7633
    1MOL   C644  644   7.582   7.641   0.945  0.0412  0.6367  0.1698
    1MOL   C645  645   7.629   7.783   0.963  0.3211 -1.1592  0.4605
    1MOL   C646  646   7.576   0.104   0.872 -0.0457 -0.2269 -0.7884
    1MOL   O647  647   7.534   0.069   0.763 -0.1732 -0.4169 -0.0877
    1MOL   H648  648   0.123   7.646   0.858 -0.2221  1.1419 -1.5212
    1MOL   H649  649   0.274   0.005   1.054  4.8909 -0.1891  0.9896
    1MOL   H650  650   0.374   7.667   0.987  0.1426  0.4056  1.0701
    1MOL   H651  651   0.064   7.757   1.162 -0.7381  0.6434  1.2081
    1MOL   H652  652   7.712   7.596   1.303 -0.4053  2.2963 -1.1601
    1MOL   H653  653   7.773   7.362   1.296 -0.8561 -0.1041  0.6114
    1MOL   H654  654   0.162   7.274   1.164  1.4238  0.5932 -1.0710
    1MOL   H655  655   0.366   7.308   1.048  0.8452  1.9465  3.6087
    1MOL   H656  656   0.423   7.458   1.007  0.3571 -1.5487 -0.2865
    1MOL   H657  657   0.325   7.462   0.796 -3.2319 -0.2140 -0.7699
    1MOL   H658  658   0.309   7.206   0.593  2.8192  3.2416 -0.0994
    1MOL   H659  659   0.252   7.362   0.607 -1.4781 -0.7837 -2.3035
    1MOL   H660  660   0.058   7.136   0.660  0.7974  1.0436  1.8288
    1MOL   H661  661   0.083   7.224   0.507  2.1229 -1.0605 -0.1290
    1MOL   H662  662   0.043   7.426   0.661 -2.1556  1.1182  0.2927
    1MOL   H663  663   7.694   7.345   0.593 -1.3694  2.3096  2.0102
    1MOL   H664  664   7.681   7.208   0.814 -0.8363 -0.0050  0.5770
    1MOL   H665  665   0.015   7.319   0.862  1.2561  1.6275 -2.2399
    1MOL   H666  666   7.523   7.427   0.771  1.2048  1.3631 -1.5038
    1MOL   H667  667   7.572   7.358   0.922  1.0935 -1.9162 -0.9326
    1MOL   H668  668   7.707   7.591   0.770  1.0731  0.3815  1.1988
    1MOL   H669  669   7.761   7.553   0.929  1.3258  1.1741 -0.9892
    1MOL   H670  670   7.485   7.644   0.895 -0.2928 -1.0354  0.6764
    1MOL   H671  671   7.572   7.600   1.045 -0.7394  1.3444  0.3814
    1MOL   H672  672   7.738   7.781   0.954  0.6363  1.0363  2.9878
    1MOL   H673  673   7.615   0.011   1.070  1.1479  1.1971  0.2104
    1MOL   N674  674   7.571   0.237   0.922 -0.2394 -0.5694  0.2836
    1MOL   C675  675   7.511   0.348   0.841 -0.9779  0.2447  0.2898
    1MOL   C676  676   7.375   0.396   0.892 -0.0528 -0.4113 -0.3960
    1MOL   C677  677   7.296   0.310   0.971  0.6761 -0.4243 -0.1089
    1MOL   C678  678   7.180   0.361   1.042 -0.1291  0.2976  0.1825
    1MOL   C679  679   7.142   0.494   1.022  0.4467  0.4413 -0.2736
    1MOL   C680  680   7.213   0.570   0.931  0.4099 -0.0120 -0.2874
    1MOL   C681  681   7.330   0.530   0.871 -0.0875  0.4820  0.1903
    1MOL   C682  682   7.411   0.631   0.788  0.4050  0.4803  0.4472
    1MOL   N683  683   7.503   0.695   0.870  0.0435 -0.0332 -0.1455
    1MOL   C684  684   7.487   0.807   0.941 -0.0509 -0.2349 -0.7036
    1MOL   O685  685   7.378   0.862   0.956  0.4601 -0.8126 -0.0049
    1MOL   C686  686   7.607   0.862   1.017  0.0197  0.3555  0.4634
    1MOL   C687  687   7.643   1.006   0.984 -0.0774  0.1376  0.1308
    1MOL   C688  688   7.761   1.014   0.882  0.2546  0.0320  0.1639
    1MOL   C689  689   0.010   1.153   0.837  0.2963  0.3863 -0.3184
    1MOL   C690  690   0.135   1.147   0.756  0.1987  0.0531 -0.0085
    1MOL   C691  691   0.190   1.282   0.704 -0.3607 -0.1049 -0.6083
    1MOL   C692  692   0.116   1.344   0.584 -0.5478  0.2358  0.5281
    1MOL   C693  693   0.153   1.496   0.557  0.1811  0.2581  0.2737
    1MOL   C694  694   0.098   1.537   0.422  0.4430 -0.0924 -0.1650
    1MOL   O695  695   7.773   1.513   0.390 -0.2422  0.1384  0.4017
    1MOL   H696  696   7.579   0.245   1.022  0.2225 -0.8332  0.2676
    1MOL   H697  697   7.497   0.315   0.738  2.4340 -0.2374 -0.0741
    1MOL   H698  698   7.576   0.435   0.838  0.4674 -0.7851  1.0652
    1MOL   H699  699   7.330   0.212   0.999 -1.0953 -1.2268 -0.6815
    1MOL   H700  700   7.121   0.292   1.101 -1.9385  2.3095  0.7635
    1MOL   H701  701   7.054   0.532   1.072  0.9666  0.3460  0.7157
    1MOL   H702  702   7.174   0.664   0.895  0.5664  1.0939  2.3145
    1MOL   H703  703   7.341   0.700   0.742 -2.4086 -1.1192  2.1471
    1MOL   H704  704   7.450   0.572   0.706 -1.6995  1.4729 -1.3119
    1MOL   H705  705   7.598   0.659   0.871 -0.2688 -0.9435 -1.1852
    1MOL   H706  706   7.696   0.800   1.009 -1.6863 -2.3807  2.0421
    1MOL   H707  707   7.582   0.871   1.123 -0.5177  2.2009  0.2021
    1MOL   H708  708   7.670   1.060   1.074 -0.0348  0.0346  0.1805
    1MOL   H709  709   7.554   1.051   0.940 -0.8049  0.6787  2.1078
    1MOL   H710  710   0.055   0.961   0.928 -0.5047  0.9705  2.7158
    1MOL   H711  711   7.736   0.952   0.796 -0.5689  1.1802 -0.4320
    1MOL   H712  712   7.719   1.195   0.776  1.0330  0.6642 -1.1218
    1MOL   H713  713   0.028   1.217   0.923  1.0780  0.2560 -0.3808
    1MOL   H714  714   0.220   1.102   0.808  1.1704  0.6949 -0.9908
    1MOL   H715  715   0.108   1.092   0.666 -0.9410  3.7394 -2.0271
    1MOL   H716  716   0.294   1.276   0.673 -0.7812  1.2919 -2.3836
    1MOL   H717  717   0.205   1.355   0.784  1.9495 -2.1683  0.8854
    1MOL   H718  718   0.008   1.333   0.592 -0.7537  0.7719 -1.1612
    1MOL   H719  719   0.146   1.287   0.495  1.7567  0.7075  0.9825
    1MOL   H720  720   0.259   1.514   0.572  0.7652 -2.4304 -0.5123
    1MOL   H721  721   0.089   1.544   0.631 -1.3350 -0.9701 -0.2042
    1MOL   N722  722   0.180   1.607   0.340  0.0027  0.6156  0.4074
    1MOL   C723  723   0.154   1.644   0.196 -0.1563 -0.3412  0.2137
    1MOL   C724  724   0.106   1.782   0.185 -0.4470  0.1402 -0.3671
    1MOL   C725  725   7.755   1.802   0.179  0.1134 -0.1154 -0.1704
    1MOL   C726  726   7.698   1.931   0.166  0.2046  0.1029 -0.2105
    1MOL   C727  727   7.787   2.041   0.155  0.1699  0.2339  0.4087
    1MOL   C728  728   0.132   2.022   0.160 -0.5972  0.2452 -0.4509
    1MOL   C729  729   0.189   1.893   0.173 -0.6441 -0.6324 -0.2006
    1MOL   C730  730   0.338   1.873   0.170  0.7062 -0.3233  1.2316
    1MOL   N731  731   0.410   1.935   0.282 -0.3344  0.2044 -0.0724
    1MOL   C732  732   0.444   1.857   0.391 -0.0627  0.1102 -0.2566
    1MOL   O733  733   0.431   1.734   0.404 -0.0793 -0.0180  0.1731
    1MOL   C734  734   0.507   1.934   0.508  0.6270 -0.5123 -0.3312
    1MOL   C735  735   0.479   1.883   0.650  0.0045  0.5294  0.0372
    1MOL   C736  736   0.330   1.911   0.687  0.3407 -0.4117 -0.5627
    1MOL   C737  737   0.280   1.847   0.819  0.4733 -0.4848  0.2387
    1MOL   C738  738   0.294   1.695   0.827  0.7461 -0.3751  0.1960
    1MOL   C739  739   0.306   1.637   0.967  0.5075 -0.3216  0.4655
    1MOL   C740  740   0.431   1.672   1.052  0.7594 -0.1093 -0.2684
    1MOL   C741  741   0.406   1.633   1.200 -0.2976  0.3851 -0.8903
    1MOL   C742  742   0.529   1.601   1.293 -0.3267  0.0988 -0.5572
    1MOL   O743  743   0.648   1.601   1.249 -0.0344  0.1994 -0.2401
    1MOL   H744  744   0.276   1.628   0.361 -0.1512  4.5546 -2.1215
    1MOL   H745  745   0.079   1.585   0.143 -1.2213 -0.0612  1.3649
    1MOL   H746  746   0.238   1.621   0.131 -1.1075 -0.2631 -1.0515
    1MOL   H747  747   7.689   1.716   0.172  0.9501 -0.7666 -0.2401
    1MOL   H748  748   7.591   1.942   0.155  0.1138  0.7847  1.3026
    1MOL   H749  749   7.753   2.142   0.137 -0.2861 -0.1575 -0.9877
    1MOL   H750  750   0.198   2.108   0.160  0.0864 -0.2725 -0.6069
    1MOL   H751  751   0.381   1.916   0.080 -1.3246 -3.2244 -1.2178
    1MOL   H752  752   0.380   1.773   0.151 -2.2046 -1.1350 -1.2171
    1MOL   H753  753   0.428   2.035   0.286 -1.1392  0.3722 -0.5416
    1MOL   H754  754   0.477   2.039   0.513 -0.2522 -0.8139  0.8347
    1MOL   H755  755   0.614   1.917   0.503  0.6699 -0.3248 -0.0548
    1MOL   H756  756   0.545   1.926   0.725 -1.1942  2.9894 -0.2782
    1MOL   H757  757   0.492   1.775   0.659  1.3937  0.9171  3.0511
    1MOL   H758  758   0.313   2.018   0.701  1.0018 -0.1726 -1.5371
    1MOL   H759  759   0.264   1.869   0.611 -0.4414  2.6503 -1.6814
    1MOL   H760  760   0.343   1.896   0.893 -0.2242 -1.2702  1.3663
    1MOL   H761  761   0.175   1.875   0.830  0.7766  1.7870 -2.0729
    1MOL   H762  762   0.194   1.661   0.798  0.8476  0.2104 -0.8434
    1MOL   H763  763   0.357   1.648   0.752  0.3953  1.1196 -1.0411
    1MOL   H764  764   0.309   1.529   0.947  0.6406 -0.7146  2.5728
    1MOL   H765  765   0.217   1.663   1.022 -0.0139  1.0315 -0.9800
    1MOL   H766  766   0.517   1.624   1.006  1.1204 -2.6961  2.8612
    1MOL   H767  767   0.441   1.780   1.046 -3.5887  0.4538  0.3393
    1MOL   H768  768   0.365   1.717   1.257 -0.9305 -1.0888  0.8659
    1MOL   H769  769   0.330   1.557   1.217 -2.0508  2.3607  0.4525
    1MOL   N770  770   0.498   1.575   1.423 -0.2441  0.2393  0.2626
    1MOL   C771  771   0.601   1.524   1.512 -0.6095  0.0524  0.3748
    1MOL   C772  772   0.612   1.369   1.502  0.1089 -0.1004  1.0801
    1MOL   C773  773   0.518   1.289   1.427 -0.4450 -0.3033 -0.2556
    1MOL   C774  774   0.528   1.151   1.419 -0.1101 -0.3434 -0.2910
    1MOL   C775  775   0.636   1.090   1.482 -0.0955 -0.1938 -0.4840
    1MOL   C776  776   0.728   1.162   1.558  0.3355 -0.4504 -0.6894
    1MOL   C777  777   0.715   1.302   1.570  0.1586 -0.4787 -0.1500
    1MOL   C778  778   0.826   1.362   1.650  0.3343  0.2796 -0.4102
    1MOL   N779  779   0.821   1.318   1.794  0.8888  0.0207  0.1470
    1MOL   C780  780   0.722   1.342   1.882 -0.5184 -0.0198  0.3933
    1MOL   O781  781   0.620   1.394   1.849 -0.1424 -0.3178  0.1872
    1MOL   C782  782   0.750   1.301   2.022  0.1986  0.2452 -0.2417
    1MOL   C783  783   0.662   1.372   2.132 -0.0458 -0.0239 -0.5229
    1MOL   C784  784   0.696   1.305   2.268  0.3527  0.3957  0.1116
    1MOL   C785  785   0.599   1.183   2.302  0.4539 -0.1786 -0.6727
    1MOL   C786  786   0.486   1.209   2.406 -0.2398 -0.2929 -0.4346
    1MOL   C787  787   0.387   1.088   2.436 -0.6303  0.9990  0.3335
    1MOL   C788  788   0.243   1.135   2.473  0.0718  0.6822 -0.4772
    1MOL   C789  789   0.134   1.030   2.503 -0.2782  0.1557 -0.2355
    1MOL   C790  790   7.783   1.095   2.515 -0.1938 -0.6758 -0.3768
    1MOL   O791  791   7.765   1.215   2.509 -0.0512 -0.0125  0.0764
    1MOL   H792  792   0.400   1.590   1.445 -0.5612  0.7737 -1.4866
    1MOL   H793  793   0.702   1.563   1.502 -0.5787 -0.0156  0.4276
    1MOL   H794  794   0.576   1.550   1.615  1.3433 -0.1097  0.9125
    1MOL   H795  795   0.434   1.335   1.377 -0.2563 -1.3514 -1.5618
    1MOL   H796  796   0.456   1.090   1.365 -1.4988 -0.2622  1.4249
    1MOL   H797  797   0.657   0.988   1.454  0.5914 -0.3132  0.4664
    1MOL   H798  798   0.813   1.106   1.594  0.2896  0.7969  1.4481
    1MOL   H799  799   0.836   1.471   1.654  2.5659  0.0716  0.3592
    1MOL   H800  800   0.918   1.323   1.608 -0.3195 -0.2010 -1.4090
    1MOL   H801  801   0.894   1.258   1.831  0.5738  0.3009  1.2449
    1MOL   H802  802   0.857   1.316   2.034  0.1317  1.9949 -1.6209
    1MOL   H803  803   0.736   1.193   2.024 -0.4800  0.3306 -0.3511
    1MOL   H804  804   0.556   1.357   2.109 -0.2724 -1.7504  1.4384
    1MOL   H805  805   0.687   1.477   2.123 -0.0894  0.1420  1.0596
    1MOL   H806  806   0.692   1.385   2.342  0.0159 -1.6531  2.3820
    1MOL   H807  807   0.800   1.275   2.256  0.3346  0.9564 -1.6301
    1MOL   H808  808   0.542   1.158   2.212  0.1731 -1.6885 -0.0850
    1MOL   H809  809   0.655   1.094   2.333  0.5481  0.8112  2.1629
    1MOL   H810  810   0.525   1.238   2.503 -1.4680 -2.1757  0.6369
    1MOL   H811  811   0.430   1.298   2.376  1.4904  1.0773  0.3291
    1MOL   H812  812   0.422   1.036   2.525 -1.9354  0.6036  0.6297
    1MOL   H813  813   0.382   1.021   2.350  1.7333 -0.1592  1.0783
    1MOL   H814  814   0.208   1.208   2.399 -0.4944  0.3906 -0.5013
    1MOL   H815  815   0.256   1.199   2.560 -1.7778  0.7462 -0.2277
    1MOL   H816  816   0.160   0.975   2.594  0.3529  2.2876  0.9020
    1MOL   H817  817   0.132   0.955   2.424  0.6704 -1.7792  1.5321
    1MOL   N818  818   7.677   1.011   2.515  0.8077 -0.7230  0.3803
    1MOL   C819  819   7.537   1.051   2.517 -0.3155  0.2447  0.0303
    1MOL   C820  820   7.487   1.048   2.661 -0.3142  0.3327 -0.3971
    1MOL   C821  821   7.461   0.920   2.715  0.0357  0.1681 -0.6028
    1MOL   C822  822   7.406   0.901   2.844  0.1841 -0.5923 -0.1632
    1MOL   C823  823   7.375   1.012   2.925 -0.1789 -0.2890  0.1175
    1MOL   C824  824   7.406   1.139   2.877  0.5218  0.0478 -0.2707
    1MOL   C825  825   7.455   1.159   2.742 -0.2536  0.0165 -0.5789
    1MOL   C826  826   7.487   1.303   2.694  0.4045  0.5486  0.2084
    1MOL   N827  827   7.487   1.400   2.805 -0.5278  0.2062  0.2966
    1MOL   C828  828   7.394   1.491   2.822  0.5057 -0.7155  0.7290
    1MOL   O829  829   7.286   1.488   2.761 -0.4903 -0.1354 -0.2500
    1MOL   C830  830   7.421   1.590   2.933 -0.3190 -0.1141  0.2380
    1MOL   C831  831   7.337   1.718   2.930  0.1627 -0.4042 -0.6331
    1MOL   C832  832   7.351   1.804   3.060  0.3104 -0.4370  0.3928
    1MOL   C833  833   7.260   1.934   3.063  0.0022  0.1438  0.7706
    1MOL   C834  834   7.287   2.043   2.949  0.8743  0.8511  0.6147
    1MOL   C835  835   7.183   2.160   2.953  0.3989 -0.0824 -0.1994
    1MOL   C836  836   7.038   2.119   2.904 -0.3010 -0.0179 -0.5466
    1MOL   C837  837   6.935   2.230   2.925  1.3695 -0.6294 -0.4883
    1MOL   C838  838   6.968   2.356   2.842 -0.1651  0.5802  1.2895
    1MOL   O839  839   7.018   2.344   2.730 -0.9976 -0.0664 -0.0164
    1MOL   H840  840   7.704   0.915   2.507  0.8459 -0.6875  0.0908
    1MOL   H841  841   7.523   1.146   2.466 -0.6321 -1.0180 -2.2990
    1MOL   H842  842   7.496   0.965   2.464 -2.4598 -0.2568  2.3852
    1MOL   H843  843   7.483   0.839   2.648 -0.7820  2.1413 -3.3103
    1MOL   H844  844   7.390   0.808   2.895 -1.3441 -0.4817 -0.4120
    1MOL   H845  845   7.329   0.996   3.022 -1.2881 -0.5922 -0.4474
    1MOL   H846  846   7.385   1.224   2.940  2.4021 -0.0050  0.4568
    1MOL   H847  847   7.409   1.335   2.624  1.3234 -0.5140 -1.3388
    1MOL   H848  848   7.579   1.305   2.635 -2.3256  0.1308 -4.2667
    1MOL   H849  849   7.578   1.423   2.844 -1.4384  3.3303  0.7088
    1MOL   H850  850   7.523   1.623   2.951 -1.2850  1.2535  3.5402
    1MOL   H851  851   7.392   1.550   3.030 -1.8909  0.1408 -0.1125
    1MOL   H852  852   7.231   1.697   2.912  0.0711 -0.6999  0.2354
    1MOL   H853  853   7.361   1.773   2.839  1.0560 -1.6183 -1.1279
    1MOL   H854  854   7.458   1.821   3.073  0.5222 -0.7992 -0.7834
    1MOL   H855  855   7.322   1.746   3.147  1.4231 -0.6516  0.6264
    1MOL   H856  856   7.158   1.897   3.074  0.3919 -0.1662  3.9296
    1MOL   H857  857   7.283   1.981   3.159  1.1042  0.4152  0.3859
    1MOL   H858  858   7.386   2.084   2.968  1.7438 -0.9638  0.1510
    1MOL   H859  859   7.282   1.990   2.853 -0.6263  0.7303  0.7378
    1MOL   H860  860   7.236   2.224   2.882  1.6394 -0.5940  0.2653
    1MOL   H861  861   7.191   2.225   3.039  0.8721 -1.0265  0.4751
    1MOL   H862  862   7.018   2.045   2.982  1.0582  0.9701  0.7584
    1MOL   H863  863   7.042   2.069   2.807  0.2170 -2.3346  0.6385
    1MOL   H864  864   6.832   2.199   2.904  0.3508  1.4164  1.2542
    1MOL   H865  865   6.915   2.250   3.030  0.8583 -0.6080 -0.5872
    1MOL   N866  866   6.972   2.469   2.912 -0.1545 -0.2888 -0.0377
    1MOL   C867  867   7.043   2.579   2.854  0.3356 -0.4147  0.8469
    1MOL   C868  868   7.157   2.636   2.936 -0.3626  0.2373  0.1311
    1MOL   C869  869   7.215   2.558   3.043 -0.4857  1.0402 -0.2021
    1MOL   C870  870   7.323   2.608   3.120  0.4822  0.3369  0.0706
    1MOL   C871  871   7.364   2.744   3.106  0.8235 -0.8802 -0.4839
    1MOL   C872  872   7.306   2.826   3.008 -0.6905  0.9261 -0.0165
    1MOL   C873  873   7.208   2.770   2.925  0.4646  0.0780  0.3059
    1MOL   C874  874   7.137   2.867   2.835 -0.2335  0.5852  0.0334
    1MOL   N875  875   7.120   2.838   2.694 -0.2155 -0.4123 -0.0501
    1MOL   C876  876   7.003   2.848   2.632  0.0076  0.4205  0.2939
    1MOL   O877  877   6.900   2.870   2.693  0.1136 -0.4462 -0.4027
    1MOL   C878  878   7.003   2.819   2.481  0.1124 -0.4605  0.1945
    1MOL   C879  879   6.865   2.788   2.419  0.0472 -0.2210  0.1790
    1MOL   C880  880   6.791   2.917   2.388  0.8819  0.0179 -0.0939
    1MOL   C881  881   6.639   2.899   2.393 -0.3769 -0.5490  0.8006
    1MOL   C882  882   6.591   2.803   2.284 -0.0610  0.2185 -0.2957
    1MOL   C883  883   6.440   2.773   2.283 -0.4399 -0.8776  0.0165
    1MOL   C884  884   6.403   2.697   2.150  0.0148 -0.4782 -0.1417
    1MOL   C885  885   6.246   2.667   2.135  0.0907  0.7233 -0.2701
    1MOL   C886  886   6.169   2.795   2.099  0.6920  0.0286 -0.4971
    1MOL   O887  887   6.214   2.904   2.136  0.4880 -0.3355  0.2184
    1MOL   H888  888   6.958   2.447   3.010 -1.9053 -1.9151 -0.6157
    1MOL   H889  889   7.066   2.569   2.747 -0.7631  1.4203  0.4220
    1MOL   H890  890   6.977   2.665   2.864  0.2129 -0.6035  1.6781
    1MOL   H891  891   7.171   2.460   3.059 -1.3686  1.5395  0.4996
    1MOL   H892  892   7.359   2.540   3.195  1.7748  1.7023  0.7057
    1MOL   H893  893   7.448   2.787   3.160 -0.5001  3.1538 -1.4430
    1MOL   H894  894   7.344   2.925   2.987  2.1222 -0.7416 -3.3582
    1MOL   H895  895   7.185   2.965   2.834  0.8478  0.0599 -1.8457
    1MOL   H896  896   7.041   2.881   2.886 -0.4446  2.5558 -0.8424
    1MOL   H897  897   7.202   2.823   2.638  1.1343  0.1213  1.7230
    1MOL   H898  898   7.071   2.735   2.465 -0.0760 -0.4320 -0.8163
    1MOL   H899  899   7.059   2.904   2.442 -0.1849 -0.1000  0.5490
    1MOL   H900  900   6.809   2.727   2.489  1.5922  3.0755  4.4683
    1MOL   H901  901   6.881   2.725   2.331 -1.0875  0.2149 -0.3421
    1MOL   H902  902   6.818   2.986   2.469  0.4314  2.0096 -1.6225
    1MOL   H903  903   6.824   2.962   2.295 -0.4199 -3.3496 -2.2806
    1MOL   H904  904   6.608   2.878   2.496 -2.3612  0.8352  0.5128
    1MOL   H905  905   6.583   2.989   2.369 -0.8149 -0.7542  1.0439
    1MOL   H906  906   6.624   2.840   2.187  1.1760 -2.0396 -0.7863
    1MOL   H907  907   6.647   2.711   2.305 -1.0626 -0.4759 -0.6386
    1MOL   H908  908   6.382   2.865   2.294 -0.7612 -1.0114 -0.5567
    1MOL   H909  909   6.410   2.713   2.369 -0.8055  2.8713  2.6455
    1MOL   H910  910   6.440   2.751   2.063 -0.3862 -0.7261 -0.4675
    1MOL   H911  911   6.460   2.604   2.156  1.1601  0.2505  0.4887
    1MOL   H912  912   6.229   2.585   2.065  1.7686 -0.2788  0.4551
    1MOL   H913  913   6.208   2.619   2.225 -1.0075  2.0747 -0.0001
    1MOL   N914  914   6.059   2.784   2.026  0.2069  0.3996 -0.6557
    1MOL   C915  915   5.979   2.901   1.985 -0.4609  0.0828  0.0850
    1MOL   C916  916   5.850   2.854   1.924 -0.6777  0.5205 -0.3612
    1MOL   C917  917   5.828   2.878   1.789  0.4204  0.2760  0.0868
    1MOL   C918  918   5.718   2.811   1.730 -0.6287  0.8199  0.1676
    1MOL   C919  919   5.630   2.727   1.803 -0.1377  0.3012  0.0410
    1MOL   C920  920   5.646   2.718   1.940  0.8382 -0.1391 -0.8865
    1MOL   C921  921   5.759   2.774   2.001 -1.0712  0.4049  0.7214
    1MOL   C922  922   5.772   2.744   2.149 -0.1034 -0.0729 -0.6195
    1MOL   N923  923   5.839   2.623   2.184 -0.1124 -0.0919  0.5251
    1MOL   C924  924   5.861   2.582   2.307 -0.1957  0.6363 -0.4146
    1MOL   O925  925   5.843   2.653   2.411 -0.8090  0.5101  0.1092
    1MOL   C926  926   5.901   2.431   2.322 -0.6275 -0.2101 -0.4293
    1MOL   C927  927   5.981   2.399   2.449 -0.0667  0.3880 -0.1133
    1MOL   C928  928   6.119   2.466   2.469 -0.7327 -0.0477 -0.2234
    1MOL   C929  929   6.194   2.429   2.597  0.4478  0.2967  0.3514
    1MOL   C930  930   6.120   2.461   2.731 -0.7479  0.0166 -0.0447
    1MOL   C931  931   6.204   2.433   2.859 -0.2134 -0.0698 -0.4584
    1MOL   C932  932   6.133   2.433   2.997 -0.2168 -0.4616  0.4277
    1MOL   C933  933   6.072   2.576   3.032 -0.4145 -0.5652  0.5873
    1MOL   C934  934   6.167   2.691   3.068  0.1031  0.6400  0.1204
    1MOL   O935  935   6.207   2.706   3.181  0.0613  0.2497 -0.5595
    1MOL   H936  936   6.032   2.693   1.993 -0.5338  0.4417 -0.1711
    1MOL   H937  937   5.963   2.975   2.063 -0.7061  0.6999 -0.5480
    1MOL   H938  938   6.034   2.941   1.900  0.0713 -1.0408 -0.1166
    1MOL   H939  939   5.889   2.943   1.729  0.9007  0.3323  0.6294
    1MOL   H940  940   5.712   2.831   1.624 -0.6345  0.2277  0.0541
    1MOL   H941  941   5.538   2.688   1.762  0.1318  0.0737 -0.3420
    1MOL   H942  942   5.578   2.660   2.000  1.5655 -1.8862 -1.7111
    1MOL   H943  943   5.671   2.739   2.191 -0.0834  0.3911 -0.5157
    1MOL   H944  944   5.831   2.831   2.180 -0.5770 -0.9939  3.0702
    1MOL   H945  945   5.855   2.559   2.108 -2.1008  0.7321 -0.6076
    1MOL   H946  946   5.968   2.399   2.242  3.7511  0.4018  2.8180
    1MOL   H947  947   5.817   2.363   2.317  0.8811 -2.2659  1.3271
    1MOL   H948  948   5.990   2.291   2.445  1.9701  0.5653 -1.1096
    1MOL   H949  949   5.922   2.429   2.536 -0.6798 -0.1343 -0.3520
    1MOL   H950  950   6.185   2.438   2.387 -0.0563 -0.1247  0.3368
    1MOL   H951  951   6.093   2.571   2.464 -1.1865 -0.0561  1.4963
    1MOL   H952  952   6.214   2.322   2.599 -1.7071 -0.1880 -1.3795
    1MOL   H953  953   6.289   2.481   2.590  1.4386 -1.2760  1.5574
    1MOL   H954  954   6.030   2.401   2.747 -1.1085  1.0463  1.9725
    1MOL   H955  955   6.077   2.561   2.721 -0.4917  0.0913 -0.3897
    1MOL   H956  956   6.257   2.339   2.843 -0.6265 -0.5763  1.1602
    1MOL   H957  957   6.286   2.506   2.858 -0.0099 -0.2480  1.7395
    1MOL   H958  958   6.206   2.414   3.076 -0.5654 -2.0978  0.3862
    1MOL   H959  959   6.061   2.351   3.001  1.0513 -1.6781 -0.7932
    1MOL   H960  960   5.994   2.576   3.108 -0.7873  1.4126  0.2509
    1MOL   H961  961   6.016   2.605   2.943 -2.6623 -2.8323  1.2254
    1MOL   H962  962   6.195   2.769   2.997 -0.5417  0.0392 -0.8115
    2MOL     N1  963   1.100   1.765   1.813  0.2777  0.2281  0.1576
    2MOL     C2  964   1.088   1.769   1.668  0.2032  0.1446 -0.3111
    2MOL     C3  965   1.162   1.887   1.608 -0.3180  0.1777 -0.5596
    2MOL     C4  966   1.274   1.855   1.532  0.2278 -0.0446 -0.1471
    2MOL     C5  967   1.350   1.954   1.467 -0.9488 -0.4482 -0.1733
    2MOL     C6  968   1.305   2.085   1.477  0.4281  0.2708  0.2208
    2MOL     C7  969   1.191   2.121   1.553 -0.1922  0.3398  0.2927
    2MOL     C8  970   1.118   2.018   1.620  0.1001 -0.1961  0.2671
    2MOL     C9  971   0.987   2.051   1.674 -0.3427 -0.0601 -0.0483
    2MOL    N10  972   0.989   2.067   1.816  0.7090  0.1983 -0.1870
    2MOL    C11  973   0.957   2.175   1.893  0.2400 -0.0633  0.2922
    2MOL    O12  974   0.929   2.287   1.845 -0.4184  0.1384 -0.6269
    2MOL    C13  975   0.934   2.151   2.040  0.0243  0.1776 -0.3877
    2MOL    C14  976   1.011   2.252   2.123  0.4267 -0.0265  0.1564
    2MOL    C15  977   1.032   2.208   2.267 -0.2287  0.3847 -0.5197
    2MOL    C16  978   0.895   2.197   2.342  0.1514  0.9164 -0.5865
    2MOL    C17  979   0.907   2.128   2.478 -0.0474  0.2207  0.5040
    2MOL    C18  980   0.795   2.153   2.581 -0.1179  0.5052 -0.3338
    2MOL    C19  981   0.839   2.111   2.720  0.1484  0.2785  0.1200
    2MOL    C20  982   0.724   2.134   2.826 -0.5620 -0.6256  0.1494
    2MOL    C21  983   0.665   2.275   2.836  0.3189 -0.1841  0.3106
    2MOL    O22  984   0.726   2.366   2.894  0.3417  0.0620 -1.2689
    2MOL    H23  985   1.170   1.823   1.859  1.0905  0.0839 -0.8715
    2MOL    H24  986   1.146   1.680   1.643 -0.0165  0.3748 -1.6705
    2MOL    H25  987   0.983   1.759   1.642 -0.1274  0.2873  0.9261
    2MOL    H26  988   1.312   1.754   1.522  1.9516  0.6632 -0.9517
    2MOL    H27  989   1.431   1.929   1.401 -1.6284 -0.6156 -0.9602
    2MOL    H28  990   1.351   2.171   1.430 -0.0158  0.5818  0.3556
    2MOL    H29  991   1.155   2.223   1.555 -4.1744 -0.9927  1.5319
    2MOL    H30  992   0.914   1.970   1.668 -0.6969  0.2363  0.1993
    2MOL    H31  993   0.948   2.143   1.630 -2.3618 -0.9710 -0.2136
    2MOL    H32  994   1.008   1.975   1.855  0.8156  0.4724  0.4245
    2MOL    H33  995   0.973   2.050   2.056 -0.5820  0.0588  0.3388
    2MOL    H34  996   0.830   2.138   2.067  0.3882 -1.3350  0.3594
    2MOL    H35  997   0.968   2.351   2.110  0.7742  0.2629  1.1848
    2MOL    H36  998   1.100   2.289   2.072  1.1069  1.6454  2.4866
    2MOL    H37  999   1.084   2.112   2.268 -1.8899 -0.5268  1.3553
    2MOL    H38 1000   1.100   2.271   2.324 -1.1812 -0.2735  1.3744
    2MOL    H39 1001   0.861   2.298   2.363 -3.7826 -0.6566  1.2922
    2MOL    H40 1002   0.826   2.135   2.283 -0.9991  1.1235  0.5061
    2MOL    H41 1003   0.920   2.022   2.457 -2.7885 -0.3945  1.7141
    2MOL    H42 1004   1.003   2.160   2.518 -0.7549  3.3885 -0.1850
    2MOL    H43 1005   0.710   2.089   2.557 -0.0582  0.5415 -0.6445
    2MOL    H44 1006   0.756   2.255   2.581 -2.6952 -0.4512  0.5792
    2MOL    H45 1007   0.863   2.004   2.719 -3.3171 -0.5704 -1.1452
    2MOL    H46 1008   0.932   2.161   2.746 -0.4771  2.0560 -1.0070
    2MOL    H47 1009   0.770   2.130   2.924 -1.9472  0.2174  0.8451
    2MOL    H48 1010   0.656   2.048   2.829  1.0098 -2.0000 -1.8144
    2MOL    H49 1011   1.106   1.679   1.866  0.8528 -0.0362 -0.3263
    2MOL    N50 1012   0.537   2.288   2.791  0.7454  0.0383 -0.6864
    2MOL    C51 1013   0.458   2.402   2.813 -0.8970 -0.0349 -0.1622
    2MOL    C52 1014   0.308   2.373   2.806  0.8579  0.1042  0.4357
    2MOL    C53 1015   0.232   2.399   2.686  0.5391  0.0592 -0.8718
    2MOL    C54 1016   0.090   2.387   2.685  0.6053 -0.4173  0.3743
    2MOL    C55 1017   0.026   2.341   2.801 -0.4047  0.3244 -0.1499
    2MOL    C56 1018   0.105   2.298   2.912  0.5366 -0.5146 -0.7963
    2MOL    C57 1019   0.244   2.322   2.920 -0.3185  0.6134 -0.0496
    2MOL    C58 1020   0.312   2.291   3.047 -0.6527  1.0249  0.2480
    2MOL    N59 1021   0.391   2.169   3.046 -0.5662  0.1189 -0.0279
    2MOL    C60 1022   0.495   2.152   3.132 -0.5525 -0.2001  0.0617
    2MOL    O61 1023   0.535   2.238   3.204 -0.7698 -0.8068 -0.2732
    2MOL    C62 1024   0.549   2.017   3.133 -0.4621 -0.0372  0.3194
    2MOL    C63 1025   0.516   1.944   3.266 -0.3763 -0.1121  0.4154
    2MOL    C64 1026   0.368   1.905   3.284 -0.4372  0.0306 -0.0081
    2MOL    C65 1027   0.339   1.833   3.419 -1.0034 -0.0539  0.5397
    2MOL    C66 1028   0.197   1.832   3.470 -0.2079  0.1553 -0.2723
    2MOL    C67 1029   0.182   1.770   3.613  0.2921 -0.5634  0.3557
    2MOL    C68 1030   0.039   1.799   3.663 -0.7899  0.1665 -0.1646
    2MOL    C69 1031   0.001   1.738   3.793 -0.0262 -0.4136 -0.8045
    2MOL    C70 1032   7.661   1.800   3.855  1.2769  0.4684 -0.3629
    2MOL    O71 1033   7.645   1.923   3.863 -0.2052 -0.3693  0.4997
    2MOL    H72 1034   0.490   2.208   2.752  4.1380 -1.6879 -1.4005
    2MOL    H73 1035   0.475   2.475   2.734  0.6824 -1.1026 -0.8274
    2MOL    H74 1036   0.483   2.452   2.907 -0.8169  0.0181 -0.2114
    2MOL    H75 1037   0.289   2.443   2.605  0.8057  0.7257 -0.3281
    2MOL    H76 1038   0.034   2.427   2.601  0.5644  1.8225  1.4197
    2MOL    H77 1039   7.709   2.329   2.812 -0.3444 -0.7826 -0.7185
    2MOL    H78 1040   0.059   2.261   3.002  2.9541  0.1550  0.7612
    2MOL    H79 1041   0.237   2.279   3.126 -2.4742  1.4458 -1.3727
    2MOL    H80 1042   0.361   2.378   3.090  1.1445  1.2575 -2.2066
    2MOL    H81 1043   0.355   2.096   2.985 -0.1661 -0.6331  0.6356
    2MOL    H82 1044   0.658   2.022   3.123 -0.5885  0.2522 -1.0960
    2MOL    H83 1045   0.517   1.953   3.051  2.2764 -2.0068  0.7039
    2MOL    H84 1046   0.554   1.991   3.357  3.0777  1.2560 -1.5974
    2MOL    H85 1047   0.571   1.850   3.266 -0.4038 -0.1327  1.5278
    2MOL    H86 1048   0.292   1.983   3.286 -1.1862 -0.6930  0.3252
    2MOL    H87 1049   0.352   1.840   3.197  0.4919 -0.7890  0.4239
    2MOL    H88 1050   0.378   1.732   3.423 -2.9004 -0.8773 -1.2805
    2MOL    H89 1051   0.395   1.895   3.489  0.7099  0.1157 -0.9463
    2MOL    H90 1052   0.151   1.931   3.470 -0.8743 -0.1504 -0.5931
    2MOL    H91 1053   0.144   1.764   3.403  0.9367 -0.4583 -0.5622
    2MOL    H92 1054   0.257   1.817   3.677 -0.7186 -0.3377  1.4047
    2MOL    H93 1055   0.202   1.663   3.614  1.1492 -0.4240 -0.9059
    2MOL    H94 1056   7.762   1.758   3.587  1.9171 -1.3876 -1.7507
    2MOL    H95 1057   0.012   1.905   3.659  1.5245  0.7712 -0.0947
    2MOL    H96 1058   0.084   1.749   3.863 -0.3257 -0.4590 -0.4379
    2MOL    H97 1059   7.779   1.630   3.789 -0.4762 -0.3560 -1.2120
    2MOL    N98 1060   7.566   1.718   3.896 -0.0625  0.4517  0.7248
    2MOL    C99 1061   7.443   1.757   3.976 -0.0455  0.0795  0.1531
    2MOL   C100 1062   7.360   1.634   4.026 -0.3936  0.2841  0.2490
    2MOL   C101 1063   7.421   1.524   4.088  0.5813 -0.8652 -0.2921
    2MOL   C102 1064   7.347   1.411   4.131 -0.2747  0.1221  0.0507
    2MOL   C103 1065   7.208   1.405   4.108 -0.4441  0.5445  0.4237
    2MOL   C104 1066   7.140   1.508   4.037 -0.2186 -0.0066 -0.2151
    2MOL   C105 1067   7.218   1.624   4.007  0.6064  0.3681 -0.5364
    2MOL   C106 1068   7.127   1.733   3.949  0.2886  0.4907  0.7391
    2MOL   N107 1069   7.066   1.696   3.817 -0.5885 -0.0770 -0.6715
    2MOL   C108 1070   7.134   1.684   3.699 -0.8339 -0.3130 -0.3537
    2MOL   O109 1071   7.260   1.684   3.688  0.4670  0.0629 -0.3593
    2MOL   C110 1072   7.053   1.669   3.578 -0.3285 -0.0167  0.7493
    2MOL   C111 1073   7.134   1.692   3.453 -0.9414  0.9885  0.2148
    2MOL   C112 1074   7.043   1.709   3.318 -0.3376 -1.0784 -0.5494
    2MOL   C113 1075   6.942   1.601   3.293 -0.1532 -0.1283 -0.1353
    2MOL   C114 1076   6.978   1.498   3.180 -0.4316 -0.0733  0.5120
    2MOL   C115 1077   7.111   1.424   3.187  0.3769 -0.3792 -0.2476
    2MOL   C116 1078   7.153   1.323   3.080  0.2147  0.6056 -0.5402
    2MOL   C117 1079   7.047   1.221   3.048  0.0697 -0.0977 -0.2797
    2MOL   C118 1080   7.048   1.107   3.149  0.3979 -0.3571  0.1289
    2MOL   O119 1081   7.149   1.072   3.212  0.0088  0.3083 -0.1279
    2MOL   H120 1082   7.585   1.621   3.876  1.4089  1.4561 -3.2456
    2MOL   H121 1083   7.475   1.805   4.069 -1.9850  4.5226 -1.3482
    2MOL   H122 1084   7.382   1.820   3.911 -0.7547 -1.0170 -0.2474
    2MOL   H123 1085   7.528   1.521   4.103  0.8220 -2.0019 -2.0544
    2MOL   H124 1086   7.400   1.334   4.184 -1.1890 -0.5936 -0.0575
    2MOL   H125 1087   7.155   1.321   4.150  0.6465  0.6345  2.0214
    2MOL   H126 1088   7.036   1.507   4.008 -0.1944 -3.4923 -0.4018
    2MOL   H127 1089   7.180   1.825   3.926  1.3507 -0.2201  0.3206
    2MOL   H128 1090   7.048   1.753   4.022 -0.0410  3.0773 -0.2991
    2MOL   H129 1091   6.966   1.701   3.818 -0.6092 -0.4539 -0.5949
    2MOL   H130 1092   6.959   1.723   3.577 -0.3485  0.0091 -2.7792
    2MOL   H131 1093   7.024   1.564   3.566 -1.2816  0.0393  2.5457
    2MOL   H132 1094   7.206   1.610   3.454 -0.3900  1.4829  2.2195
    2MOL   H133 1095   7.207   1.772   3.443  1.3007 -0.9283  0.8810
    2MOL   H134 1096   6.989   1.802   3.334  0.4793 -0.5673 -0.7733
    2MOL   H135 1097   7.113   1.724   3.236 -0.5967 -0.0276 -0.5855
    2MOL   H136 1098   6.932   1.544   3.385 -0.7906  1.3290  0.7171
    2MOL   H137 1099   6.846   1.650   3.275 -0.0781 -0.2869 -1.0027
    2MOL   H138 1100   6.894   1.432   3.158 -0.1776 -0.0112 -0.6606
    2MOL   H139 1101   6.983   1.563   3.093  1.6506  0.8354  1.2665
    2MOL   H140 1102   7.110   1.379   3.286 -1.1009  0.1899  0.0179
    2MOL   H141 1103   7.191   1.497   3.199 -0.7910  0.6425  1.5342
    2MOL   H142 1104   7.177   1.378   2.989 -0.8881  0.9251 -0.6383
    2MOL   H143 1105   7.247   1.277   3.112 -0.5375 -1.6877 -1.5435
    2MOL   H144 1106   7.074   1.168   2.957 -0.1668 -1.7223  0.5789
    2MOL   H145 1107   6.955   1.279   3.040 -0.0124 -0.1442  0.2938
    2MOL   N146 1108   6.931   1.041   3.157  0.7888  0.6538 -0.1188
    2MOL   C147 1109   6.922   0.921   3.240  0.4072 -0.1174 -0.3014
    2MOL   C148 1110   6.950   0.792   3.167  0.2332  0.5189 -0.3249
    2MOL   C149 1111   6.934   0.790   3.024 -0.4498  0.4815  0.2820
    2MOL   C150 1112   6.960   0.675   2.954  0.2786  0.2292  0.4565
    2MOL   C151 1113   6.986   0.553   3.019 -0.3857 -0.0932  0.6034
    2MOL   C152 1114   7.002   0.551   3.157  0.5954 -0.3182 -0.8614
    2MOL   C153 1115   6.984   0.671   3.229 -0.1980  0.8999  0.4172
    2MOL   C154 1116   6.983   0.665   3.383  0.3245 -0.6446 -0.5655
    2MOL   N155 1117   6.855   0.686   3.437  0.1354 -0.1769 -0.2579
    2MOL   C156 1118   6.821   0.685   3.560 -0.0583 -0.2569 -0.9796
    2MOL   O157 1119   6.901   0.669   3.652 -0.3134  0.0862  0.3397
    2MOL   C158 1120   6.675   0.708   3.588 -0.1493  0.4456  0.0710
    2MOL   C159 1121   6.640   0.855   3.594  0.2842  0.4499  0.1127
    2MOL   C160 1122   6.488   0.888   3.631 -0.8045  0.2094  0.1848
    2MOL   C161 1123   6.456   1.032   3.594  0.0901  0.4664  0.5935
    2MOL   C162 1124   6.506   1.123   3.701  0.1031  0.5529 -0.3638
    2MOL   C163 1125   6.424   1.254   3.721  0.2869 -0.3848 -0.3282
    2MOL   C164 1126   6.317   1.236   3.834  0.4059 -0.3083  0.5402
    2MOL   C165 1127   6.223   1.352   3.851  0.0746  0.2868 -0.2780
    2MOL   C166 1128   6.115   1.355   3.745 -0.0467 -0.1254  0.4367
    2MOL   O167 1129   6.032   1.264   3.738 -0.4095  0.1895  0.4686
    2MOL   H168 1130   6.861   1.068   3.090 -1.2196 -1.4679  1.0507
    2MOL   H169 1131   6.818   0.920   3.271  0.6775  0.2476  0.6092
    2MOL   H170 1132   6.992   0.924   3.324 -0.0995 -0.7074  0.1463
    2MOL   H171 1133   6.918   0.881   2.968 -1.4647  1.2769  1.8134
    2MOL   H172 1134   6.957   0.673   2.846  0.1664 -0.8573  0.4782
    2MOL   H173 1135   6.996   0.468   2.954 -0.9061  0.4282 -0.1640
    2MOL   H174 1136   7.018   0.455   3.204 -0.0886  0.3109  0.6957
    2MOL   H175 1137   7.062   0.724   3.430  1.0030 -2.0080  0.0164
    2MOL   H176 1138   7.012   0.563   3.409  1.0586 -0.6343 -1.3230
    2MOL   H177 1139   6.778   0.701   3.373 -0.8196 -1.0538  0.6551
    2MOL   H178 1140   6.645   0.662   3.682  0.2507 -2.2502 -1.0741
    2MOL   H179 1141   6.612   0.652   3.518  1.8315 -1.6390 -0.0857
    2MOL   H180 1142   6.654   0.894   3.492  0.4879  3.6630  1.2917
    2MOL   H181 1143   6.696   0.912   3.667  0.4282  1.0015 -0.4186
    2MOL   H182 1144   6.425   0.821   3.572 -2.0330  2.1740 -0.7855
    2MOL   H183 1145   6.460   0.858   3.732 -0.1062  1.7500  0.8599
    2MOL   H184 1146   6.510   1.059   3.503  0.8056  2.2399  1.5242
    2MOL   H185 1147   6.350   1.043   3.573  0.3994  0.2434 -1.2333
    2MOL   H186 1148   6.496   1.062   3.790  0.2717 -2.8237 -2.5937
    2MOL   H187 1149   6.610   1.143   3.673 -0.4608  0.5318 -2.5191
    2MOL   H188 1150   6.375   1.271   3.625  0.3338  1.3826 -0.0403
    2MOL   H189 1151   6.496   1.330   3.750  1.3553 -2.0764  1.6352
    2MOL   H190 1152   6.261   1.144   3.822  2.1750 -1.5324  1.4518
    2MOL   H191 1153   6.375   1.223   3.925  0.0884  0.2309  0.8190
    2MOL   H192 1154   6.261   1.454   3.848 -2.2009  1.1667 -0.4375
    2MOL   H193 1155   6.172   1.325   3.944  0.9537 -2.0812 -0.4642
    2MOL   N194 1156   6.128   1.454   3.660 -0.5807  0.6171 -0.5947
    2MOL   C195 1157   6.026   1.496   3.558 -0.3320 -0.0762  0.0564
    2MOL   C196 1158   6.050   1.635   3.511  0.0202 -0.2102  0.1127
    2MOL   C197 1159   6.083   1.654   3.373 -0.3464  1.3521  0.6375
    2MOL   C198 1160   6.087   1.783   3.317  0.2076  0.7164  0.2393
    2MOL   C199 1161   6.059   1.892   3.397  0.0382 -0.1491 -0.0467
    2MOL   C200 1162   6.034   1.882   3.531 -0.5722  0.0138  0.8082
    2MOL   C201 1163   6.034   1.753   3.593 -0.2903 -0.2190  0.1225
    2MOL   C202 1164   5.990   1.737   3.736  0.4554 -0.1358  0.1267
    2MOL   N203 1165   6.102   1.756   3.824  0.4129  0.3510  0.4083
    2MOL   C204 1166   6.109   1.736   3.954 -0.2322 -0.3909 -0.5589
    2MOL   O205 1167   6.011   1.693   4.022 -0.2772  0.3891  0.2934
    2MOL   C206 1168   6.245   1.767   4.021 -0.7840  0.3804 -0.1985
    2MOL   C207 1169   6.227   1.892   4.118  0.0375  0.8261 -0.0150
    2MOL   C208 1170   6.149   1.866   4.253 -0.8245  0.9496 -0.3033
    2MOL   C209 1171   6.236   1.798   4.362  0.0477 -0.3706  0.2719
    2MOL   C210 1172   6.165   1.811   4.501 -0.2724 -0.1937 -0.2355
    2MOL   C211 1173   6.248   1.744   4.616 -0.3161 -0.0986 -0.4936
    2MOL   C212 1174   6.395   1.791   4.626  0.3196  0.2296  0.1904
    2MOL   C213 1175   6.417   1.939   4.660  0.1590  0.9234 -0.0181
    2MOL   C214 1176   6.408   1.952   4.814 -0.2576  0.0656  0.0526
    2MOL   O215 1177   6.503   1.943   4.888 -0.0326 -0.4124 -0.4059
    2MOL   H216 1178   6.206   1.517   3.671 -0.0662 -0.3285  1.4377
    2MOL   H217 1179   6.026   1.434   3.468  2.0487 -3.4109  2.2303
    2MOL   H218 1180   5.925   1.491   3.600 -0.6853  1.7916 -0.5495
    2MOL   H219 1181   6.101   1.565   3.316  1.3408  1.2635  1.3017
    2MOL   H220 1182   6.099   1.784   3.210 -0.0834  0.2111  0.2067
    2MOL   H221 1183   6.058   1.991   3.352  2.2029 -0.2449 -0.3450
    2MOL   H222 1184   6.012   1.971   3.589  0.8258  2.4654 -2.2383
    2MOL   H223 1185   5.945   1.641   3.762  0.2834  0.3209  1.5281
    2MOL   H224 1186   5.921   1.821   3.744  0.6008 -0.0317  0.2733
    2MOL   H225 1187   6.194   1.764   3.782  0.5887 -1.2215  0.4592
    2MOL   H226 1188   6.321   1.786   3.946 -0.0398 -1.8144 -0.0454
    2MOL   H227 1189   6.280   1.676   4.070 -0.6839  0.7082  0.3398
    2MOL   H228 1190   6.317   1.952   4.135  1.0210 -0.5399 -0.3035
    2MOL   H229 1191   6.166   1.959   4.057  0.7109  0.6097 -0.9281
    2MOL   H230 1192   6.112   1.962   4.288 -2.1039  0.7058 -0.9444
    2MOL   H231 1193   6.057   1.810   4.239 -1.7588  2.2785  0.4310
    2MOL   H232 1194   6.255   1.693   4.338  1.2214 -0.4894  1.6852
    2MOL   H233 1195   6.333   1.846   4.346  1.5868 -2.5240  2.7541
    2MOL   H234 1196   6.157   1.916   4.529 -0.5860  0.2869 -2.0603
    2MOL   H235 1197   6.061   1.779   4.494 -0.1598 -0.0002 -3.4020
    2MOL   H236 1198   6.225   1.638   4.610  1.2204 -0.5390  0.9617
    2MOL   H237 1199   6.199   1.770   4.710 -0.7843 -0.7455 -0.5545
    2MOL   H238 1200   6.442   1.770   4.530  0.3748 -2.7854  0.8114
    2MOL   H239 1201   6.450   1.730   4.698 -0.7785  0.8262  1.5535
    2MOL   H240 1202   6.521   1.968   4.645  1.1609 -2.2275  0.3988
    2MOL   H241 1203   6.348   1.999   4.601 -2.1832 -1.8636 -0.2434
    2MOL   N242 1204   6.288   1.980   4.863  0.0917  0.2434  0.3041
    2MOL   C243 1205   6.258   2.014   4.997 -0.0995 -0.6708 -0.6509
    2MOL   C244 1206   6.177   2.143   5.021 -0.7915  0.0919  0.3075
    2MOL   C245 1207   6.134   2.224   4.913  0.2641  1.3477  0.3030
    2MOL   C246 1208   6.052   2.334   4.925  0.9660  0.4333 -0.1605
    2MOL   C247 1209   6.013   2.363   5.059 -0.7088 -0.0983 -0.2625
    2MOL   C248 1210   6.063   2.288   5.169  0.8190 -0.1197  0.0336
    2MOL   C249 1211   6.145   2.179   5.151  0.4691  0.5693  0.2504
    2MOL   C250 1212   6.187   2.101   5.269 -0.5026 -0.2196  0.0596
    2MOL   N251 1213   6.085   2.000   5.311  0.0420 -0.1203  0.1372
    2MOL   C252 1214   6.100   1.921   5.416  0.0897 -0.1357 -0.8976
    2MOL   O253 1215   6.197   1.932   5.497 -0.3613 -0.4862 -0.4373
    2MOL   C254 1216   5.987   1.819   5.441 -0.4415  0.0167  0.0250
    2MOL   C255 1217   5.882   1.889   5.525 -0.1749  0.4592  0.5830
    2MOL   C256 1218   5.771   1.791   5.568  0.2355 -0.1904 -0.1177
    2MOL   C257 1219   5.644   1.861   5.631  0.4469 -0.6159  0.0512
    2MOL   C258 1220   5.666   1.941   5.761  0.3843  0.5313 -0.0230
    2MOL   C259 1221   5.719   1.853   5.875 -0.5316 -0.1095 -0.2170
    2MOL   C260 1222   5.719   1.928   6.012 -0.0580 -0.1304  0.1126
    2MOL   C261 1223   5.728   1.841   6.137  0.2241 -0.2535 -0.0849
    2MOL   C262 1224   5.746   1.924   6.270 -0.1526  0.2530  0.2625
    2MOL   O263 1225   5.708   2.043   6.269 -0.6991 -0.3778  0.4292
    2MOL   H264 1226   6.205   1.972   4.804 -0.3189 -1.2422  1.0482
    2MOL   H265 1227   6.207   1.926   5.037 -0.8599 -0.8913 -2.0698
    2MOL   H266 1228   6.348   2.019   5.059 -1.1243  2.3223  0.6648
    2MOL   H267 1229   6.151   2.189   4.812  1.8910 -0.9480  1.3306
    2MOL   H268 1230   6.009   2.384   4.839  2.7507 -0.7165 -1.7738
    2MOL   H269 1231   5.940   2.441   5.077 -0.8881 -0.5554  1.0353
    2MOL   H270 1232   6.040   2.319   5.270  1.0899  0.8016 -0.1752
    2MOL   H271 1233   6.223   2.156   5.356  1.7667 -0.5237 -0.6380
    2MOL   H272 1234   6.269   2.035   5.241 -1.2875 -0.4880 -1.6615
    2MOL   H273 1235   6.018   1.983   5.237 -0.7675  0.4654  0.7289
    2MOL   H274 1236   6.036   1.747   5.507 -0.5475 -0.0113  0.0728
    2MOL   H275 1237   5.941   1.770   5.355 -0.2968  0.8413 -0.5189
    2MOL   H276 1238   5.821   1.952   5.460 -0.8116 -1.1316 -0.3832
    2MOL   H277 1239   5.936   1.944   5.603  3.3681 -1.4132 -0.4459
    2MOL   H278 1240   5.816   1.725   5.643 -0.3785 -2.6765 -1.8646
    2MOL   H279 1241   5.752   1.721   5.486 -0.0329  0.1950 -0.3823
    2MOL   H280 1242   5.603   1.921   5.549 -0.7093 -0.8058  0.4771
    2MOL   H281 1243   5.562   1.790   5.648 -0.8761 -0.0426 -3.3655
    2MOL   H282 1244   5.744   2.018   5.762  1.5698 -0.6384 -0.5996
    2MOL   H283 1245   5.570   1.985   5.786 -0.0329  0.9654 -2.3010
    2MOL   H284 1246   5.810   1.795   5.861  0.5407  0.9341  2.2468
    2MOL   H285 1247   5.647   1.771   5.884  0.1269 -1.0459 -2.8644
    2MOL   H286 1248   5.815   1.980   6.013 -0.8336  1.3424  0.7053
    2MOL   H287 1249   5.635   1.999   6.008  1.3687  1.5843  0.0794
    2MOL   H288 1250   5.641   1.778   6.153 -0.9404  1.1894 -0.6470
    2MOL   H289 1251   5.811   1.771   6.121 -0.1665 -1.5138  3.0273
    2MOL   N290 1252   5.807   1.867   6.370 -0.3857  0.7714 -1.1291
    2MOL   C291 1253   5.866   1.929   6.486 -0.6745 -0.4277  0.6400
    2MOL   C292 1254   5.980   1.850   6.547 -0.2088  0.2839  0.3485
    2MOL   C293 1255   6.059   1.764   6.465 -0.0734  0.2656  0.0503
    2MOL   C294 1256   6.167   1.687   6.518 -0.1365  0.4042  0.0156
    2MOL   C295 1257   6.191   1.696   6.659  0.4148 -0.4227 -0.1835
    2MOL   C296 1258   6.123   1.790   6.732 -0.8646 -0.0042  0.4098
    2MOL   C297 1259   6.015   1.861   6.683  0.0730  0.3355 -0.0841
    2MOL   C298 1260   5.943   1.957   6.777 -0.3276  0.2744  1.0651
    2MOL   N299 1261   6.010   2.088   6.770 -0.0580  0.4587  0.2057
    2MOL   C300 1262   5.968   2.202   6.828  0.0928  0.0825 -0.0370
    2MOL   O301 1263   5.862   2.205   6.889 -0.6614  0.0800  0.2328
    2MOL   C302 1264   6.053   2.329   6.795 -1.0505  0.6811 -0.8377
    2MOL   C303 1265   6.091   2.416   6.913  0.1973 -0.2578  0.3991
    2MOL   C304 1266   5.979   2.492   6.972  0.0753  0.4078  1.0030
    2MOL   C305 1267   6.007   2.631   7.011 -0.0369  0.3245 -0.3666
    2MOL   C306 1268   5.891   2.728   7.059 -0.7835 -0.3006 -0.5075
    2MOL   C307 1269   5.810   2.670   7.174 -0.0824  0.0845 -1.1251
    2MOL   C308 1270   5.888   2.657   7.312  0.9781 -0.1307 -0.2708
    2MOL   C309 1271   5.811   2.624   7.448  0.3292  0.0109  1.3647
    2MOL   C310 1272   5.736   2.743   7.503  0.0099  1.1562 -0.5115
    2MOL   O311 1273   5.654   2.795   7.430  0.4877 -0.3137  0.1432
    2MOL   H312 1274   5.810   1.767   6.356  0.8823  0.8571 -1.5687
    2MOL   H313 1275   5.918   2.023   6.465  1.3339 -1.7802 -0.6456
    2MOL   H314 1276   5.780   1.952   6.548 -0.1402 -1.0851  1.6336
    2MOL   H315 1277   6.039   1.765   6.359 -0.3015  4.0472  0.0460
    2MOL   H316 1278   6.230   1.630   6.452 -0.6119 -0.4537  0.3007
    2MOL   H317 1279   6.271   1.650   6.714  1.8606 -0.5006 -2.2829
    2MOL   H318 1280   6.151   1.795   6.836 -0.9003 -1.4207  0.5005
    2MOL   H319 1281   5.959   1.923   6.879  2.1163 -0.4190  0.4806
    2MOL   H320 1282   5.835   1.966   6.765 -0.3863 -0.2860  1.1478
    2MOL   H321 1283   6.094   2.094   6.714 -0.7678  0.1420 -0.9165
    2MOL   H322 1284   6.152   2.305   6.755 -0.5039  0.6314  0.5250
    2MOL   H323 1285   6.011   2.387   6.712 -0.9350  0.1181 -1.2929
    2MOL   H324 1286   6.166   2.490   6.884 -1.3799  1.8525  1.6268
    2MOL   H325 1287   6.133   2.353   6.991 -0.0638 -0.6006  0.2632
    2MOL   H326 1288   5.930   2.434   7.050 -0.6754 -0.1947  0.1000
    2MOL   H327 1289   5.895   2.507   6.904  0.4033  1.3121  0.7853
    2MOL   H328 1290   6.080   2.623   7.092 -2.2824  2.4267  1.9624
    2MOL   H329 1291   6.059   2.680   6.930  0.1898 -0.9351 -1.0023
    2MOL   H330 1292   5.919   2.832   7.080 -1.8799  0.2388 -1.6626
    2MOL   H331 1293   5.825   2.749   6.975 -0.6047  0.3515 -0.4922
    2MOL   H332 1294   5.768   2.573   7.146 -2.0607  0.5486  0.1737
    2MOL   H333 1295   5.728   2.733   7.206 -0.3907 -0.7098 -0.3176
    2MOL   H334 1296   5.973   2.588   7.306  1.9505  0.9816  0.5557
    2MOL   H335 1297   5.948   2.747   7.325 -1.7229  1.5675  0.7382
    2MOL   H336 1298   5.741   2.542   7.432 -0.3903  0.8064  0.3223
    2MOL   H337 1299   5.879   2.596   7.529  1.1917  0.3458  0.7584
    2MOL   N338 1300   5.771   2.791   7.623 -0.6383  0.8205  0.7837
    2MOL   C339 1301   5.711   2.904   7.685  0.0690 -0.7663  0.1534
    2MOL   C340 1302   5.797   2.964   0.006  0.0169  0.1492 -0.1218
    2MOL   C341 1303   5.938   2.947   0.005  1.3983 -0.7147  0.0900
    2MOL   C342 1304   6.023   3.017   0.092  0.1727  0.0807 -0.0079
    2MOL   C343 1305   5.963   3.086   0.200  1.5663  0.0235  0.0484
    2MOL   C344 1306   5.824   3.101   0.205 -0.7014  0.0558  0.1073
    2MOL   C345 1307   5.740   3.046   0.107  0.6385  0.0545 -0.2197
    2MOL   C346 1308   5.584   3.061   0.119 -0.5192  0.1505 -0.1708
    2MOL   N347 1309   5.536   3.178   0.204  0.3713 -1.0775  0.0639
    2MOL   C348 1310   5.457   3.177   0.312 -0.2357  0.1062  0.3989
    2MOL   O349 1311   5.438   3.072   0.374  0.0425 -0.2975  1.2628
    2MOL   C350 1312   5.418   3.312   0.371  0.1077 -0.0087 -0.6735
    2MOL   C351 1313   5.417   3.321   0.521  0.0847  0.0336  0.2979
    2MOL   C352 1314   5.277   3.353   0.572  0.6195  0.1568 -0.6528
    2MOL   C353 1315   5.272   3.376   0.726 -0.1474 -0.2309 -0.0449
    2MOL   C354 1316   5.334   3.259   0.806 -0.0673  0.0110  0.1894
    2MOL   C355 1317   5.323   3.271   0.962  0.1387 -0.3881  0.2204
    2MOL   C356 1318   5.400   3.152   1.032 -0.4065 -0.1260  0.2373
    2MOL   C357 1319   5.430   3.166   1.181 -0.5688  0.2882  0.2075
    2MOL   C358 1320   5.532   3.277   1.217  0.4043  0.2730 -0.2116
    2MOL   O359 1321   5.554   3.373   1.142  0.0399 -0.3460  0.2357
    2MOL   H360 1322   5.833   2.729   7.674 -2.8512 -2.0872  0.1174
    2MOL   H361 1323   5.684   2.984   7.617  1.0018 -0.2555  0.3757
    2MOL   H362 1324   5.621   2.865   7.732 -0.1505 -1.7055 -1.0080
    2MOL   H363 1325   5.976   2.894   7.709 -0.3074 -2.3903  0.3462
    2MOL   H364 1326   6.130   3.004   0.089  0.1474 -0.7378  2.2002
    2MOL   H365 1327   6.012   3.137   0.282 -0.0258  0.1376  0.9525
    2MOL   H366 1328   5.777   3.159   0.283 -0.0786 -0.6069  0.9978
    2MOL   H367 1329   5.527   2.972   0.150  1.1940 -0.8821  0.0580
    2MOL   H368 1330   5.553   3.089   0.018  1.7399 -0.7735 -1.1581
    2MOL   H369 1331   5.547   3.267   0.157  1.0410 -1.4802 -0.5465
    2MOL   H370 1332   5.319   3.339   0.335 -0.1243  2.2625  1.4351
    2MOL   H371 1333   5.481   3.392   0.332 -0.9871 -0.2167 -2.9500
    2MOL   H372 1334   5.478   3.405   0.551  0.1208 -0.0096  0.3441
    2MOL   H373 1335   5.455   3.227   0.560 -0.8664 -0.0112  1.1407
    2MOL   H374 1336   5.240   3.448   0.532 -0.2827 -0.1794 -0.6113
    2MOL   H375 1337   5.210   3.274   0.538  2.1097 -0.2445 -2.7437
    2MOL   H376 1338   5.166   3.372   0.754 -0.3524 -2.0832 -1.0183
    2MOL   H377 1339   5.312   3.475   0.746  0.6929 -0.6374  0.3299
    2MOL   H378 1340   5.284   3.168   0.773 -1.4450  0.3856  1.2073
    2MOL   H379 1341   5.440   3.258   0.781 -0.2344  3.4657 -0.9435
    2MOL   H380 1342   5.219   3.269   0.993 -0.1965 -0.8805 -0.8975
    2MOL   H381 1343   5.359   3.371   0.986  0.8086  0.0608 -2.4042
    2MOL   H382 1344   5.355   3.058   1.002 -1.5314  0.4288  0.1380
    2MOL   H383 1345   5.496   3.149   0.980 -0.6983 -1.9671 -0.2244
    2MOL   H384 1346   5.455   3.067   1.220 -1.0126  1.0402  2.4590
    2MOL   H385 1347   5.335   3.191   1.227  0.4858 -1.8434  3.7520
    2MOL   N386 1348   5.585   3.269   1.340  0.3108 -0.0049  0.0076
    2MOL   C387 1349   5.682   3.365   1.396 -0.1186  0.1992 -0.1265
    2MOL   C388 1350   5.649   3.387   1.549 -0.5943 -0.5860  0.0286
    2MOL   C389 1351   5.608   3.518   1.586 -0.2840 -0.2206  1.0056
    2MOL   C390 1352   5.569   3.546   1.718 -0.0695  0.6444  0.2202
    2MOL   C391 1353   5.575   3.448   1.819 -0.5307 -0.2344  0.2956
    2MOL   C392 1354   5.622   3.321   1.778  0.2171 -0.3338 -0.6206
    2MOL   C393 1355   5.660   3.284   1.646  0.8125  0.1433 -0.0462
    2MOL   C394 1356   5.680   3.139   1.613  0.1036  0.1832 -0.5273
    2MOL   N395 1357   5.564   3.051   1.653  0.0587 -0.3029 -0.0506
    2MOL   C396 1358   5.445   3.046   1.593 -0.3512  0.4432  0.3438
    2MOL   O397 1359   5.408   3.122   1.506 -0.3134 -0.1019  0.1580
    2MOL   C398 1360   5.343   2.948   1.649  0.7137  0.2699 -0.1786
    2MOL   C399 1361   5.233   2.914   1.545  0.1583 -0.1706  0.3905
    2MOL   C400 1362   5.212   2.763   1.516 -0.3673  0.7461 -0.5775
    2MOL   C401 1363   5.184   2.677   1.645  0.0817  0.5145  0.3091
    2MOL   C402 1364   5.182   2.518   1.633 -0.0265 -0.1587  0.2867
    2MOL   C403 1365   5.138   2.450   1.760 -0.0714 -1.1567 -0.2317
    2MOL   C404 1366   5.254   2.426   1.859 -0.2863  0.1173  0.1213
    2MOL   C405 1367   5.360   2.316   1.820 -0.0143 -0.1876 -0.6913
    2MOL   C406 1368   5.491   2.332   1.888  0.3312  0.4120 -0.4885
    2MOL   O407 1369   5.484   2.374   2.002  0.0694 -0.1461  0.2970
    2MOL   H408 1370   5.544   3.190   1.388 -0.0390  1.2921  1.8907
    2MOL   H409 1371   5.783   3.325   1.388 -0.2333 -0.5763  2.0900
    2MOL   H410 1372   5.662   3.454   1.337 -1.1084  0.7118  0.9724
    2MOL   H411 1373   5.603   3.598   1.514 -0.6832 -0.3254  0.9181
    2MOL   H412 1374   5.525   3.641   1.746 -0.0123  1.2313 -1.6381
    2MOL   H413 1375   5.530   3.469   1.915  1.3833 -0.8435  1.3623
    2MOL   H414 1376   5.618   3.248   1.858 -1.7065  1.4306  0.9622
    2MOL   H415 1377   5.769   3.115   1.670 -0.2760  1.5214  0.6806
    2MOL   H416 1378   5.702   3.133   1.506 -1.0934  0.4267 -0.8006
    2MOL   H417 1379   5.582   2.987   1.729 -1.8303 -1.2819 -0.3755
    2MOL   H418 1380   5.397   2.854   1.665 -3.2732 -2.4041 -1.5611
    2MOL   H419 1381   5.299   2.976   1.744  1.4971 -0.4825  0.4101
    2MOL   H420 1382   5.256   2.953   1.446 -1.0113  1.4791  0.7328
    2MOL   H421 1383   5.136   2.955   1.574 -0.0537 -0.7210  0.4543
    2MOL   H422 1384   5.291   2.717   1.455  1.9403  1.7062  1.5940
    2MOL   H423 1385   5.120   2.753   1.460  1.0169 -1.1534 -2.6055
    2MOL   H424 1386   5.263   2.691   1.718 -0.3428  0.9064  0.6997
    2MOL   H425 1387   5.091   2.711   1.692 -0.7727 -0.9950 -0.2462
    2MOL   H426 1388   5.114   2.490   1.553 -0.3141 -0.3207  0.5877
    2MOL   H427 1389   5.271   2.465   1.599  1.4925  1.1807  2.0224
    2MOL   H428 1390   5.088   2.354   1.746  0.1128 -0.8974 -3.0513
    2MOL   H429 1391   5.064   2.513   1.809  0.1919 -2.8813  2.4598
    2MOL   H430 1392   5.219   2.407   1.961  0.8537  1.7824  0.8448
    2MOL   H431 1393   5.317   2.515   1.864  0.1494 -0.1922  0.1238
    2MOL   H432 1394   5.374   2.308   1.712 -1.3059  2.0332 -1.0433
    2MOL   H433 1395   5.324   2.221   1.860 -1.6153  0.9470  0.6263
    2MOL   N434 1396   5.601   2.292   1.826  0.4897 -0.2163 -0.0833
    2MOL   C435 1397   5.738   2.268   1.887  0.5420 -0.0074 -0.3505
    2MOL   C436 1398   5.817   2.149   1.843  0.2644 -0.0265  0.1208
    2MOL   C437 1399   5.743   2.053   1.767 -0.3929 -0.2956 -0.0573
    2MOL   C438 1400   5.818   1.942   1.725 -0.4136 -0.1025  0.7334
    2MOL   C439 1401   5.958   1.934   1.741  0.5268 -0.5975  0.5714
    2MOL   C440 1402   6.022   2.024   1.825 -0.0976  0.2899 -0.2883
    2MOL   C441 1403   5.954   2.133   1.880  0.4313  0.4913  0.1692
    2MOL   C442 1404   6.027   2.242   1.962  0.3370 -0.3926  0.4088
    2MOL   N443 1405   6.110   2.330   1.880  0.7102  0.7856  0.6592
    2MOL   C444 1406   6.089   2.462   1.863  0.0265 -0.2686  0.0307
    2MOL   O445 1407   5.993   2.517   1.916  0.1494 -0.4727  0.0706
    2MOL   C446 1408   6.194   2.540   1.782 -0.5648  0.0884 -0.0011
    2MOL   C447 1409   6.129   2.667   1.714 -0.1564 -0.1812  0.2418
    2MOL   C448 1410   6.001   2.646   1.631  0.4002  0.0952 -0.1126
    2MOL   C449 1411   6.024   2.546   1.513 -0.1045 -0.4052  0.2162
    2MOL   C450 1412   5.904   2.540   1.420  0.1418 -0.2532 -0.3834
    2MOL   C451 1413   5.767   2.493   1.481  0.8274  0.8391  0.5770
    2MOL   C452 1414   5.641   2.527   1.392 -0.0045  0.4636  0.2237
    2MOL   C453 1415   5.505   2.461   1.440 -0.4829  0.0252 -0.7166
    2MOL   C454 1416   5.496   2.312   1.429  1.2414  0.4850 -0.3632
    2MOL   O455 1417   5.568   2.242   1.502  0.4508 -0.2633  0.2611
    2MOL   H456 1418   5.587   2.265   1.729 -0.2437  2.5737 -0.8090
    2MOL   H457 1419   5.721   2.261   1.994  0.5472 -0.2021 -0.3624
    2MOL   H458 1420   5.797   2.354   1.857  1.7215 -1.1504 -1.3959
    2MOL   H459 1421   5.637   2.066   1.753 -0.0598  2.0891 -0.5181
    2MOL   H460 1422   5.776   1.859   1.670 -0.6509  0.9514 -0.7050
    2MOL   H461 1423   6.019   1.860   1.691 -1.2248 -1.4675 -0.3071
    2MOL   H462 1424   6.129   2.015   1.837 -0.2200 -1.6921 -0.5439
    2MOL   H463 1425   6.098   2.186   2.023  0.2887  0.2860  1.1032
    2MOL   H464 1426   5.968   2.293   2.039 -2.6412 -0.8266 -1.5194
    2MOL   H465 1427   6.199   2.298   1.845  1.1083  1.0176  1.4406
    2MOL   H466 1428   6.241   2.466   1.717 -1.3080 -1.5627  1.2988
    2MOL   H467 1429   6.275   2.578   1.844  0.6307 -2.2084 -0.1275
    2MOL   H468 1430   6.212   2.715   1.663  1.1127 -1.4511  1.0720
    2MOL   H469 1431   6.106   2.753   1.776 -1.7455  1.1318 -2.0873
    2MOL   H470 1432   5.922   2.618   1.701 -0.0684 -0.8332 -1.0004
    2MOL   H471 1433   5.983   2.749   1.599  3.7590  0.4386 -1.0802
    2MOL   H472 1434   6.120   2.562   1.464 -2.4542  0.7206 -4.3614
    2MOL   H473 1435   6.026   2.446   1.555 -0.3551 -0.6552 -0.3534
    2MOL   H474 1436   5.877   2.642   1.397  0.0403 -0.1942 -0.0151
    2MOL   H475 1437   5.919   2.476   1.333  0.0193  0.0436 -0.6206
    2MOL   H476 1438   5.755   2.533   1.582 -3.3526 -1.1923  0.9903
    2MOL   H477 1439   5.773   2.386   1.497 -2.0496  0.6252  0.5124
    2MOL   H478 1440   5.610   2.631   1.377  1.2279  0.9889  1.2553
    2MOL   H479 1441   5.670   2.483   1.297  0.8403 -0.4680  0.9076
    2MOL   H480 1442   5.484   2.487   1.544 -0.1589 -3.1663  0.2085
    2MOL   H481 1443   5.418   2.501   1.389 -0.5416 -0.9224 -1.3557
    2MOL   N482 1444   5.407   2.264   1.346  0.3612 -0.2858  0.1662
    2MOL   C483 1445   5.358   2.131   1.328 -0.2272  0.1572 -0.5083
    2MOL   C484 1446   5.329   2.058   1.465  0.5763  1.1939 -0.7803
    2MOL   C485 1447   5.227   2.112   1.550  0.3505  0.2054 -0.7261
    2MOL   C486 1448   5.199   2.059   1.670 -0.5695  0.4404 -0.1195
    2MOL   C487 1449   5.264   1.941   1.702  0.5783  0.3975  0.3263
    2MOL   C488 1450   5.369   1.890   1.629 -0.1175 -0.6726 -0.0664
    2MOL   C489 1451   5.404   1.944   1.508 -0.3306 -0.0116  0.4211
    2MOL   C490 1452   5.518   1.896   1.425  0.1812 -0.1806  0.2666
    2MOL   N491 1453   5.628   1.984   1.416 -0.0592 -0.0623 -0.2498
    2MOL   C492 1454   5.752   1.950   1.375 -0.5481 -0.2395  0.1285
    2MOL   O493 1455   5.776   1.836   1.329 -0.2337 -0.0858 -0.0487
    2MOL   C494 1456   5.859   2.062   1.362  0.2748  0.0389  0.0768
    2MOL   C495 1457   5.990   2.030   1.291  0.4632 -0.1217  0.1182
    2MOL   C496 1458   6.077   2.146   1.232  0.5186 -0.3762 -0.3502
    2MOL   C497 1459   6.153   2.224   1.343  0.1602 -0.2968  0.2712
    2MOL   C498 1460   6.236   2.130   1.437 -0.3506 -0.3385 -0.1524
    2MOL   C499 1461   6.351   2.205   1.510 -0.4930  0.3483 -0.1742
    2MOL   C500 1462   6.447   2.109   1.585 -0.2845 -0.4120  0.5281
    2MOL   C501 1463   6.556   2.191   1.660 -0.7295 -0.3977 -0.2529
    2MOL   C502 1464   6.501   2.286   1.772  0.4634 -0.1947 -0.0821
    2MOL   O503 1465   6.391   2.273   1.824  0.0763 -0.2541 -0.3269
    2MOL   H504 1466   5.366   2.330   1.282 -0.5356 -2.0032 -1.0658
    2MOL   H505 1467   5.267   2.121   1.270 -0.8625  1.8908  0.1567
    2MOL   H506 1468   5.437   2.088   1.266  0.9752 -0.3676  1.3385
    2MOL   H507 1469   5.185   2.207   1.520 -1.6168 -0.6599 -0.8137
    2MOL   H508 1470   5.123   2.095   1.736  0.0473 -0.7717  1.2785
    2MOL   H509 1471   5.251   1.895   1.798  0.7138 -1.5970 -0.5809
    2MOL   H510 1472   5.425   1.804   1.665  0.6656 -2.0971 -4.3879
    2MOL   H511 1473   5.475   1.860   1.332 -0.2395  1.0938 -0.0515
    2MOL   H512 1474   5.544   1.798   1.464 -2.7811 -2.0400 -2.2643
    2MOL   H513 1475   5.623   2.074   1.461 -3.1748 -1.0282  1.5087
    2MOL   H514 1476   5.883   2.082   1.467  1.3725 -1.5013  0.1414
    2MOL   H515 1477   5.806   2.148   1.321 -0.0575 -0.6148 -0.8874
    2MOL   H516 1478   5.960   1.973   1.203  0.1469 -1.5248  1.1116
    2MOL   H517 1479   6.054   1.963   1.348  3.1796  1.0675 -1.4391
    2MOL   H518 1480   6.145   2.097   1.162 -0.9190 -1.2747 -1.1350
    2MOL   H519 1481   6.027   2.221   1.172 -2.5163 -1.3110  0.9215
    2MOL   H520 1482   6.218   2.304   1.307 -1.9118  0.4973 -1.7798
    2MOL   H521 1483   6.090   2.273   1.417 -0.3710  1.9286 -1.6013
    2MOL   H522 1484   6.176   2.075   1.509  1.9106 -0.1154  1.9593
    2MOL   H523 1485   6.274   2.049   1.375 -1.3470 -1.0313  0.1296
    2MOL   H524 1486   6.300   2.274   1.577  0.4472 -0.8533  1.8266
    2MOL   H525 1487   6.405   2.267   1.438 -0.0620  1.0074  0.7032
    2MOL   H526 1488   6.394   2.067   1.671 -1.7488  2.5966  1.1550
    2MOL   H527 1489   6.474   2.026   1.520  0.3584 -0.1781  0.5004
    2MOL   H528 1490   6.617   2.241   1.584 -0.6116 -1.5512 -0.9201
    2MOL   H529 1491   6.618   2.116   1.708 -1.7620 -1.1152 -0.0242
    2MOL   N530 1492   6.585   2.377   1.810  0.0718  0.0533 -0.0992
    2MOL   C531 1493   6.568   2.447   1.937 -0.3764  0.2418  0.1216
    2MOL   C532 1494   6.693   2.532   1.968 -0.4111  0.3865 -0.6397
    2MOL   C533 1495   6.779   2.493   2.074  0.1296  0.1153 -0.2136
    2MOL   C534 1496   6.898   2.565   2.099  0.4871 -0.1129 -0.5392
    2MOL   C535 1497   6.926   2.675   2.020  0.3179 -0.3617 -0.3957
    2MOL   C536 1498   6.846   2.709   1.913 -0.0686  0.4636 -0.2413
    2MOL   C537 1499   6.723   2.647   1.896  0.4522 -0.6687 -0.1641
    2MOL   C538 1500   6.628   2.706   1.794  0.2727 -0.3716  0.6251
    2MOL   N539 1501   6.612   2.852   1.795 -0.6914  0.1244  0.4807
    2MOL   C540 1502   6.519   2.931   1.726 -0.4960 -0.5893  0.4407
    2MOL   O541 1503   6.427   2.890   1.658  0.8979  0.0073  0.1164
    2MOL   C542 1504   6.549   3.081   1.742 -0.9736 -0.0996 -0.6303
    2MOL   C543 1505   6.614   3.143   1.618 -0.3681  0.1887  0.0139
    2MOL   C544 1506   6.644   3.295   1.627 -0.1819  0.5894  0.2700
    2MOL   C545 1507   6.528   3.394   1.650 -0.6181 -1.1297 -0.4190
    2MOL   C546 1508   6.473   3.450   1.525 -0.2079  0.3711  0.3184
    2MOL   C547 1509   6.362   3.551   1.545 -0.2860  0.2706 -0.3640
    2MOL   C548 1510   6.294   3.602   1.419 -0.0853  0.2008  0.1391
    2MOL   C549 1511   6.230   3.499   1.325 -0.1367 -0.3314 -0.1095
    2MOL   C550 1512   6.114   3.415   1.394 -0.2582  0.1577  0.1059
    2MOL   O551 1513   5.996   3.444   1.381 -0.1153 -0.9044  0.2923
    2MOL   H552 1514   6.679   2.372   1.774 -1.1259 -2.6719 -3.0613
    2MOL   H553 1515   6.548   2.371   2.013 -2.3459 -0.9054 -1.4829
    2MOL   H554 1516   6.487   2.520   1.942  2.1289  3.0000  1.3105
    2MOL   H555 1517   6.761   2.411   2.142 -2.2704  0.9739  0.2547
    2MOL   H556 1518   6.952   2.537   2.188  0.2811  3.2287  0.7262
    2MOL   H557 1519   7.018   2.729   2.032 -0.1983  0.1193  1.4666
    2MOL   H558 1520   6.881   2.788   1.848 -0.0706  0.0184 -0.7814
    2MOL   H559 1521   6.532   2.660   1.773  0.0600  0.7179 -0.9280
    2MOL   H560 1522   6.679   2.676   1.702 -3.7766 -0.1295 -1.8186
    2MOL   H561 1523   6.688   2.896   1.845  1.3607 -0.3325 -2.1043
    2MOL   H562 1524   6.621   3.109   1.819 -1.0282  1.2621 -1.0741
    2MOL   H563 1525   6.459   3.133   1.774 -1.2482 -0.4032 -0.9078
    2MOL   H564 1526   6.534   3.132   1.545  1.1643 -0.9003 -1.5306
    2MOL   H565 1527   6.700   3.083   1.591 -0.9036 -0.9338  0.7775
    2MOL   H566 1528   6.711   3.309   1.711  1.1791  1.1577 -0.8774
    2MOL   H567 1529   6.689   3.319   1.530 -0.5914 -2.6326 -0.7949
    2MOL   H568 1530   6.452   3.336   1.703 -0.0906 -0.0053  1.6228
    2MOL   H569 1531   6.564   3.472   1.716 -0.0932 -0.1022 -1.8926
    2MOL   H570 1532   6.548   3.493   1.458  0.6998 -0.3707  0.8507
    2MOL   H571 1533   6.438   3.368   1.462 -0.5227  1.5983 -1.1396
    2MOL   H572 1534   6.399   3.645   1.587  0.2868 -0.5068  0.9264
    2MOL   H573 1535   6.290   3.509   1.614  2.6580 -2.5160  1.1351
    2MOL   H574 1536   6.220   3.673   1.455  1.3772  1.7295  0.2000
    2MOL   H575 1537   6.365   3.653   1.354 -0.8024  1.9104  0.6837
    2MOL   H576 1538   6.303   3.424   1.297  0.9169  0.9833 -0.9873
    2MOL   H577 1539   6.194   3.542   1.231 -0.2468 -0.0295  0.0705
    2MOL   N578 1540   6.161   3.307   1.469 -0.0699  0.8136  0.4137
    2MOL   C579 1541   6.072   3.221   1.547  0.1024  0.0204 -0.5243
    2MOL   C580 1542   6.099   3.248   1.695  0.4391 -0.0896 -0.2141
    2MOL   C581 1543   6.171   3.147   1.768 -0.1041 -0.2526 -0.4607
    2MOL   C582 1544   6.200   3.154   1.904  0.5562 -0.0646 -0.0037
    2MOL   C583 1545   6.148   3.269   1.978 -0.0051 -0.1928 -0.4660
    2MOL   C584 1546   6.075   3.368   1.913  0.3772 -0.6558  0.2799
    2MOL   C585 1547   6.050   3.360   1.769 -0.0040  0.1499 -0.0584
    2MOL   C586 1548   5.970   3.468   1.696  0.0349 -0.4850 -0.1762
    2MOL   N587 1549   5.895   3.564   1.778 -0.1252  0.1918 -0.0427
    2MOL   C588 1550   5.917   3.692   1.784  0.4096 -0.4752  0.1952
    2MOL   O589 1551   6.009   3.743   1.721 -0.1037  0.2849  0.1985
    2MOL   C590 1552   5.837   3.789   1.872 -0.4319  1.3545 -0.3152
    2MOL   C591 1553   5.927   3.865   1.971 -0.1532  0.4880 -0.0914
    2MOL   C592 1554   5.867   3.988   2.032  0.5616  0.4763 -0.0937
    2MOL   C593 1555   5.966   4.059   2.125  0.3311  0.5046  0.3415
    2MOL   C594 1556   5.931   4.198   2.169 -0.0707 -0.1761  1.0151
    2MOL   C595 1557   5.955   4.315   2.066  0.3513 -0.2847  0.0790
    2MOL   C596 1558   5.932   4.460   2.120  0.3149  0.1810  0.1038
    2MOL   C597 1559   5.934   4.573   2.029  0.1907  0.1484 -0.6388
    2MOL   C598 1560   6.069   4.636   1.997 -0.2138  0.1984  0.0898
    2MOL   O599 1561   6.131   4.697   2.085 -0.1744 -0.3994 -0.0715
    2MOL   H600 1562   6.260   3.286   1.468 -0.7248 -2.5347 -1.0281
    2MOL   H601 1563   6.095   3.117   1.523 -1.8184 -0.3811 -0.7487
    2MOL   H602 1564   5.967   3.236   1.521  0.4459  0.5417 -1.6670
    2MOL   H603 1565   6.204   3.060   1.714 -1.5145 -0.4860 -0.9635
    2MOL   H604 1566   6.254   3.077   1.958 -0.1620  1.5052  3.0655
    2MOL   H605 1567   6.164   3.284   2.084 -0.0195 -0.0637 -0.4823
    2MOL   H606 1568   6.059   3.456   1.974 -0.3648 -0.4605 -0.1828
    2MOL   H607 1569   5.901   3.414   1.631 -0.9131 -0.4203  0.7567
    2MOL   H608 1570   6.041   3.517   1.631  0.4432 -0.1432  0.5199
    2MOL   H609 1571   5.845   3.528   1.858  0.6134  1.3668  0.9607
    2MOL   H610 1572   5.756   3.741   1.927  1.1205  0.8017  1.5396
    2MOL   H611 1573   5.788   3.867   1.813  1.1359  1.4017 -1.5799
    2MOL   H612 1574   6.020   3.906   1.932  0.5232 -0.2336  0.7452
    2MOL   H613 1575   5.968   3.805   2.053  3.4053  0.8290 -1.5349
    2MOL   H614 1576   5.842   4.061   1.954  0.3589  0.5147  0.0085
    2MOL   H615 1577   5.780   3.959   2.090  0.2792  0.2177 -0.6426
    2MOL   H616 1578   5.982   3.995   2.212  3.0713  2.4463  1.3065
    2MOL   H617 1579   6.065   4.063   2.081  0.6735 -0.7774  0.9599
    2MOL   H618 1580   5.824   4.187   2.187 -0.3428 -0.7688 -0.8672
    2MOL   H619 1581   5.989   4.224   2.257 -1.2381 -0.3849  1.8633
    2MOL   H620 1582   5.890   4.296   1.981 -1.2959 -1.2793  1.5150
    2MOL   H621 1583   6.058   4.307   2.032 -0.4241  0.7131 -2.5792
    2MOL   H622 1584   5.832   4.464   2.164 -0.9817  1.3533 -2.8415
    2MOL   H623 1585   6.009   4.472   2.197  0.3049 -0.3335  0.2000
    2MOL   H624 1586   5.874   4.543   1.943 -1.7193 -0.0244  0.7080
    2MOL   H625 1587   5.877   4.649   2.082 -0.5370  0.3955 -1.7539
    2MOL   N626 1588   6.119   4.608   1.879 -0.3160 -0.5154 -0.0682
    2MOL   C627 1589   6.258   4.622   1.834  0.3273  0.4816 -0.4334
    2MOL   C628 1590   6.299   4.754   1.781 -0.0998  0.1741  0.2735
    2MOL   C629 1591   6.195   4.843   1.748 -0.1451  0.0253  0.2476
    2MOL   C630 1592   6.228   4.968   1.691  0.2580  0.0595  0.0923
    2MOL   C631 1593   6.360   4.998   1.654 -0.1342 -0.0742  0.2322
    2MOL   C632 1594   6.468   4.911   1.692 -0.1229 -0.5562  0.6530
    2MOL   C633 1595   6.434   4.786   1.742 -0.1904 -0.5106 -0.0877
    2MOL   C634 1596   6.553   4.695   1.775  0.1554 -0.2655 -0.3252
    2MOL   N635 1597   6.613   4.641   1.654 -0.4895 -0.2050 -0.1270
    2MOL   C636 1598   6.561   4.533   1.590  0.2740  0.0880  1.1134
    2MOL   O637 1599   6.458   4.471   1.619 -0.2202  0.0800  0.1955
    2MOL   C638 1600   6.632   4.488   1.458  0.0469 -0.0176 -0.2081
    2MOL   C639 1601   6.528   4.469   1.347  0.5471  0.0971  0.1761
    2MOL   C640 1602   6.453   4.326   1.341 -0.5346 -0.4215 -0.4632
    2MOL   C641 1603   6.343   4.318   1.233 -0.4406 -0.2753 -0.5363
    2MOL   C642 1604   6.250   4.192   1.260 -0.1617 -0.5815 -0.5789
    2MOL   C643 1605   6.138   4.187   1.152 -0.5807 -0.4945  0.6244
    2MOL   C644 1606   6.066   4.057   1.151 -0.3204 -0.0081 -0.0966
    2MOL   C645 1607   5.991   4.027   1.020 -0.3625  0.3863 -1.0302
    2MOL   C646 1608   5.849   4.091   1.023 -0.1748 -0.4401 -0.0021
    2MOL   O647 1609   5.840   4.214   1.030 -0.0480  0.0799 -0.0374
    2MOL   H648 1610   6.060   4.542   1.830 -1.0226  0.0119  0.0723
    2MOL   H649 1611   6.270   4.550   1.753 -1.5243  0.2885 -0.5588
    2MOL   H650 1612   6.334   4.589   1.905  0.1038 -0.5032 -0.6518
    2MOL   H651 1613   6.092   4.830   1.776  0.0389  0.4436  1.1182
    2MOL   H652 1614   6.149   5.041   1.679 -1.3471 -1.5398  0.6662
    2MOL   H653 1615   6.381   5.097   1.617 -1.0945  0.4294  1.0234
    2MOL   H654 1616   6.568   4.939   1.662 -0.7693  1.8331  0.6192
    2MOL   H655 1617   6.543   4.617   1.850 -1.5561 -0.0877 -0.3516
    2MOL   H656 1618   6.623   4.769   1.816  0.5934  0.3306 -2.0898
    2MOL   H657 1619   6.692   4.696   1.622 -0.1393 -0.9554 -0.5511
    2MOL   H658 1620   6.689   4.398   1.479 -0.7780 -0.8062 -1.2944
    2MOL   H659 1621   6.700   4.571   1.436  1.8662 -1.1402  1.0845
    2MOL   H660 1622   6.571   4.489   1.249  1.2518 -2.7871 -0.1373
    2MOL   H661 1623   6.452   4.548   1.343 -0.1165 -0.4941  0.8987
    2MOL   H662 1624   6.528   4.248   1.334  1.5433  1.5241 -0.5471
    2MOL   H663 1625   6.392   4.324   1.431 -0.0206  1.0310 -0.0544
    2MOL   H664 1626   6.276   4.403   1.251  0.1913  0.0936  0.0868
    2MOL   H665 1627   6.396   4.331   1.139  1.8092 -0.4337  0.6784
    2MOL   H666 1628   6.314   4.104   1.267  0.6928  0.1819  1.8952
    2MOL   H667 1629   6.205   4.195   1.359 -0.3377 -0.9193 -0.6477
    2MOL   H668 1630   6.188   4.189   1.055 -0.2137  1.0660  0.8233
    2MOL   H669 1631   6.068   4.271   1.159 -1.3257 -1.1449  0.9606
    2MOL   H670 1632   6.126   3.969   1.174 -1.5444 -0.7118  0.5397
    2MOL   H671 1633   5.987   4.060   1.227  0.9626  1.1377  1.2033
    2MOL   H672 1634   5.987   3.918   1.022  0.0117  0.3683 -1.1535
    2MOL   H673 1635   6.046   4.054   0.929  0.4282 -1.4171 -1.1163
    2MOL   N674 1636   5.745   4.012   1.023  0.5161 -0.1765  0.2504
    2MOL   C675 1637   5.609   4.060   1.016  0.1422  0.1954  0.4671
    2MOL   C676 1638   5.516   3.968   0.937  0.5070 -0.9544 -0.2970
    2MOL   C677 1639   5.397   3.920   0.995 -0.2354 -0.0529  0.1358
    2MOL   C678 1640   5.311   3.833   0.928  0.5049  0.0444 -0.8298
    2MOL   C679 1641   5.343   3.799   0.797  0.0865  0.4335  0.0052
    2MOL   C680 1642   5.459   3.852   0.737  0.3276  0.0334 -0.0450
    2MOL   C681 1643   5.550   3.943   0.805  0.1662  0.1292  0.7100
    2MOL   C682 1644   5.650   4.011   0.714  0.4232 -0.3012  1.3281
    2MOL   N683 1645   5.738   3.917   0.653 -0.3656  0.5063  0.5348
    2MOL   C684 1646   5.791   3.931   0.529  0.1809  0.3424  0.1579
    2MOL   O685 1647   5.773   4.029   0.456  0.0704  0.6565 -0.2314
    2MOL   C686 1648   5.879   3.817   0.478 -0.2941 -0.2035  0.4637
    2MOL   C687 1649   5.976   3.752   0.583 -0.1473 -0.1274 -0.0363
    2MOL   C688 1650   6.098   3.837   0.621 -0.5175 -0.3172  0.6785
    2MOL   C689 1651   6.162   3.795   0.763 -0.0464 -0.6215 -0.1436
    2MOL   C690 1652   6.286   3.888   0.790 -0.4448  0.1656 -0.6758
    2MOL   C691 1653   6.346   3.880   0.931 -0.0346  0.5503 -0.7984
    2MOL   C692 1654   6.449   3.987   0.949 -0.1402  1.1473  0.0371
    2MOL   C693 1655   6.549   3.975   1.063  0.2987  0.2844  0.6635
    2MOL   C694 1656   6.648   4.095   1.052 -0.4455  1.0084 -0.1834
    2MOL   O695 1657   6.630   4.185   0.974 -0.1295 -0.5344 -0.2146
    2MOL   H696 1658   5.754   3.916   0.992 -1.8789 -0.2679 -0.2597
    2MOL   H697 1659   5.603   4.155   0.962 -0.0803 -0.7711 -1.2350
    2MOL   H698 1660   5.566   4.062   1.116 -0.2193 -0.3855  0.3248
    2MOL   H699 1661   5.379   3.945   1.099  0.4575 -0.8644  0.4513
    2MOL   H700 1662   5.225   3.796   0.982 -0.8426  3.4358 -0.4905
    2MOL   H701 1663   5.263   3.741   0.752  0.6450 -0.3554  0.0190
    2MOL   H702 1664   5.471   3.843   0.630 -1.6155  1.0577 -0.3674
    2MOL   H703 1665   5.700   4.085   0.777 -0.9220  1.6605  0.1464
    2MOL   H704 1666   5.604   4.069   0.634  1.9269 -1.7621 -0.6603
    2MOL   H705 1667   5.758   3.840   0.716  0.6710 -0.3544 -0.8134
    2MOL   H706 1668   5.938   3.861   0.398  0.6265  1.9833  2.2794
    2MOL   H707 1669   5.822   3.744   0.421 -1.2636  1.7633 -1.1523
    2MOL   H708 1670   6.018   3.658   0.550 -1.5498 -0.0911 -2.0431
    2MOL   H709 1671   5.918   3.734   0.674 -1.5807 -1.1753 -1.1421
    2MOL   H710 1672   6.176   3.837   0.545 -1.5010  0.2125 -0.3654
    2MOL   H711 1673   6.063   3.940   0.631 -1.3968 -0.7012  1.6337
    2MOL   H712 1674   6.075   3.811   0.827 -1.0390 -1.4571 -1.2548
    2MOL   H713 1675   6.186   3.689   0.773 -0.9006 -0.9312 -1.3090
    2MOL   H714 1676   6.363   3.861   0.718  0.0817 -1.4360  0.4328
    2MOL   H715 1677   6.264   3.993   0.774 -0.9711  0.1815  0.1278
    2MOL   H716 1678   6.390   3.781   0.945  1.3135  1.2020 -0.3696
    2MOL   H717 1679   6.273   3.894   1.011 -1.1992 -1.1243 -1.5287
    2MOL   H718 1680   6.395   4.081   0.962  0.3950  1.4453  0.1594
    2MOL   H719 1681   6.504   4.004   0.857 -0.3840  0.2977 -0.2584
    2MOL   H720 1682   6.606   3.883   1.060  0.2989  0.2764  0.9185
    2MOL   H721 1683   6.499   3.977   1.160 -0.1226 -1.9255  0.5090
    2MOL   N722 1684   6.747   4.091   1.141  0.5046  0.4463  0.6482
    2MOL   C723 1685   6.879   4.161   1.125  0.1168  0.0361 -0.4025
    2MOL   C724 1686   6.935   4.208   1.259 -0.2690  0.2191  0.7788
    2MOL   C725 1687   6.859   4.192   1.376  0.5070 -0.5026 -0.0141
    2MOL   C726 1688   6.912   4.242   1.502 -0.2975  0.1808  0.4093
    2MOL   C727 1689   7.045   4.298   1.508  0.4652  0.1885  0.0590
    2MOL   C728 1690   7.123   4.302   1.389 -0.4771  0.6091  0.1975
    2MOL   C729 1691   7.067   4.259   1.261  0.5270 -0.2186 -0.0669
    2MOL   C730 1692   7.156   4.260   1.140  0.1781 -0.2195 -0.0358
    2MOL   N731 1693   7.250   4.147   1.140  0.3535 -0.2978  0.3190
    2MOL   C732 1694   7.361   4.138   1.065  0.2534 -0.1322  0.6939
    2MOL   O733 1695   7.386   4.227   0.983 -0.2873 -0.2659  0.0651
    2MOL   C734 1696   7.450   4.012   1.077  0.6871 -0.5026 -0.0456
    2MOL   C735 1697   7.554   3.989   0.954  0.0974  0.2413 -0.5343
    2MOL   C736 1698   7.627   3.854   0.960 -0.2361  0.5059 -0.6693
    2MOL   C737 1699   7.771   3.840   1.029  0.1185  0.0806 -0.0216
    2MOL   C738 1700   0.006   3.923   1.156 -0.4037 -0.4608 -0.4898
    2MOL   C739 1701   0.151   3.903   1.211 -0.9053 -0.0051 -0.7263
    2MOL   C740 1702   0.179   3.985   1.339  0.2702  0.2237 -0.0866
    2MOL   C741 1703   0.310   3.949   1.411  1.3878 -0.0318  0.5095
    2MOL   C742 1704   0.433   3.937   1.312 -0.0291 -0.3835  0.1344
    2MOL   O743 1705   0.445   4.019   1.220  0.1334 -0.3867  0.0709
    2MOL   H744 1706   6.746   4.017   1.209  2.4567  0.2822  0.5239
    2MOL   H745 1707   6.867   4.246   1.059 -2.6168  0.0436  0.0399
    2MOL   H746 1708   6.945   4.085   1.083  2.7486  2.4160 -0.7163
    2MOL   H747 1709   6.755   4.162   1.375 -0.2186  1.9218 -0.5680
    2MOL   H748 1710   6.861   4.223   1.595 -0.0022  0.5995  0.6586
    2MOL   H749 1711   7.093   4.325   1.600  0.7559 -1.2201  0.3369
    2MOL   H750 1712   7.221   4.346   1.397 -0.5873  0.6762  1.3313
    2MOL   H751 1713   7.202   4.359   1.151 -2.1399  0.7532  1.1110
    2MOL   H752 1714   7.105   4.267   1.044  1.4069  0.4706 -0.6554
    2MOL   H753 1715   7.241   4.079   1.215 -0.0521 -1.9193 -1.1465
    2MOL   H754 1716   7.377   3.931   1.077  0.1042  0.0102  1.2332
    2MOL   H755 1717   7.503   4.015   1.172  0.7090 -2.2686  0.0155
    2MOL   H756 1718   7.634   4.061   0.966 -0.5209  0.8178  0.2108
    2MOL   H757 1719   7.519   3.993   0.851  1.9889 -0.3819 -1.2128
    2MOL   H758 1720   7.558   3.777   0.994  1.3828 -1.7876 -2.4476
    2MOL   H759 1721   7.641   3.822   0.856  1.0820  0.4099 -0.4703
    2MOL   H760 1722   0.016   3.738   1.048 -0.0298  0.1585  0.6689
    2MOL   H761 1723   0.062   3.872   0.963  1.4859  0.1855  1.6469
    2MOL   H762 1724   7.783   4.029   1.135  1.3985  0.4716  2.7319
    2MOL   H763 1725   7.719   3.894   1.227  0.1303  1.5702  0.9864
    2MOL   H764 1726   0.220   3.936   1.134  1.1282  0.0834  1.0904
    2MOL   H765 1727   0.170   3.799   1.238  0.4859  0.9972  2.4734
    2MOL   H766 1728   0.176   4.091   1.313  2.8281  0.4104  0.2314
    2MOL   H767 1729   0.093   3.970   1.405 -0.0118 -1.4347 -0.7979
    2MOL   H768 1730   0.319   4.031   1.483 -0.8548  2.3662 -1.8358
    2MOL   H769 1731   0.313   3.849   1.455  0.7654  0.9787  2.9569
    2MOL   N770 1732   0.514   3.835   1.326  0.2394 -0.1286 -0.4302
    2MOL   C771 1733   0.618   3.793   1.229  0.4217 -1.0156 -0.1938
    2MOL   C772 1734   0.744   3.877   1.249 -0.1646  0.1773  0.3441
    2MOL   C773 1735   0.781   3.923   1.373  0.5897  0.0017 -0.6216
    2MOL   C774 1736   0.893   4.005   1.396  0.0676 -0.0378  0.3295
    2MOL   C775 1737   0.966   4.050   1.283 -0.1253 -0.1313 -0.0918
    2MOL   C776 1738   0.919   4.013   1.154  0.0011  0.6686 -0.3989
    2MOL   C777 1739   0.814   3.928   1.134  0.3737  0.2335  1.4240
    2MOL   C778 1740   0.761   3.924   0.993 -0.5051 -0.1957  0.5083
    2MOL   N779 1741   0.636   3.993   0.981  0.2709  0.2711  0.4942
    2MOL   C780 1742   0.585   4.062   0.883 -0.2748 -0.3386 -0.1201
    2MOL   O781 1743   0.633   4.055   0.770  0.0736 -0.3852  0.2830
    2MOL   C782 1744   0.456   4.147   0.899  0.0296 -0.3518 -0.2028
    2MOL   C783 1745   0.356   4.133   0.780 -0.1939 -0.1921  0.5250
    2MOL   C784 1746   0.257   4.245   0.784 -0.2492  0.0775 -0.3649
    2MOL   C785 1747   0.167   4.256   0.910  0.2387 -0.2403  0.4437
    2MOL   C786 1748   0.080   4.375   0.910 -0.6383  0.6520  0.4939
    2MOL   C787 1749   7.768   4.374   1.026  0.2269 -0.3196 -0.7586
    2MOL   C788 1750   7.680   4.492   1.032 -0.8106  0.4437  0.0366
    2MOL   C789 1751   7.574   4.490   1.142 -1.1066  0.4352 -0.8119
    2MOL   C790 1752   7.477   4.613   1.138  0.2428  0.8537 -0.5400
    2MOL   O791 1753   7.461   4.670   1.034  0.3765  0.1037 -0.0445
    2MOL   H792 1754   0.509   3.782   1.412 -0.8202  2.8060  1.4113
    2MOL   H793 1755   0.664   3.699   1.258  0.2018 -1.2279 -0.5363
    2MOL   H794 1756   0.586   3.795   1.125 -1.4719  0.8112  0.3776
    2MOL   H795 1757   0.729   3.888   1.461  2.4034  1.1651  0.9635
    2MOL   H796 1758   0.932   4.035   1.492 -1.6178  1.7795  0.4904
    2MOL   H797 1759   1.047   4.118   1.304  0.5964 -1.0968  0.2653
    2MOL   H798 1760   0.959   4.065   1.068  0.7342 -1.2523 -1.2478
    2MOL   H799 1761   0.740   3.825   0.954  0.4877  0.2057 -1.0874
    2MOL   H800 1762   0.829   3.976   0.925  2.6472 -2.5791  1.7156
    2MOL   H801 1763   0.587   3.987   1.069  0.3038 -1.6385  0.3967
    2MOL   H802 1764   0.492   4.249   0.912 -1.0525  0.2981 -1.9916
    2MOL   H803 1765   0.416   4.125   0.998 -0.7117 -1.0217 -0.6392
    2MOL   H804 1766   0.315   4.032   0.775  0.9067 -0.6987  1.5233
    2MOL   H805 1767   0.417   4.153   0.691 -2.4030 -0.3700 -1.0593
    2MOL   H806 1768   0.193   4.255   0.697  0.6801 -0.2871 -1.0935
    2MOL   H807 1769   0.316   4.334   0.807 -2.3801  1.0309  1.6312
    2MOL   H808 1770   0.119   4.159   0.926  1.1966 -0.8303 -0.1882
    2MOL   H809 1771   0.227   4.255   1.001  1.1752  2.4445 -0.1212
    2MOL   H810 1772   0.128   4.473   0.907  0.0614  0.3490  1.4094
    2MOL   H811 1773   0.016   4.368   0.823 -0.3666  0.2005  0.3284
    2MOL   H812 1774   0.023   4.354   1.123 -0.2820  1.9163 -0.0319
    2MOL   H813 1775   7.698   4.293   1.009 -3.0460  1.8617  1.7183
    2MOL   H814 1776   7.632   4.495   0.935  3.0071 -1.9307 -2.0946
    2MOL   H815 1777   7.752   4.574   1.026 -1.0702  0.7774  1.3635
    2MOL   H816 1778   7.616   4.481   1.242 -1.7702 -0.0725 -0.5825
    2MOL   H817 1779   7.506   4.407   1.125 -0.0609 -0.6145  0.0694
    2MOL   N818 1780   7.411   4.638   1.251 -0.2254  0.8914 -0.0201
    2MOL   C819 1781   7.303   4.733   1.263 -0.0476  0.2698 -0.1317
    2MOL   C820 1782   7.345   4.833   1.367 -0.0234 -0.2653  0.5601
    2MOL   C821 1783   7.376   4.968   1.326 -0.4507  0.2004  0.2794
    2MOL   C822 1784   7.415   5.062   1.418  0.6349 -0.2290 -0.6494
    2MOL   C823 1785   7.423   5.032   1.555 -0.1373  0.3930 -0.2195
    2MOL   C824 1786   7.404   4.894   1.589 -0.3664  0.1671  0.3224
    2MOL   C825 1787   7.368   4.795   1.500  0.3891 -0.2425  0.5205
    2MOL   C826 1788   7.344   4.659   1.554 -0.2040  0.1203  0.5012
    2MOL   N827 1789   7.462   4.597   1.608 -0.2780 -0.7853 -0.7070
    2MOL   C828 1790   7.529   4.499   1.548  0.7587 -0.1398  0.1043
    2MOL   O829 1791   7.481   4.448   1.447 -0.2006  0.2440 -0.4587
    2MOL   C830 1792   7.659   4.454   1.613 -0.4995 -0.0353  0.0213
    2MOL   C831 1793   7.753   4.366   1.529  0.4040 -0.3118 -0.7841
    2MOL   C832 1794   0.078   4.447   1.465 -0.1840 -0.1061  0.6003
    2MOL   C833 1795   0.170   4.351   1.386  1.1445  0.6256  0.4530
    2MOL   C834 1796   0.308   4.416   1.347 -0.4359  0.1395  0.9482
    2MOL   C835 1797   0.404   4.322   1.268  0.2726  0.0761  0.0328
    2MOL   C836 1798   0.521   4.396   1.191 -0.6306  0.3063  0.1225
    2MOL   C837 1799   0.643   4.307   1.163 -0.0963  0.1344  0.3848
    2MOL   C838 1800   0.741   4.375   1.071  0.3651  0.0683  0.0162
    2MOL   O839 1801   0.712   4.489   1.026  0.5550  0.0493  0.0976
    2MOL   H840 1802   7.437   4.582   1.332  0.5284  1.0977 -0.1132
    2MOL   H841 1803   7.272   4.783   1.171  1.8626  0.7817 -0.5255
    2MOL   H842 1804   7.219   4.675   1.301  1.3026 -1.5362  0.1235
    2MOL   H843 1805   7.365   4.982   1.220 -3.3056 -0.7191  0.3951
    2MOL   H844 1806   7.447   5.156   1.376  1.9026  0.1883  1.1649
    2MOL   H845 1807   7.454   5.109   1.624  1.0736  0.7269 -1.1085
    2MOL   H846 1808   7.409   4.863   1.692  0.8145 -2.6916 -0.5316
    2MOL   H847 1809   7.277   4.595   1.498  0.9785  0.5288 -1.4469
    2MOL   H848 1810   7.277   4.669   1.639  0.0633 -0.1896  0.7509
    2MOL   H849 1811   7.514   4.638   1.685 -0.1822  0.0267 -1.1996
    2MOL   H850 1812   7.648   4.407   1.711 -0.3349  0.2826  0.1953
    2MOL   H851 1813   7.717   4.545   1.629  0.8308 -1.0115  0.9309
    2MOL   H852 1814   7.708   4.325   1.438  0.6752  0.1705 -1.1378
    2MOL   H853 1815   0.009   4.281   1.578  0.7255  0.4999  0.3305
    2MOL   H854 1816   0.140   4.513   1.527 -1.4267  1.5556  0.1210
    2MOL   H855 1817   0.049   4.515   1.384  0.6585 -1.0589 -0.5090
    2MOL   H856 1818   0.194   4.268   1.453 -0.4929  0.1871  0.5181
    2MOL   H857 1819   0.135   4.315   1.289 -0.7452  1.1685  0.9259
    2MOL   H858 1820   0.287   4.490   1.269 -0.8094  0.3511  1.2470
    2MOL   H859 1821   0.359   4.470   1.426 -0.4384  0.5907  0.6463
    2MOL   H860 1822   0.352   4.261   1.194  1.7377  0.8079 -1.6189
    2MOL   H861 1823   0.463   4.267   1.342 -1.3111  0.3066  1.5149
    2MOL   H862 1824   0.553   4.482   1.251  0.7591 -1.2950  1.7208
    2MOL   H863 1825   0.486   4.435   1.095 -0.0620 -1.2437 -0.7338
    2MOL   H864 1826   0.698   4.290   1.255 -1.3470  0.7809  1.2673
    2MOL   H865 1827   0.611   4.207   1.134 -1.7074  0.5320  0.7513
    2MOL   N866 1828   0.859   4.313   1.056  0.4454 -0.6047  0.1152
    2MOL   C867 1829   0.977   4.370   0.980  0.1289 -0.2739  0.0771
    2MOL   C868 1830   1.036   4.271   0.879 -0.1474  0.4059 -0.0719
    2MOL   C869 1831   0.954   4.242   0.763  0.7114 -0.1242 -0.0200
    2MOL   C870 1832   0.996   4.152   0.666 -0.1383  0.2850  0.2469
    2MOL   C871 1833   1.115   4.081   0.681  0.2876 -0.3146 -0.5784
    2MOL   C872 1834   1.189   4.103   0.796  0.4779 -0.3152  0.1236
    2MOL   C873 1835   1.159   4.195   0.902 -0.0386  1.0267  0.6260
    2MOL   C874 1836   1.240   4.197   1.027 -0.6023 -0.6485 -0.0731
    2MOL   N875 1837   1.285   4.064   1.071  0.0482 -0.0639  0.5412
    2MOL   C876 1838   1.322   4.033   1.197  0.5581  0.2536  0.2379
    2MOL   O877 1839   1.320   4.112   1.294  0.0449  0.5849  0.1089
    2MOL   C878 1840   1.378   3.891   1.206  0.2772 -0.0250 -0.2464
    2MOL   C879 1841   1.284   3.783   1.264  0.5121 -0.8624 -0.4084
    2MOL   C880 1842   1.172   3.729   1.173  0.1786  0.2981 -0.1294
    2MOL   C881 1843   1.070   3.629   1.239  0.0062  0.3338 -0.2225
    2MOL   C882 1844   0.968   3.588   1.136  0.9352  0.3138 -0.6454
    2MOL   C883 1845   0.888   3.466   1.189  0.5684 -0.1827 -0.3627
    2MOL   C884 1846   0.782   3.423   1.089  0.7182 -0.4403  0.2390
    2MOL   C885 1847   0.819   3.332   0.970 -0.0153 -0.4235  0.2362
    2MOL   C886 1848   0.854   3.183   1.004  0.0077  0.2388  0.2679
    2MOL   O887 1849   0.805   3.127   1.103  0.5232 -0.0604  0.5604
    2MOL   H888 1850   0.874   4.220   1.093 -2.1503 -0.6781  1.0719
    2MOL   H889 1851   0.939   4.452   0.920 -2.1283 -0.9721  0.4935
    2MOL   H890 1852   1.064   4.405   1.034 -0.1296  0.1657  0.2067
    2MOL   H891 1853   0.859   4.292   0.749  0.1157 -1.3653 -0.4127
    2MOL   H892 1854   0.937   4.129   0.579  0.5347 -0.9588  0.1040
    2MOL   H893 1855   1.165   4.021   0.606 -0.4829 -0.0315 -1.3278
    2MOL   H894 1856   1.279   4.043   0.805  0.1870 -0.9238 -0.9246
    2MOL   H895 1857   1.190   4.243   1.112 -3.0908  0.9671 -2.3285
    2MOL   H896 1858   1.336   4.249   1.022 -1.1530  1.0889  4.7941
    2MOL   H897 1859   1.296   3.989   1.004  0.1219  2.0844 -1.9105
    2MOL   H898 1860   1.475   3.893   1.256  1.1844  0.1106 -1.9951
    2MOL   H899 1861   1.410   3.854   1.108 -0.0947 -0.3325 -0.2525
    2MOL   H900 1862   1.248   3.815   1.362  2.6987 -0.7252  0.3675
    2MOL   H901 1863   1.350   3.701   1.292  0.6156 -0.2969  1.0327
    2MOL   H902 1864   1.114   3.806   1.121  2.5524 -0.7237 -4.4880
    2MOL   H903 1865   1.219   3.677   1.090  1.4508 -0.0519  0.7983
    2MOL   H904 1866   1.113   3.536   1.277 -3.2119 -1.3397 -0.4959
    2MOL   H905 1867   1.017   3.667   1.326  1.2373 -0.1513  0.7466
    2MOL   H906 1868   0.906   3.664   1.087  0.8378 -0.4339 -1.6823
    2MOL   H907 1869   1.028   3.549   1.055  1.4655  0.5095 -0.3515
    2MOL   H908 1870   0.831   3.488   1.279  1.0890  1.9046 -0.5271
    2MOL   H909 1871   0.959   3.385   1.207 -0.9405 -1.4972 -0.1065
    2MOL   H910 1872   0.704   3.372   1.145 -0.3465  1.8491  0.8712
    2MOL   H911 1873   0.734   3.511   1.047  0.1613 -1.5846 -1.5693
    2MOL   H912 1874   0.732   3.329   0.904 -0.2105  1.9170  0.3460
    2MOL   H913 1875   0.894   3.373   0.901 -1.6763  0.7452 -0.9147
    2MOL   N914 1876   0.946   3.132   0.921  0.1782  0.1662  0.1468
    2MOL   C915 1877   0.973   2.984   0.919  0.5846  0.7214  0.1149
    2MOL   C916 1878   0.892   2.898   0.817 -0.0472 -0.2084  0.0033
    2MOL   C917 1879   0.832   2.967   0.711  0.2394  0.0805 -0.8572
    2MOL   C918 1880   0.736   2.898   0.621 -0.2087 -0.6749  0.4417
    2MOL   C919 1881   0.725   2.761   0.634 -0.6822  0.6510  0.2494
    2MOL   C920 1882   0.793   2.688   0.734  0.3751  0.8516  0.3654
    2MOL   C921 1883   0.871   2.756   0.827  0.0153  0.0191  0.1026
    2MOL   C922 1884   0.940   2.672   0.936  0.1497  0.0826  0.5893
    2MOL   N923 1885   1.081   2.654   0.918 -1.3550 -0.6141 -0.1982
    2MOL   C924 1886   1.169   2.686   1.011  0.0693  0.4812 -1.1514
    2MOL   O925 1887   1.136   2.736   1.120  0.7401 -0.1088 -0.5465
    2MOL   C926 1888   1.314   2.646   0.983  1.0170 -0.1991 -0.2784
    2MOL   C927 1889   1.409   2.628   1.105 -0.4775  0.4788  0.4193
    2MOL   C928 1890   1.555   2.586   1.084  0.0129  0.1641 -1.1825
    2MOL   C929 1891   1.560   2.437   1.049 -0.3986 -0.6936  0.4366
    2MOL   C930 1892   1.695   2.376   1.047  0.0808 -0.0727 -0.0640
    2MOL   C931 1893   1.678   2.226   1.072  0.1700 -0.1155  0.7772
    2MOL   C932 1894   1.777   2.140   0.999 -0.7606  0.1805 -0.1432
    2MOL   C933 1895   1.733   1.992   0.978 -0.1077  0.0481  0.2864
    2MOL   C934 1896   1.745   1.900   1.103 -0.2041 -0.6639 -0.4172
    2MOL   O935 1897   1.705   1.937   1.212 -0.1471 -0.0078 -0.0997
    2MOL   H936 1898   0.977   3.185   0.841 -2.3758  1.8435  0.2098
    2MOL   H937 1899   1.076   2.968   0.889  0.3269 -0.0939 -0.3227
    2MOL   H938 1900   0.955   2.941   1.018 -0.8552  0.9186 -0.0437
    2MOL   H939 1901   0.839   3.073   0.695  1.1347  0.0641 -0.5490
    2MOL   H940 1902   0.685   2.955   0.544 -1.9968 -3.5247 -0.5263
    2MOL   H941 1903   0.664   2.701   0.568 -0.1164  1.8117 -1.3626
    2MOL   H942 1904   0.772   2.583   0.743  1.9058  0.5728  0.8483
    2MOL   H943 1905   0.890   2.575   0.931 -0.3882  0.3994 -0.4427
    2MOL   H944 1906   0.910   2.718   1.030 -2.3588 -1.0717  0.3989
    2MOL   H945 1907   1.114   2.626   0.827  0.1266  0.7019 -0.0891
    2MOL   H946 1908   1.353   2.705   0.899  0.0193  0.5317 -0.2438
    2MOL   H947 1909   1.301   2.549   0.935 -3.2236  1.4626 -2.8362
    2MOL   H948 1910   1.362   2.571   1.185  0.3225  1.7971  1.8449
    2MOL   H949 1911   1.412   2.728   1.149 -0.9073  0.2404  0.9956
    2MOL   H950 1912   1.598   2.643   1.001 -0.4125  1.4088 -0.5622
    2MOL   H951 1913   1.610   2.598   1.177 -0.5506 -0.6948 -0.7283
    2MOL   H952 1914   1.503   2.385   1.126 -2.6655  2.5348  1.0278
    2MOL   H953 1915   1.505   2.410   0.959 -0.5099 -2.5870  1.0527
    2MOL   H954 1916   1.768   2.411   1.119  0.0601  1.7618 -0.8837
    2MOL   H955 1917   1.738   2.389   0.947 -0.1935 -0.6551 -0.2596
    2MOL   H956 1918   1.687   2.202   1.178 -0.8322 -1.4458  0.5819
    2MOL   H957 1919   1.584   2.180   1.043  0.4471  0.3001 -0.8015
    2MOL   H958 1920   1.874   2.153   1.045 -0.4269 -1.4472 -0.3620
    2MOL   H959 1921   1.783   2.186   0.900  0.1948 -2.0643 -1.1617
    2MOL   H960 1922   1.790   1.955   0.892  2.5544  1.7854  1.2451
    2MOL   H961 1923   1.631   1.996   0.941  0.6112 -1.1850 -1.9260
    2MOL   H962 1924   1.802   1.808   1.090 -0.9359 -1.3591  1.0974
    3MOL     N1 1925   2.487   0.429   3.644  0.1132  0.0382  0.0415
    3MOL     C2 1926   2.461   0.292   3.626  0.0979 -0.0515 -0.2641
    3MOL     C3 1927   2.422   0.233   3.759  0.1865 -0.2264  0.0143
    3MOL     C4 1928   2.285   0.215   3.781 -0.9076  0.0847 -0.0856
    3MOL     C5 1929   2.235   0.173   3.906  0.6599 -0.5371  0.5445
    3MOL     C6 1930   2.331   0.142   4.006  0.1206 -0.2444  0.3210
    3MOL     C7 1931   2.467   0.160   3.982 -0.6477  0.3724  0.2536
    3MOL     C8 1932   2.517   0.205   3.859  0.4960 -0.2284  0.3645
    3MOL     C9 1933   2.668   0.212   3.832  0.1768 -0.1974  0.6368
    3MOL    N10 1934   2.747   0.156   3.938 -0.3067  0.2043  0.0912
    3MOL    C11 1935   2.853   0.075   3.921  1.3732 -0.3636  0.4129
    3MOL    O12 1936   2.873   0.024   3.814  0.0824 -0.3861  0.1835
    3MOL    C13 1937   2.929   0.033   4.040 -0.4948 -0.0374  0.4443
    3MOL    C14 1938   3.074   0.098   4.041 -0.1525  0.3163  0.0413
    3MOL    C15 1939   3.166   0.048   3.930 -0.0034  0.0160  0.0486
    3MOL    C16 1940   3.312   0.090   3.948 -0.1612 -0.1382 -0.5751
    3MOL    C17 1941   3.379   0.000   4.057  0.3017 -0.7669 -0.1162
    3MOL    C18 1942   3.526   0.012   4.040 -0.5146  0.6038 -0.2949
    3MOL    C19 1943   3.602   7.687   4.118  0.4858 -0.0489  0.4367
    3MOL    C20 1944   3.756   7.687   4.101  0.1272  0.9146 -0.2182
    3MOL    C21 1945   3.826   0.015   4.164 -0.1890  0.4720  0.4626
    3MOL    O22 1946   3.759   0.104   4.216  0.0040  0.3624 -0.4771
    3MOL    H23 1947   2.530   0.444   3.734  0.0244  0.3118  0.0401
    3MOL    H24 1948   2.381   0.271   3.555 -0.2475  1.3284 -0.2894
    3MOL    H25 1949   2.552   0.247   3.588  0.3164 -1.3702  1.7248
    3MOL    H26 1950   2.222   0.234   3.695 -0.6192 -2.8367 -0.9963
    3MOL    H27 1951   2.129   0.156   3.919  0.5434 -0.9246 -0.9138
    3MOL    H28 1952   2.288   0.119   4.102  0.0919  0.6224  0.5196
    3MOL    H29 1953   2.533   0.136   4.064 -3.1708 -0.8151  1.9829
    3MOL    H30 1954   2.687   0.320   3.829 -0.9905  0.0009  0.2458
    3MOL    H31 1955   2.695   0.173   3.734 -1.5724  1.3691 -0.5126
    3MOL    H32 1956   2.727   0.193   4.030 -0.2323  0.0789  0.1574
    3MOL    H33 1957   2.939   7.715   4.056 -0.0589  0.0673  0.8845
    3MOL    H34 1958   2.875   0.056   4.132 -1.3856 -1.4644  0.2872
    3MOL    H35 1959   3.113   0.064   4.137  0.4752 -0.7789 -0.5762
    3MOL    H36 1960   3.061   0.206   4.037 -0.6588  0.2494 -0.1620
    3MOL    H37 1961   3.140   7.733   3.915 -0.7031  0.2233 -0.1908
    3MOL    H38 1962   3.125   0.093   3.839 -2.9843  1.9677  2.2951
    3MOL    H39 1963   3.367   0.084   3.854  2.2373  0.5811  0.7533
    3MOL    H40 1964   3.314   0.194   3.979 -0.5883 -0.2364 -0.2159
    3MOL    H41 1965   3.353   0.031   4.158 -0.7109 -1.0593 -0.2805
    3MOL    H42 1966   3.360   7.685   4.034  1.0140 -1.1882  1.1833
    3MOL    H43 1967   3.552   0.108   4.083  1.4683  0.1921 -0.5323
    3MOL    H44 1968   3.561   0.012   3.937  0.4261  0.6828  0.0192
    3MOL    H45 1969   3.580   7.696   4.225  1.0195  0.8389  0.4701
    3MOL    H46 1970   3.550   7.595   4.088  0.0058  0.9886 -2.0091
    3MOL    H47 1971   3.776   7.694   3.994 -0.5962 -0.6562 -0.4562
    3MOL    H48 1972   3.809   7.601   4.142 -1.4407  0.1302  0.1802
    3MOL    H49 1973   2.565   0.444   3.582 -0.3893 -2.5251 -1.2618
    3MOL    N50 1974   3.962   0.008   4.158 -0.1149 -0.9141  0.3082
    3MOL    C51 1975   4.056   0.104   4.222 -0.5238 -0.1498 -0.1507
    3MOL    C52 1976   4.128   0.054   4.346  0.1402 -0.1762 -0.0860
    3MOL    C53 1977   4.126   7.710   4.386 -1.2156 -0.2878  0.2035
    3MOL    C54 1978   4.204   7.665   4.494  0.8622 -0.5475 -0.6618
    3MOL    C55 1979   4.278   7.755   4.573  0.0241  0.7264 -0.8760
    3MOL    C56 1980   4.291   0.098   4.528 -0.2941  0.2561  0.6353
    3MOL    C57 1981   4.213   0.143   4.420 -0.2991 -0.7317 -0.2068
    3MOL    C58 1982   4.229   0.290   4.376  0.0678  0.4513 -0.8128
    3MOL    N59 1983   4.366   0.313   4.331 -0.2394  0.1446  0.0761
    3MOL    C60 1984   4.457   0.368   4.414 -0.5530 -0.8942 -0.2130
    3MOL    O61 1985   4.436   0.408   4.527 -0.2165  0.3810 -0.7636
    3MOL    C62 1986   4.604   0.372   4.360 -0.0991 -0.1306 -0.3071
    3MOL    C63 1987   4.653   0.515   4.330 -0.5397 -0.5606  0.2649
    3MOL    C64 1988   4.789   0.507   4.267 -0.4541  0.3415  0.2560
    3MOL    C65 1989   4.860   0.640   4.259 -0.0415  0.0300  0.7067
    3MOL    C66 1990   4.797   0.747   4.175  0.4526  0.4040 -0.0468
    3MOL    C67 1991   4.891   0.867   4.166  0.4527  0.7078 -0.0733
    3MOL    C68 1992   4.867   0.971   4.057 -0.3364 -0.8302 -0.4096
    3MOL    C69 1993   4.987   1.059   4.028 -0.7198 -0.7270 -0.6522
    3MOL    C70 1994   4.989   1.184   4.117  0.5509  0.5422 -0.0943
    3MOL    O71 1995   4.900   1.264   4.121  0.1255  0.2914 -0.2833
    3MOL    H72 1996   3.992   7.705   4.135  1.6061 -0.2882 -0.0258
    3MOL    H73 1997   4.002   0.196   4.245 -1.0524 -0.1360 -1.4028
    3MOL    H74 1998   4.132   0.121   4.145  1.2538 -0.2545  1.5561
    3MOL    H75 1999   4.064   7.640   4.332  0.6991 -1.4779 -0.5037
    3MOL    H76 2000   4.198   7.560   4.522 -0.1964 -0.2495  0.2302
    3MOL    H77 2001   4.332   7.721   4.660 -1.4098 -0.0820 -0.2970
    3MOL    H78 2002   4.354   0.171   4.578  1.6990  0.2805 -1.7860
    3MOL    H79 2003   4.203   0.355   4.459  3.2397  1.1099 -0.2801
    3MOL    H80 2004   4.168   0.308   4.287 -1.7624 -0.4153  0.2279
    3MOL    H81 2005   4.381   0.295   4.233  0.9829 -0.7244  0.4139
    3MOL    H82 2006   4.601   0.319   4.265 -0.1416  2.8989 -2.0352
    3MOL    H83 2007   4.673   0.315   4.423  1.4993 -0.9415 -2.7329
    3MOL    H84 2008   4.665   0.561   4.427 -0.0658 -1.6993  0.7615
    3MOL    H85 2009   4.574   0.575   4.286  0.7916  1.9704  1.2599
    3MOL    H86 2010   4.848   0.438   4.327  0.7447  0.8303 -0.3346
    3MOL    H87 2011   4.778   0.454   4.173  1.1978  1.8946 -0.8451
    3MOL    H88 2012   4.881   0.686   4.355  2.6121  0.4935 -0.0739
    3MOL    H89 2013   4.964   0.624   4.233  0.0023 -0.5143  1.2081
    3MOL    H90 2014   4.785   0.707   4.074 -1.1084 -1.4816  0.8451
    3MOL    H91 2015   4.693   0.768   4.201  0.4949  0.3454  0.1697
    3MOL    H92 2016   4.993   0.829   4.156  1.3252  3.3293 -1.5667
    3MOL    H93 2017   4.897   0.917   4.262 -2.9522  0.2993  0.4401
    3MOL    H94 2018   4.777   1.033   4.069  1.8521  2.2877  0.4632
    3MOL    H95 2019   4.852   0.923   3.960 -1.6326 -0.5403 -0.3644
    3MOL    H96 2020   4.968   1.112   3.934 -3.2103  0.2114  0.3570
    3MOL    H97 2021   5.082   1.005   4.028 -1.0606 -1.3942  1.9536
    3MOL    N98 2022   5.090   1.201   4.205 -0.1555 -0.4146  0.1798
    3MOL    C99 2023   5.099   1.300   4.306  0.1507 -0.0991  0.4411
    3MOL   C100 2024   5.231   1.266   4.375 -0.3733  0.3858 -0.6058
    3MOL   C101 2025   5.338   1.352   4.353 -0.3218 -0.1836  0.0513
    3MOL   C102 2026   5.470   1.332   4.406  0.3170 -0.9243 -0.1658
    3MOL   C103 2027   5.473   1.229   4.505 -0.4766  0.0359 -0.0531
    3MOL   C104 2028   5.358   1.148   4.530 -0.5062 -0.2617  0.5529
    3MOL   C105 2029   5.231   1.169   4.473 -0.0222  0.0579 -0.3375
    3MOL   C106 2030   5.119   1.078   4.512 -0.8444 -0.3361  0.5603
    3MOL   N107 2031   5.145   0.936   4.503 -0.7533  0.0481 -0.7109
    3MOL   C108 2032   5.129   0.858   4.608  0.6747  0.5119 -0.6538
    3MOL   O109 2033   5.063   0.889   4.707 -0.1115 -0.1413  0.0697
    3MOL   C110 2034   5.183   0.713   4.602 -0.0597 -0.3008  0.7082
    3MOL   C111 2035   5.117   0.615   4.697 -0.2490 -0.0961  0.4871
    3MOL   C112 2036   4.968   0.587   4.668  0.2312  0.4408 -0.4168
    3MOL   C113 2037   4.925   0.467   4.750  0.1457  0.7017  0.0546
    3MOL   C114 2038   4.789   0.413   4.707  0.6448  0.8608 -0.5564
    3MOL   C115 2039   4.738   0.297   4.792 -0.0293  0.6387 -0.2507
    3MOL   C116 2040   4.794   0.153   4.768 -0.1332  0.2110  0.0708
    3MOL   C117 2041   4.743   0.035   4.859 -0.5331  0.0250  0.2071
    3MOL   C118 2042   4.593   0.016   4.840  0.1991  0.0583  0.8850
    3MOL   O119 2043   4.531   0.043   4.737  0.4077  0.8217  0.5448
    3MOL   H120 2044   5.163   1.132   4.217  1.0985  1.2960  2.7528
    3MOL   H121 2045   5.091   1.400   4.262  1.9061 -1.1121 -2.3380
    3MOL   H122 2046   5.021   1.297   4.382  0.0343 -3.8199  0.2909
    3MOL   H123 2047   5.328   1.421   4.270  0.6479  0.5134  0.5006
    3MOL   H124 2048   5.549   1.396   4.372  1.7726 -2.4072  0.3644
    3MOL   H125 2049   5.572   1.207   4.542  0.2274  1.8263 -0.7894
    3MOL   H126 2050   5.385   1.071   4.600 -0.2586  0.8458  1.6962
    3MOL   H127 2051   5.033   1.097   4.447 -0.9247  0.2354  0.8329
    3MOL   H128 2052   5.079   1.113   4.608 -0.0706  1.6561  0.1702
    3MOL   H129 2053   5.206   0.898   4.432  0.3607 -0.3604  0.4551
    3MOL   H130 2054   5.291   0.714   4.619  0.0166  1.7935  0.1641
    3MOL   H131 2055   5.163   0.672   4.503 -3.0943 -1.7914  1.8891
    3MOL   H132 2056   5.121   0.651   4.800 -0.4116 -2.1477  1.2175
    3MOL   H133 2057   5.165   0.517   4.697  0.8179  0.4152  1.3350
    3MOL   H134 2058   4.912   0.679   4.678 -0.5933 -0.0420 -0.5428
    3MOL   H135 2059   4.961   0.549   4.567 -0.3515 -1.0922  0.1811
    3MOL   H136 2060   4.995   0.384   4.745 -1.5861 -0.6642 -2.0474
    3MOL   H137 2061   4.910   0.487   4.856 -1.4687 -1.7067  0.2906
    3MOL   H138 2062   4.719   0.495   4.724 -0.4230 -0.0930 -0.2777
    3MOL   H139 2063   4.800   0.389   4.601  0.3336  0.7590 -0.5672
    3MOL   H140 2064   4.631   0.294   4.775  0.1079 -0.9503 -0.9073
    3MOL   H141 2065   4.750   0.323   4.897 -0.9547  1.3231 -0.3101
    3MOL   H142 2066   4.784   0.122   4.664  0.3252 -1.2476  0.4424
    3MOL   H143 2067   4.903   0.157   4.779  0.1339 -0.3592 -2.1786
    3MOL   H144 2068   4.757   0.047   4.967 -0.3117  1.0837  0.0685
    3MOL   H145 2069   4.796   7.733   4.834  0.3409  0.3969  0.6762
    3MOL   N146 2070   4.527   7.765   4.945  0.0985 -0.1083 -0.2871
    3MOL   C147 2071   4.395   7.718   4.970  0.2913  0.3643 -0.3080
    3MOL   C148 2072   4.342   7.779   5.101 -0.3826 -0.5100  0.3313
    3MOL   C149 2073   4.327   0.126   5.094  0.3383  0.3193  0.0764
    3MOL   C150 2074   4.272   0.188   5.213  0.4508 -0.7732  0.2831
    3MOL   C151 2075   4.235   0.115   5.327  0.3409 -0.5482  0.2970
    3MOL   C152 2076   4.240   7.768   5.325  0.1430  0.0952 -0.6399
    3MOL   C153 2077   4.297   7.700   5.210  0.3832 -0.1036 -0.7958
    3MOL   C154 2078   4.289   7.545   5.205 -0.7510  0.4099 -0.6327
    3MOL   N155 2079   4.285   7.485   5.341 -1.0791 -0.7662 -0.2235
    3MOL   C156 2080   4.192   7.410   5.390 -1.1989  0.0968 -0.1480
    3MOL   O157 2081   4.097   7.358   5.320 -0.2766  0.1488 -0.4289
    3MOL   C158 2082   4.208   7.385   5.535  0.7781  0.1485 -0.2043
    3MOL   C159 2083   4.070   7.398   5.611 -0.5989  0.5030  0.3974
    3MOL   C160 2084   4.074   7.344   5.754  0.4937  0.6817 -0.4403
    3MOL   C161 2085   4.202   7.356   5.826 -0.3012 -0.2808  0.4817
    3MOL   C162 2086   4.193   7.321   5.975 -0.3677 -0.4141 -0.5187
    3MOL   C163 2087   4.324   7.331   6.055  0.3484 -0.3161  0.4017
    3MOL   C164 2088   4.431   7.244   6.001  1.2355  0.5837  0.5055
    3MOL   C165 2089   4.556   7.244   6.090 -0.0935 -0.0170 -0.9223
    3MOL   C166 2090   4.666   7.148   6.040  0.7021 -0.2798 -0.2045
    3MOL   O167 2091   4.648   7.077   5.943  0.0867  0.0157  0.0529
    3MOL   H168 2092   4.585   7.744   5.026  0.2499 -0.4372 -0.4798
    3MOL   H169 2093   4.403   7.610   4.980  0.5233  0.3853 -0.2769
    3MOL   H170 2094   4.326   7.754   4.893  0.1860 -0.2458 -0.5045
    3MOL   H171 2095   4.359   0.178   5.004  0.5021 -1.6704 -1.0388
    3MOL   H172 2096   4.264   0.296   5.217 -1.9348 -0.8889 -0.1306
    3MOL   H173 2097   4.181   0.164   5.406 -2.3658 -2.1943 -0.4653
    3MOL   H174 2098   4.190   7.712   5.402 -0.4117  0.0576 -1.0290
    3MOL   H175 2099   4.367   7.491   5.152 -0.4103  0.2991 -0.0167
    3MOL   H176 2100   4.197   7.527   5.149 -1.4310  1.0572  0.2539
    3MOL   H177 2101   4.358   7.507   5.407 -2.9798  2.6212  0.9452
    3MOL   H178 2102   4.291   7.437   5.584  0.8519 -0.2790  0.1276
    3MOL   H179 2103   4.243   7.283   5.548  1.3655  0.0559 -2.3241
    3MOL   H180 2104   3.994   7.358   5.544 -0.6312  0.1507  0.6426
    3MOL   H181 2105   4.060   7.505   5.630  0.4590  0.6245  0.2792
    3MOL   H182 2106   3.995   7.394   5.810  0.4044 -0.9784  0.9775
    3MOL   H183 2107   4.047   7.239   5.747 -0.9873  0.8432  2.1438
    3MOL   H184 2108   4.280   7.295   5.781 -0.7582 -1.5741  1.3983
    3MOL   H185 2109   4.243   7.457   5.822  1.1262 -0.9135 -1.2158
    3MOL   H186 2110   4.115   7.388   6.012  0.2439  0.1207 -0.1872
    3MOL   H187 2111   4.142   7.226   5.989 -0.6281 -0.2957 -0.6738
    3MOL   H188 2112   4.308   7.304   6.159 -0.0359  0.6474  0.5948
    3MOL   H189 2113   4.362   7.434   6.053 -0.1211 -0.1537 -2.9859
    3MOL   H190 2114   4.406   7.138   6.001 -0.3376  0.9017 -1.9759
    3MOL   H191 2115   4.472   7.260   5.901 -1.9386 -0.5775 -1.0522
    3MOL   H192 2116   4.525   7.213   6.190  1.7761  0.6675 -0.0997
    3MOL   H193 2117   4.583   7.350   6.088 -2.5978  0.6323 -2.5312
    3MOL   N194 2118   4.773   7.143   6.122  0.0536  0.3600 -0.9599
    3MOL   C195 2119   4.897   7.077   6.084 -0.2854  0.6063  0.6336
    3MOL   C196 2120   4.951   6.991   6.197  0.2019 -0.1087  0.1522
    3MOL   C197 2121   5.070   7.025   6.261  0.3379  0.7448 -0.2387
    3MOL   C198 2122   5.126   6.951   6.366 -0.6928 -1.1858 -0.4972
    3MOL   C199 2123   5.057   6.838   6.407 -0.3315  0.6549 -0.0130
    3MOL   C200 2124   4.939   6.794   6.342 -0.7136 -0.4534 -0.4064
    3MOL   C201 2125   4.890   6.866   6.230 -0.5992  0.3062 -0.6643
    3MOL   C202 2126   4.761   6.802   6.171  0.2964  0.3881  0.8885
    3MOL   N203 2127   4.789   6.671   6.114  0.1902 -0.4774 -0.1742
    3MOL   C204 2128   4.840   6.641   5.995 -0.4435  0.0060  0.0101
    3MOL   O205 2129   4.891   6.721   5.911 -0.6535 -0.1386  0.6722
    3MOL   C206 2130   4.857   6.497   5.965 -0.5109  0.5300  0.5060
    3MOL   C207 2131   5.001   6.446   5.984  0.6898 -0.2812 -0.1536
    3MOL   C208 2132   5.073   6.478   6.123  0.4149 -0.4376  0.3877
    3MOL   C209 2133   5.221   6.451   6.144  0.0106 -0.4181  0.1941
    3MOL   C210 2134   5.275   6.435   6.280  0.5639 -0.7266  0.5464
    3MOL   C211 2135   5.238   6.561   6.366  0.1567 -0.0860  0.0145
    3MOL   C212 2136   5.345   6.588   6.474 -0.2561  0.3164 -0.1505
    3MOL   C213 2137   5.342   6.486   6.590  0.7107  0.1616  0.2675
    3MOL   C214 2138   5.447   6.535   6.686 -0.2398  0.1245  0.4234
    3MOL   O215 2139   5.421   6.638   6.752 -0.5923 -0.5870  0.4905
    3MOL   H216 2140   4.781   7.207   6.200  1.0742 -1.5622  0.5493
    3MOL   H217 2141   4.906   7.010   5.999  2.0620  0.7800  0.6992
    3MOL   H218 2142   4.974   7.150   6.057 -1.5601  1.8951  0.4065
    3MOL   H219 2143   5.112   7.123   6.251  0.3410  0.7207 -0.4584
    3MOL   H220 2144   5.219   6.980   6.413 -0.0437  1.2757 -3.1243
    3MOL   H221 2145   5.107   6.774   6.478 -0.6069 -1.0789 -1.3763
    3MOL   H222 2146   4.901   6.700   6.380 -0.9037  0.9001  3.0087
    3MOL   H223 2147   4.720   6.868   6.094 -2.1048 -0.6816  1.1880
    3MOL   H224 2148   4.687   6.785   6.249 -2.8329  0.4170 -1.9045
    3MOL   H225 2149   4.767   6.592   6.173  1.9840 -0.7932  0.1253
    3MOL   H226 2150   4.836   6.475   5.860  1.6146 -0.3301  0.2279
    3MOL   H227 2151   4.790   6.440   6.029 -0.9447 -1.2573 -1.4556
    3MOL   H228 2152   4.988   6.338   5.979  0.7881 -0.2395 -1.4679
    3MOL   H229 2153   5.061   6.462   5.894 -0.6009 -1.4197 -1.2353
    3MOL   H230 2154   5.057   6.584   6.140  2.9517  0.2103 -1.0256
    3MOL   H231 2155   5.016   6.431   6.203 -0.6862 -1.4978 -1.0114
    3MOL   H232 2156   5.249   6.361   6.090  1.6714 -0.2540  0.7513
    3MOL   H233 2157   5.265   6.537   6.095  1.1361 -0.8122  0.5128
    3MOL   H234 2158   5.247   6.343   6.330  0.2453  0.6163  2.9107
    3MOL   H235 2159   5.382   6.417   6.266  0.4844 -1.3943  0.7978
    3MOL   H236 2160   5.137   6.547   6.406 -0.5148  1.5777 -1.0380
    3MOL   H237 2161   5.225   6.652   6.307  0.6249 -0.3998 -0.5705
    3MOL   H238 2162   5.339   6.689   6.513 -1.2102  0.5904 -0.9635
    3MOL   H239 2163   5.441   6.590   6.423 -0.0275 -0.3840  0.2443
    3MOL   H240 2164   5.241   6.490   6.632  0.8149 -2.9422  0.9392
    3MOL   H241 2165   5.360   6.388   6.546  2.0190 -0.3805  1.9444
    3MOL   N242 2166   5.559   6.472   6.695 -0.4000 -0.5372 -0.0227
    3MOL   C243 2167   5.680   6.507   6.769  0.3050  0.5702 -0.2629
    3MOL   C244 2168   5.808   6.462   6.696 -0.2453 -0.1548  0.5231
    3MOL   C245 2169   5.846   6.330   6.720 -0.7845  0.1904 -0.3723
    3MOL   C246 2170   5.954   6.283   6.645  0.1045  0.8591  0.1795
    3MOL   C247 2171   6.020   6.358   6.552 -0.0625 -0.3082  0.5039
    3MOL   C248 2172   5.973   6.492   6.527  0.5804  0.0825  1.1606
    3MOL   C249 2173   5.867   6.541   6.599 -0.0223  0.0049  0.2025
    3MOL   C250 2174   5.829   6.688   6.588 -0.0254 -0.3504  0.2952
    3MOL   N251 2175   5.894   6.762   6.482 -0.1271 -0.9929 -0.8029
    3MOL   C252 2176   5.848   6.799   6.369 -0.1539 -0.4294  0.3462
    3MOL   O253 2177   5.745   6.765   6.323  0.1970 -0.6323  0.3978
    3MOL   C254 2178   5.940   6.885   6.285 -0.7321  0.4004  0.0935
    3MOL   C255 2179   5.897   6.908   6.147 -0.4403 -0.0488  0.1094
    3MOL   C256 2180   6.015   6.978   6.063  0.3175 -0.7379 -0.8273
    3MOL   C257 2181   6.032   7.132   6.084  0.3364 -0.3909 -0.0824
    3MOL   C258 2182   6.141   7.190   5.992  0.8783 -0.2671 -0.5116
    3MOL   C259 2183   6.183   7.330   6.020  0.0683 -0.1400  0.2420
    3MOL   C260 2184   6.289   7.370   5.911  0.4967  0.6328 -0.0708
    3MOL   C261 2185   6.316   7.522   5.906 -0.1062 -0.3633 -0.7206
    3MOL   C262 2186   6.364   7.580   6.042 -0.6576 -0.3255  0.7649
    3MOL   O263 2187   6.283   7.615   6.122  0.5494 -0.7493  0.3166
    3MOL   H264 2188   5.569   6.395   6.631 -1.3154 -1.0956  0.4874
    3MOL   H265 2189   5.676   6.610   6.806 -0.2679 -0.8833  4.0166
    3MOL   H266 2190   5.679   6.460   6.868  1.8353  1.4723  0.1958
    3MOL   H267 2191   5.787   6.276   6.792 -1.5582 -0.2487 -1.3274
    3MOL   H268 2192   5.992   6.182   6.656  0.1857  1.0885  2.1511
    3MOL   H269 2193   6.097   6.311   6.493 -1.3364 -0.7245 -0.8410
    3MOL   H270 2194   6.032   6.554   6.460 -0.1296 -1.5487 -1.0371
    3MOL   H271 2195   5.858   6.736   6.682 -1.1521 -0.0965  0.5141
    3MOL   H272 2196   5.721   6.693   6.579 -0.2195 -2.1828  1.5454
    3MOL   H273 2197   5.973   6.815   6.513 -0.5397 -0.1287 -1.2213
    3MOL   H274 2198   6.034   6.830   6.273  0.5120  2.5993 -0.6694
    3MOL   H275 2199   5.966   6.978   6.336  1.1990 -0.4241  0.6368
    3MOL   H276 2200   5.804   6.962   6.131 -0.6756 -0.4577  0.0923
    3MOL   H277 2201   5.881   6.808   6.107 -1.2954  0.1302  0.0007
    3MOL   H278 2202   5.975   6.960   5.964 -1.4125  0.5218 -0.3677
    3MOL   H279 2203   6.109   6.922   6.066 -0.9487 -2.9401  3.2811
    3MOL   H280 2204   5.936   7.183   6.081  1.4874  1.8034 -0.1664
    3MOL   H281 2205   6.074   7.130   6.184  1.3773  2.0432 -0.4293
    3MOL   H282 2206   6.235   7.136   6.004 -0.2263 -2.0008  0.4530
    3MOL   H283 2207   6.114   7.197   5.886 -1.5761 -1.7630 -0.0135
    3MOL   H284 2208   6.230   7.334   6.118  0.0110  0.8476  0.2434
    3MOL   H285 2209   6.089   7.386   6.011  0.0095 -0.6352 -2.4643
    3MOL   H286 2210   6.380   7.310   5.922  0.1835  0.5102  1.9991
    3MOL   H287 2211   6.260   7.340   5.810 -2.1408  0.2096  0.7757
    3MOL   H288 2212   6.391   7.551   5.832  0.5412 -0.7881 -0.2416
    3MOL   H289 2213   6.231   7.579   5.870  0.6432  0.1652 -1.6556
    3MOL   N290 2214   6.491   7.571   6.077 -0.4285  0.0612 -0.5305
    3MOL   C291 2215   6.538   7.620   6.206 -0.3414  0.4932 -0.1017
    3MOL   C292 2216   6.687   7.603   6.201  0.6810 -0.0158  0.7049
    3MOL   C293 2217   6.767   7.700   6.132 -0.4477 -0.3152 -0.3367
    3MOL   C294 2218   6.905   7.681   6.134 -0.4294 -0.8081  0.5221
    3MOL   C295 2219   6.963   7.569   6.196  0.1740  0.3225 -0.2430
    3MOL   C296 2220   6.884   7.466   6.250 -0.3157 -0.2672 -0.1389
    3MOL   C297 2221   6.743   7.485   6.254  0.1984  0.0588 -0.0150
    3MOL   C298 2222   6.662   7.377   6.319 -0.3138  0.3155 -0.1223
    3MOL   N299 2223   6.611   7.288   6.220 -0.1644  0.6896  0.1554
    3MOL   C300 2224   6.548   7.172   6.243  0.9784  0.7015 -0.0108
    3MOL   O301 2225   6.524   7.136   6.357 -0.2148  0.2027  0.1205
    3MOL   C302 2226   6.519   7.079   6.119 -1.0241 -0.9932 -0.4579
    3MOL   C303 2227   6.599   6.949   6.124  0.1111  0.1714 -0.3890
    3MOL   C304 2228   6.747   6.966   6.081 -0.2185 -0.1898 -0.0938
    3MOL   C305 2229   6.829   6.832   6.090  0.3569 -0.5189 -0.3032
    3MOL   C306 2230   6.976   6.863   6.081 -0.2718  0.3344  0.0779
    3MOL   C307 2231   7.066   6.750   6.139  0.3926  0.5988  0.5300
    3MOL   C308 2232   7.214   6.788   6.144  0.0520  0.3149 -0.1928
    3MOL   C309 2233   7.305   6.688   6.226  0.1161 -0.0261  0.5545
    3MOL   C310 2234   7.426   6.745   6.297  0.8702  0.9138  0.0529
    3MOL   O311 2235   7.445   6.867   6.301  0.1925  0.1480  0.1779
    3MOL   H312 2236   6.564   7.529   6.022 -1.5895  0.7680 -2.6702
    3MOL   H313 2237   6.501   7.720   6.232  0.9275  0.6095  1.3261
    3MOL   H314 2238   6.486   7.555   6.276  0.1085  0.4345  0.1836
    3MOL   H315 2239   6.728   0.001   6.089 -2.1485 -0.7363  0.2746
    3MOL   H316 2240   6.969   7.752   6.083  0.6145 -0.1737  2.6716
    3MOL   H317 2241   7.070   7.560   6.188  0.1166  1.1658 -2.1272
    3MOL   H318 2242   6.924   7.376   6.295 -1.6876 -0.9804 -0.3261
    3MOL   H319 2243   6.589   7.421   6.387  0.8961  2.7957 -0.3393
    3MOL   H320 2244   6.732   7.328   6.387  0.5501 -0.0727 -1.2889
    3MOL   H321 2245   6.633   7.306   6.123 -0.6875 -1.6355 -0.4255
    3MOL   H322 2246   6.412   7.057   6.125 -0.7888 -1.4937  2.2476
    3MOL   H323 2247   6.547   7.135   6.029  1.4346 -0.8867  0.3487
    3MOL   H324 2248   6.562   6.882   6.046  1.7871  1.9149 -2.7489
    3MOL   H325 2249   6.607   6.904   6.223  1.2207  2.5149  0.6394
    3MOL   H326 2250   6.798   7.045   6.137 -2.8506  1.6217 -0.2016
    3MOL   H327 2251   6.755   7.006   5.980 -2.6556 -1.4663 -0.8179
    3MOL   H328 2252   6.804   6.790   6.187 -0.5653  0.2421 -0.2065
    3MOL   H329 2253   6.794   6.766   6.010  0.2303 -1.1445  0.2601
    3MOL   H330 2254   7.004   6.886   5.979 -0.2916  1.5177  0.3285
    3MOL   H331 2255   7.011   6.946   6.143 -1.2261  0.3703  0.5795
    3MOL   H332 2256   7.041   6.647   6.113 -2.7447  1.4354 -0.0433
    3MOL   H333 2257   7.034   6.753   6.243  0.3426  0.1436  0.5320
    3MOL   H334 2258   7.254   6.791   6.043  0.2667 -0.6350 -0.1417
    3MOL   H335 2259   7.218   6.892   6.178 -0.5746  1.1012 -2.4541
    3MOL   H336 2260   7.246   6.639   6.303  2.1047 -2.2595  0.7052
    3MOL   H337 2261   7.329   6.603   6.162 -3.3782 -1.4443  1.0517
    3MOL   N338 2262   7.505   6.647   6.352  0.2890  0.6136 -0.1988
    3MOL   C339 2263   7.627   6.676   6.426  0.0029  0.6322  0.2430
    3MOL   C340 2264   7.606   6.734   6.565 -0.0857 -0.0293  0.4186
    3MOL   C341 2265   7.484   6.715   6.638 -0.4847  0.7348  0.0132
    3MOL   C342 2266   7.473   6.776   6.767  0.0672  0.1548 -0.1343
    3MOL   C343 2267   7.577   6.850   6.816 -0.4362  0.3601  0.0785
    3MOL   C344 2268   7.701   6.860   6.753 -0.2827  0.1026 -0.1112
    3MOL   C345 2269   7.718   6.800   6.625  0.0629  0.0622 -0.5346
    3MOL   C346 2270   0.069   6.806   6.555 -0.0456  0.1325  0.1038
    3MOL   N347 2271   0.067   6.900   6.441 -0.7334 -0.4509 -0.6279
    3MOL   C348 2272   0.135   6.866   6.329  0.5529  0.0182 -0.2816
    3MOL   O349 2273   0.218   6.771   6.324  0.4650 -0.7184 -0.2070
    3MOL   C350 2274   0.118   6.956   6.204 -0.3159 -0.3727 -0.3920
    3MOL   C351 2275   7.769   6.943   6.139 -0.2737  0.2330  0.7242
    3MOL   C352 2276   7.765   6.965   5.981 -1.5570 -0.0477 -0.7761
    3MOL   C353 2277   7.647   6.902   5.912  0.0488 -0.1551 -0.2956
    3MOL   C354 2278   7.514   6.976   5.939 -0.2847 -0.2593 -0.3287
    3MOL   C355 2279   7.408   6.934   5.830  0.3433  0.3330  0.6872
    3MOL   C356 2280   7.271   7.015   5.849  0.2877  0.0153 -0.0229
    3MOL   C357 2281   7.154   6.988   5.747  0.0430  0.2458 -0.0693
    3MOL   C358 2282   7.180   7.025   5.605 -0.1486 -0.6206 -0.7574
    3MOL   O359 2283   7.149   7.137   5.565 -0.1362 -0.0925 -0.0213
    3MOL   H360 2284   7.469   6.552   6.351 -0.7689  1.0236 -1.6867
    3MOL   H361 2285   7.690   6.589   6.444  0.0124  0.2051 -1.7281
    3MOL   H362 2286   7.678   6.742   6.357 -2.1550 -1.2993 -3.3769
    3MOL   H363 2287   7.403   6.661   6.591  0.7775 -2.8668  1.8159
    3MOL   H364 2288   7.381   6.774   6.823  0.3357 -4.4657  0.3591
    3MOL   H365 2289   7.575   6.895   6.914  0.4919  1.2963 -0.3188
    3MOL   H366 2290   7.776   6.917   6.805 -1.2270 -0.2803  1.6773
    3MOL   H367 2291   0.097   6.708   6.518 -0.5355  0.7184 -1.8866
    3MOL   H368 2292   0.142   6.849   6.624 -1.9595 -0.3097  2.4702
    3MOL   H369 2293   0.015   6.987   6.443 -0.2823 -0.1930 -0.0391
    3MOL   H370 2294   0.190   6.918   6.132  0.4294  0.3227 -0.0162
    3MOL   H371 2295   0.147   7.060   6.214 -3.8462  0.6759 -0.2574
    3MOL   H372 2296   7.704   7.016   6.187  0.0544  1.3391 -0.4552
    3MOL   H373 2297   7.742   6.840   6.158  1.8824 -0.5450 -0.2020
    3MOL   H374 2298   7.773   7.073   5.965  2.2340 -0.1906 -0.4257
    3MOL   H375 2299   0.069   6.924   5.943 -0.5189  1.8810 -0.3459
    3MOL   H376 2300   7.634   6.797   5.938 -0.5681  0.1079  0.4983
    3MOL   H377 2301   7.664   6.907   5.804 -1.9706  2.0466 -0.5550
    3MOL   H378 2302   7.489   6.945   6.040  0.6147  2.1985  0.7061
    3MOL   H379 2303   7.523   7.085   5.938  0.4859 -0.3066  0.4897
    3MOL   H380 2304   7.377   6.829   5.827 -0.6560  0.5361  3.0263
    3MOL   H381 2305   7.446   6.958   5.731  0.0363 -2.0768 -0.0560
    3MOL   H382 2306   7.222   7.001   5.945 -2.2138 -3.9304 -1.7003
    3MOL   H383 2307   7.299   7.119   5.831  3.0504 -0.7180 -0.2749
    3MOL   H384 2308   7.069   7.044   5.787  0.9736  1.6178  0.0047
    3MOL   H385 2309   7.118   6.885   5.753 -0.7247  0.3553 -2.5282
    3MOL   N386 2310   7.237   6.926   5.525  0.1902 -0.9777 -0.3305
    3MOL   C387 2311   7.288   6.953   5.397 -0.2264 -0.0485  0.5556
    3MOL   C388 2312   7.196   6.906   5.281 -0.1563  0.5308 -0.3813
    3MOL   C389 2313   7.092   6.813   5.308  0.5230  0.1368 -0.3376
    3MOL   C390 2314   6.998   6.763   5.214 -0.2962 -0.3098 -0.2731
    3MOL   C391 2315   7.018   6.805   5.082  0.5763  0.5051 -0.2449
    3MOL   C392 2316   7.119   6.894   5.046 -0.5121 -0.7580  0.5953
    3MOL   C393 2317   7.220   6.936   5.148 -0.0759  0.2319 -0.0794
    3MOL   C394 2318   7.348   7.019   5.110  0.0906  0.9500 -0.1189
    3MOL   N395 2319   7.370   7.044   4.966  0.0915  0.2270 -0.1102
    3MOL   C396 2320   7.433   6.955   4.893  0.1645  0.7256  0.2456
    3MOL   O397 2321   7.473   6.843   4.940 -0.3443 -0.2799 -0.3859
    3MOL   C398 2322   7.466   6.984   4.744  0.7701 -0.3446 -0.3078
    3MOL   C399 2323   7.474   6.864   4.654 -0.9307 -0.2008 -0.3580
    3MOL   C400 2324   7.349   6.776   4.668  0.0594  0.2303 -0.3278
    3MOL   C401 2325   7.349   6.666   4.556 -0.1061 -0.6412  0.1267
    3MOL   C402 2326   7.448   6.567   4.592 -0.0592 -1.1150 -0.1740
    3MOL   C403 2327   7.441   6.443   4.501  0.5118  0.1498 -0.1184
    3MOL   C404 2328   7.527   6.321   4.539 -0.7807 -0.0878  0.5738
    3MOL   C405 2329   7.498   6.194   4.455  0.9040  0.4129 -0.0546
    3MOL   C406 2330   7.608   6.086   4.473 -0.3232 -0.2837 -0.3830
    3MOL   O407 2331   7.719   6.119   4.516  0.2951  0.1765 -0.2680
    3MOL   H408 2332   7.252   6.834   5.564 -1.5989 -1.2996 -0.3831
    3MOL   H409 2333   7.303   7.059   5.378  1.2686 -0.3194  0.0987
    3MOL   H410 2334   7.379   6.896   5.375 -0.0667  0.6688 -0.6672
    3MOL   H411 2335   7.080   6.762   5.403  0.2039  0.7286 -0.0590
    3MOL   H412 2336   6.919   6.695   5.241  0.5240 -1.3153 -0.3580
    3MOL   H413 2337   6.952   6.770   5.004  0.8320 -2.6033  0.8929
    3MOL   H414 2338   7.129   6.934   4.946 -1.8471 -0.0158  0.7365
    3MOL   H415 2339   7.431   6.977   5.168 -0.5380 -0.8000 -0.4472
    3MOL   H416 2340   7.335   7.118   5.154 -0.7679  0.7204  0.1454
    3MOL   H417 2341   7.359   7.135   4.924  0.3838 -0.2385 -1.2148
    3MOL   H418 2342   7.397   7.055   4.699 -1.3603 -1.1323  1.6204
    3MOL   H419 2343   7.563   7.033   4.740  0.9852 -0.8015 -0.7138
    3MOL   H420 2344   7.570   6.814   4.672 -1.6224 -1.2426  0.5080
    3MOL   H421 2345   7.491   6.890   4.550 -0.1409 -1.5392 -0.5807
    3MOL   H422 2346   7.258   6.837   4.660 -0.5128 -0.3307  1.6806
    3MOL   H423 2347   7.337   6.734   4.768  0.6205  0.6372 -0.0885
    3MOL   H424 2348   7.243   6.646   4.539 -0.2495  1.2329 -1.5028
    3MOL   H425 2349   7.379   6.708   4.459  1.5346 -3.1462 -0.4844
    3MOL   H426 2350   7.544   6.618   4.583 -0.7888  0.0562 -1.5606
    3MOL   H427 2351   7.439   6.536   4.696  0.9897  0.4418  0.3963
    3MOL   H428 2352   7.453   6.470   4.396 -0.5416  1.8434  0.1617
    3MOL   H429 2353   7.341   6.400   4.502  1.0661 -1.1447  1.0914
    3MOL   H430 2354   7.521   6.299   4.645  1.6199 -0.6471  0.6369
    3MOL   H431 2355   7.630   6.359   4.539 -1.2616  1.2393  1.4226
    3MOL   H432 2356   7.493   6.220   4.350  2.2307 -1.9410 -0.7302
    3MOL   H433 2357   7.400   6.153   4.478  1.0500 -0.0793 -0.3181
    3MOL   N434 2358   7.584   5.959   4.447 -0.2349  0.5096  0.3758
    3MOL   C435 2359   7.681   5.845   4.458  0.3791  0.2342 -0.6737
    3MOL   C436 2360   7.690   5.770   4.329  0.3069  0.0068 -0.6104
    3MOL   C437 2361   7.731   5.845   4.216  0.4181 -0.5976  0.5614
    3MOL   C438 2362   7.752   5.781   4.090  0.5551 -0.1116 -0.4020
    3MOL   C439 2363   7.717   5.639   4.086  0.0987 -0.4203  0.1978
    3MOL   C440 2364   7.670   5.570   4.199  0.3327  0.0576 -0.1324
    3MOL   C441 2365   7.656   5.631   4.324  0.2862 -0.9953  0.4979
    3MOL   C442 2366   7.601   5.551   4.450  0.3409 -0.0092 -0.1352
    3MOL   N443 2367   7.544   5.417   4.413  0.5827 -0.7493  0.0292
    3MOL   C444 2368   7.410   5.405   4.427 -0.3111  0.1471 -0.8914
    3MOL   O445 2369   7.333   5.469   4.495 -0.3714 -0.7406  0.7069
    3MOL   C446 2370   7.352   5.282   4.349  0.0091 -0.1057 -0.5648
    3MOL   C447 2371   7.205   5.267   4.378  0.2368  0.2446  0.2679
    3MOL   C448 2372   7.189   5.181   4.503  0.5716 -0.5637 -0.2948
    3MOL   C449 2373   7.045   5.176   4.558  0.5021  0.1053  0.9797
    3MOL   C450 2374   7.015   5.093   4.684 -0.7070 -0.0466 -0.4273
    3MOL   C451 2375   7.058   4.950   4.666 -0.0102  0.0191  0.3899
    3MOL   C452 2376   6.983   4.853   4.765 -0.9865  0.7660  0.5331
    3MOL   C453 2377   7.006   4.877   4.920  0.1835 -0.0396 -0.3689
    3MOL   C454 2378   6.966   4.769   5.012 -0.0805 -0.1195  0.0997
    3MOL   O455 2379   7.034   4.674   5.027 -0.0699  0.0918 -0.3390
    3MOL   H456 2380   7.493   5.944   4.406  0.3018  0.2067 -0.7272
    3MOL   H457 2381   7.652   5.786   4.545  2.6287 -0.2310 -0.2188
    3MOL   H458 2382   7.776   5.886   4.491  0.4184 -0.5683  0.2241
    3MOL   H459 2383   7.749   5.950   4.236 -3.4909  0.0865  0.8431
    3MOL   H460 2384   0.011   5.832   4.008  0.6399  1.0046  0.3349
    3MOL   H461 2385   7.712   5.577   3.998  0.6955 -1.9414  1.2080
    3MOL   H462 2386   7.649   5.465   4.187  1.9485 -0.3299  0.2872
    3MOL   H463 2387   7.521   5.614   4.490  0.1958 -0.1488 -0.2046
    3MOL   H464 2388   7.671   5.560   4.534  0.4698  2.1936 -0.4434
    3MOL   H465 2389   7.596   5.349   4.359  0.9783 -0.6760  0.3127
    3MOL   H466 2390   7.410   5.192   4.366 -1.0078 -0.6878 -0.1708
    3MOL   H467 2391   7.363   5.308   4.244  0.0944  0.4649 -0.4168
    3MOL   H468 2392   7.169   5.208   4.294  0.1659 -1.6219  1.5756
    3MOL   H469 2393   7.144   5.357   4.373  0.7567  0.6361  0.9517
    3MOL   H470 2394   7.238   5.085   4.484  0.6724 -0.1290 -2.3362
    3MOL   H471 2395   7.246   5.231   4.581 -0.2944  0.3598 -0.2426
    3MOL   H472 2396   7.014   5.278   4.583 -1.0865 -0.1266 -0.0161
    3MOL   H473 2397   6.980   5.148   4.476 -1.9730  2.2525  2.1186
    3MOL   H474 2398   7.067   5.144   4.765 -0.9024 -2.0347  0.9499
    3MOL   H475 2399   6.910   5.105   4.710 -0.7778  0.1287 -0.7804
    3MOL   H476 2400   7.166   4.937   4.672  0.0495 -0.1631 -0.9670
    3MOL   H477 2401   7.022   4.918   4.569  1.1754 -2.4830  0.7412
    3MOL   H478 2402   6.876   4.852   4.742 -0.4530 -0.7107 -2.1219
    3MOL   H479 2403   7.020   4.751   4.753 -1.0530  0.7213  0.7124
    3MOL   H480 2404   7.105   4.914   4.945  1.1194 -3.1313  0.7405
    3MOL   H481 2405   6.950   4.966   4.948 -1.1646 -1.0688  0.2621
    3MOL   N482 2406   6.847   4.781   5.063 -0.2249  0.1858 -0.0382
    3MOL   C483 2407   6.786   4.675   5.149  0.6459 -0.1170  0.0225
    3MOL   C484 2408   6.731   4.556   5.065  0.3061  0.1508  0.3805
    3MOL   C485 2409   6.660   4.584   4.946 -0.4777  0.5707  1.0427
    3MOL   C486 2410   6.625   4.484   4.854  0.1233 -0.0427  0.5091
    3MOL   C487 2411   6.655   4.352   4.883  0.3947 -0.3280  0.5060
    3MOL   C488 2412   6.715   4.323   5.008 -0.0107  0.4136  0.7887
    3MOL   C489 2413   6.757   4.422   5.103 -0.6667 -0.6038 -0.0977
    3MOL   C490 2414   6.840   4.380   5.224 -0.2365 -0.2215  0.2308
    3MOL   N491 2415   6.976   4.412   5.196  0.0495 -0.5813 -0.1175
    3MOL   C492 2416   7.078   4.372   5.275 -0.5700  0.0166 -0.3614
    3MOL   O493 2417   7.068   4.273   5.348  0.5379 -0.2542 -0.2823
    3MOL   C494 2418   7.203   4.457   5.279 -0.9575  0.1065  0.2500
    3MOL   C495 2419   7.191   4.556   5.394  0.2416 -0.0121  0.1616
    3MOL   C496 2420   7.074   4.659   5.380 -0.5012  0.4897 -0.8334
    3MOL   C497 2421   7.082   4.777   5.485  0.4109  0.5155 -0.0782
    3MOL   C498 2422   6.965   4.879   5.459  0.4016  0.3703  0.0748
    3MOL   C499 2423   6.832   4.838   5.518  0.0230  0.7480  0.1254
    3MOL   C500 2424   6.715   4.913   5.451 -0.0641  0.1849 -0.2696
    3MOL   C501 2425   6.713   5.062   5.482  0.1393 -0.5599 -0.0613
    3MOL   C502 2426   6.648   5.085   5.618 -0.7869 -0.3552  0.5561
    3MOL   O503 2427   6.576   4.999   5.672  0.5440 -0.3107 -0.5333
    3MOL   H504 2428   6.808   4.871   5.036 -2.9418 -0.6520  0.9468
    3MOL   H505 2429   6.856   4.648   5.228 -1.1989  1.7985  2.3515
    3MOL   H506 2430   6.694   4.717   5.189  1.0442 -1.1712  2.1434
    3MOL   H507 2431   6.626   4.685   4.925 -0.0044  0.5838  0.3595
    3MOL   H508 2432   6.581   4.505   4.757 -0.2381  2.6261  1.2138
    3MOL   H509 2433   6.620   4.272   4.819 -0.2799  0.0610  0.3841
    3MOL   H510 2434   6.738   4.219   5.025  0.7514  0.1964 -1.3689
    3MOL   H511 2435   6.831   4.272   5.224  0.3295 -0.2829 -1.2015
    3MOL   H512 2436   6.800   4.425   5.315 -0.6539 -1.4949  0.6786
    3MOL   H513 2437   6.989   4.475   5.118 -0.2068 -1.7935 -1.1501
    3MOL   H514 2438   7.213   4.508   5.183  2.1736 -1.2442 -0.2162
    3MOL   H515 2439   7.295   4.400   5.290 -0.8663  0.2455  0.2189
    3MOL   H516 2440   7.281   4.617   5.407  0.5781  0.2693 -3.0280
    3MOL   H517 2441   7.174   4.504   5.488 -1.0540 -0.2383 -0.1911
    3MOL   H518 2442   7.081   4.679   5.273  0.1434 -1.8047 -1.2553
    3MOL   H519 2443   6.975   4.618   5.400 -0.6073 -0.0298 -2.3472
    3MOL   H520 2444   7.076   4.730   5.584 -1.1021 -0.2987 -0.5399
    3MOL   H521 2445   7.178   4.829   5.486  0.2557  0.7980  0.3555
    3MOL   H522 2446   6.986   4.978   5.501  0.4481  0.4303 -0.0848
    3MOL   H523 2447   6.944   4.901   5.354  0.9635 -1.7654 -0.5103
    3MOL   H524 2448   6.823   4.842   5.627 -0.8021  0.2004  0.0816
    3MOL   H525 2449   6.812   4.736   5.485  1.4970  1.0213 -1.6946
    3MOL   H526 2450   6.729   4.908   5.343  1.5432 -0.7128 -0.0409
    3MOL   H527 2451   6.621   4.873   5.491  1.2558 -0.9257  1.8077
    3MOL   H528 2452   6.651   5.110   5.406  0.8673 -2.8172 -2.1313
    3MOL   H529 2453   6.811   5.111   5.482 -0.3707  0.4844 -0.9102
    3MOL   N530 2454   6.682   5.199   5.683 -0.4012  0.5235  0.7523
    3MOL   C531 2455   6.643   5.228   5.817 -0.2444 -0.7607 -0.0025
    3MOL   C532 2456   6.762   5.245   5.912  0.6216  0.4162 -0.0053
    3MOL   C533 2457   6.798   5.372   5.938  0.0698  0.1203 -0.2597
    3MOL   C534 2458   6.911   5.397   6.014 -0.2299  0.3752  0.6700
    3MOL   C535 2459   6.991   5.290   6.059 -0.3590  0.4939 -0.5140
    3MOL   C536 2460   6.944   5.158   6.040  1.0509 -0.1462  0.4019
    3MOL   C537 2461   6.823   5.130   5.967  0.3283 -0.4495 -0.2895
    3MOL   C538 2462   6.785   4.982   5.929  0.4200 -0.1935  0.2717
    3MOL   N539 2463   6.873   4.885   6.004 -0.4013  0.1326  0.1947
    3MOL   C540 2464   6.837   4.814   6.117 -0.6143 -0.3052  0.6039
    3MOL   O541 2465   6.729   4.808   6.166  0.3810  0.8475  0.0163
    3MOL   C542 2466   6.950   4.737   6.185 -0.4667  0.2198  0.0352
    3MOL   C543 2467   7.061   4.827   6.243  0.2162  0.0258  0.0264
    3MOL   C544 2468   7.185   4.740   6.274  0.0042  0.7359  0.3185
    3MOL   C545 2469   7.295   4.819   6.341 -0.1709 -0.1714 -0.0622
    3MOL   C546 2470   7.419   4.723   6.361  0.4904 -0.2532 -0.2689
    3MOL   C547 2471   7.516   4.744   6.474 -0.8727 -0.4480  0.6004
    3MOL   C548 2472   7.449   4.702   6.610  0.3362 -0.1306 -0.1673
    3MOL   C549 2473   7.547   4.694   6.726 -0.2718  0.0309  0.0551
    3MOL   C550 2474   7.603   4.826   6.766  0.1315 -0.2443 -0.2017
    3MOL   O551 2475   7.535   4.928   6.781  0.0456 -0.0686  0.1788
    3MOL   H552 2476   6.760   5.247   5.639  0.1787 -1.6250 -0.6446
    3MOL   H553 2477   6.560   5.168   5.854  0.1930 -1.7415 -0.5801
    3MOL   H554 2478   6.595   5.326   5.818 -0.7049 -0.9860  0.0056
    3MOL   H555 2479   6.746   5.452   5.887 -1.8828  0.6193  2.3825
    3MOL   H556 2480   6.943   5.497   6.036  1.3185 -0.1704  0.9982
    3MOL   H557 2481   7.086   5.306   6.110 -0.8425  2.3862 -0.1698
    3MOL   H558 2482   7.006   5.074   6.068 -0.9771 -1.4420  1.1202
    3MOL   H559 2483   6.803   4.966   5.823  1.3012  5.3021 -0.5186
    3MOL   H560 2484   6.679   4.976   5.951  0.8280 -0.0386  2.4125
    3MOL   H561 2485   6.971   4.878   5.980 -0.2529  4.2638 -0.9242
    3MOL   H562 2486   7.000   4.666   6.119 -0.3719 -0.1085  0.4524
    3MOL   H563 2487   6.904   4.677   6.264 -2.5484  0.4678 -0.9631
    3MOL   H564 2488   7.027   4.884   6.330 -0.3011 -0.6039  0.2419
    3MOL   H565 2489   7.091   4.918   6.192 -3.2806 -0.4287 -3.0226
    3MOL   H566 2490   7.165   4.658   6.342 -0.9927  1.5763  1.0658
    3MOL   H567 2491   7.233   4.701   6.184  0.9524 -2.5567  2.1846
    3MOL   H568 2492   7.333   4.908   6.291 -0.1138 -0.3760 -0.3876
    3MOL   H569 2493   7.259   4.859   6.436  1.7268  1.8219 -0.1511
    3MOL   H570 2494   7.379   4.621   6.369 -0.5142  0.1405 -0.1133
    3MOL   H571 2495   7.478   4.723   6.270  2.4141  1.4074  0.9410
    3MOL   H572 2496   7.539   4.851   6.479  1.4436 -0.9358  0.6764
    3MOL   H573 2497   7.605   4.685   6.452  0.8002  2.3719 -0.6143
    3MOL   H574 2498   7.363   4.766   6.631  0.6123  0.5485 -1.0431
    3MOL   H575 2499   7.418   4.599   6.593 -1.9226  0.0747  2.3788
    3MOL   H576 2500   7.621   4.615   6.713  1.3805  1.7469 -1.3174
    3MOL   H577 2501   7.488   4.654   6.808 -0.6904 -0.1842 -0.3465
    3MOL   N578 2502   7.727   4.823   6.813  0.4391 -0.0430 -0.2393
    3MOL   C579 2503   0.013   4.939   6.858 -0.8042 -0.5914 -0.1209
    3MOL   C580 2504   0.163   4.907   6.885 -0.0681  0.0761  0.5443
    3MOL   C581 2505   0.216   4.952   7.006 -0.5026  0.0174 -0.0800
    3MOL   C582 2506   0.346   4.908   7.045  0.5825 -0.5967  0.0933
    3MOL   C583 2507   0.425   4.828   6.962  0.0889 -0.6766 -0.5438
    3MOL   C584 2508   0.374   4.797   6.836  0.3235  0.0427  0.5208
    3MOL   C585 2509   0.246   4.834   6.796 -1.3369 -0.1796 -0.6840
    3MOL   C586 2510   0.201   4.798   6.653  0.0303 -0.2789 -0.5035
    3MOL   N587 2511   0.140   4.666   6.632 -0.6683 -0.4900 -0.7628
    3MOL   C588 2512   0.123   4.608   6.515 -0.3527 -0.0641 -0.0391
    3MOL   O589 2513   0.160   4.668   6.413  0.4340  0.0294  0.4106
    3MOL   C590 2514   0.045   4.473   6.514 -0.2438  0.4387  0.8721
    3MOL   C591 2515   0.036   4.418   6.374  0.1424 -0.1425  0.4025
    3MOL   C592 2516   7.714   4.477   6.285 -1.0161  0.5834  0.3881
    3MOL   C593 2517   7.719   4.430   6.143 -0.0862  0.7899 -0.4235
    3MOL   C594 2518   7.610   4.473   6.057  0.5994  0.4662  0.7725
    3MOL   C595 2519   7.628   4.441   5.905  0.7620  0.0636  0.2519
    3MOL   C596 2520   7.485   4.421   5.836  0.0780  0.1905 -0.2818
    3MOL   C597 2521   7.497   4.396   5.686 -0.3256  0.7500  0.2684
    3MOL   C598 2522   7.572   4.265   5.658  0.4625  0.0291 -0.3476
    3MOL   O599 2523   7.564   4.162   5.731 -0.0728 -0.1518  0.5066
    3MOL   H600 2524   7.785   4.740   6.822  1.4883  0.8763  1.9972
    3MOL   H601 2525   7.767   4.976   6.954 -0.2556 -0.4839  0.0440
    3MOL   H602 2526   0.004   5.018   6.783 -1.0451 -0.8873 -0.4029
    3MOL   H603 2527   0.166   5.020   7.073  2.4199  1.1012  1.0775
    3MOL   H604 2528   0.383   4.931   7.144  0.3553  2.3161 -0.4652
    3MOL   H605 2529   0.519   4.787   6.995  0.4669  1.3807  1.1017
    3MOL   H606 2530   0.442   4.746   6.770 -0.7903  0.4768 -0.9940
    3MOL   H607 2531   0.293   4.805   6.594 -0.8108 -1.8693 -2.0496
    3MOL   H608 2532   0.133   4.869   6.608 -0.5059 -1.1200 -1.0270
    3MOL   H609 2533   0.112   4.618   6.716 -2.6358 -0.2146 -1.2472
    3MOL   H610 2534   7.736   4.493   6.556 -1.3424 -2.8735 -0.0063
    3MOL   H611 2535   0.101   4.398   6.570 -1.2600 -2.5930 -2.0647
    3MOL   H612 2536   0.015   4.311   6.379 -0.2218 -0.2008 -1.8485
    3MOL   H613 2537   0.131   4.440   6.326 -1.2769  0.7796 -2.0998
    3MOL   H614 2538   7.613   4.454   6.317 -0.2764 -3.2451  0.2631
    3MOL   H615 2539   7.713   4.586   6.293 -3.6803  0.5842  0.5578
    3MOL   H616 2540   0.013   4.486   6.100  0.7127 -1.3104 -1.6817
    3MOL   H617 2541   7.733   4.322   6.144 -0.3667  0.7549  1.9343
    3MOL   H618 2542   7.514   4.448   6.101  1.0567 -1.3922  0.7870
    3MOL   H619 2543   7.595   4.579   6.072 -2.1898  0.7297 -3.3128
    3MOL   H620 2544   7.684   4.348   5.897  0.8291 -0.0022  1.4093
    3MOL   H621 2545   7.685   4.517   5.851  0.9748 -0.8181 -0.7860
    3MOL   H622 2546   7.427   4.336   5.871  1.3812 -1.2043 -1.4371
    3MOL   H623 2547   7.431   4.514   5.856  1.4475  0.2056  3.6403
    3MOL   H624 2548   7.395   4.384   5.647 -1.0125 -4.6412  3.2043
    3MOL   H625 2549   7.544   4.482   5.639 -0.4899  0.2561 -0.8264
    3MOL   N626 2550   7.659   4.259   5.557 -0.2805 -0.2823  0.3556
    3MOL   C627 2551   7.748   4.150   5.511  0.4250 -0.0555 -0.7842
    3MOL   C628 2552   0.069   4.212   5.433  0.7496 -0.6400  0.6727
    3MOL   C629 2553   0.200   4.206   5.486 -0.0489 -0.2111  0.1366
    3MOL   C630 2554   0.309   4.265   5.419 -0.5752  0.0073  0.4934
    3MOL   C631 2555   0.279   4.350   5.306  0.6793  0.3455 -0.3726
    3MOL   C632 2556   0.147   4.363   5.250 -0.1410  0.2737 -0.3682
    3MOL   C633 2557   0.039   4.294   5.313  0.0784 -0.3392 -0.0798
    3MOL   C634 2558   7.691   4.313   5.254 -0.3164 -0.0344 -0.5300
    3MOL   N635 2559   7.674   4.453   5.211 -0.0463 -0.5749 -0.0961
    3MOL   C636 2560   7.613   4.546   5.287  0.1611  0.1906  0.0190
    3MOL   O637 2561   7.557   4.515   5.392 -0.1681  0.3442  0.2544
    3MOL   C638 2562   7.597   4.685   5.221  0.1629  0.0872  0.5670
    3MOL   C639 2563   7.485   4.764   5.270 -0.5668  0.3255  0.2156
    3MOL   C640 2564   7.479   4.905   5.203  0.1151 -0.0521  0.4400
    3MOL   C641 2565   7.340   4.967   5.218 -0.0459  0.2252  0.2042
    3MOL   C642 2566   7.338   5.119   5.196 -0.2101 -0.1448 -0.5091
    3MOL   C643 2567   7.210   5.189   5.240 -0.5777 -0.8058 -0.0217
    3MOL   C644 2568   7.082   5.152   5.163 -0.3593  0.2482 -0.4057
    3MOL   C645 2569   6.958   5.229   5.214  0.0286 -0.1187  0.3421
    3MOL   C646 2570   6.816   5.188   5.163  0.1910 -0.3820 -0.9695
    3MOL   O647 2571   6.803   5.088   5.089  0.5039 -0.2996 -0.6173
    3MOL   H648 2572   7.667   4.338   5.496 -0.8751 -0.4795  0.0150
    3MOL   H649 2573   7.697   4.081   5.444 -0.9764  1.0157 -0.8355
    3MOL   H650 2574   7.778   4.098   5.603 -2.7363 -2.9018 -1.2434
    3MOL   H651 2575   0.212   4.155   5.580  2.0550 -0.8835 -0.4749
    3MOL   H652 2576   0.410   4.264   5.456 -0.0718  1.3225 -0.7759
    3MOL   H653 2577   0.357   4.408   5.259 -0.1030 -0.6794 -3.0225
    3MOL   H654 2578   0.129   4.440   5.176 -2.2191 -2.0815 -2.3819
    3MOL   H655 2579   7.617   4.276   5.325  2.1560 -1.6030  1.3082
    3MOL   H656 2580   7.664   4.251   5.168  0.5061  0.5403 -1.2105
    3MOL   H657 2581   7.712   4.478   5.121  1.9625  1.2905  1.2263
    3MOL   H658 2582   7.585   4.672   5.114 -1.3984  3.8126  0.2448
    3MOL   H659 2583   7.693   4.738   5.228  1.8684 -2.7466 -0.3769
    3MOL   H660 2584   7.484   4.781   5.378 -2.5064  2.7938 -0.1571
    3MOL   H661 2585   7.387   4.721   5.250 -0.0190 -1.1905  0.7067
    3MOL   H662 2586   7.549   4.966   5.259  0.3572 -0.5209  0.6535
    3MOL   H663 2587   7.500   4.909   5.096  3.2943 -2.2201  0.9202
    3MOL   H664 2588   7.276   4.912   5.149  1.0171 -2.1700  1.0793
    3MOL   H665 2589   7.308   4.953   5.321 -2.1202 -0.1970 -0.4873
    3MOL   H666 2590   7.417   5.169   5.252 -3.4637  2.1477  2.1884
    3MOL   H667 2591   7.350   5.138   5.089 -1.7367 -0.4890 -0.7514
    3MOL   H668 2592   7.235   5.295   5.240 -0.2440 -0.8418  3.2596
    3MOL   H669 2593   7.203   5.168   5.346  0.2322  1.7287  0.5673
    3MOL   H670 2594   7.091   5.147   5.055  0.3091  0.5598 -0.3646
    3MOL   H671 2595   7.073   5.045   5.184  1.6318  0.1724  0.2311
    3MOL   H672 2596   6.981   5.334   5.197 -1.3748  0.0774 -0.4214
    3MOL   H673 2597   6.949   5.232   5.323 -0.0213  1.3502  0.3050
    3MOL   N674 2598   6.714   5.265   5.205  0.3799 -0.4183 -0.0867
    3MOL   C675 2599   6.570   5.250   5.164 -0.5833 -0.0913  0.4355
    3MOL   C676 2600   6.481   5.271   5.282  0.0809  0.1887  0.5783
    3MOL   C677 2601   6.414   5.160   5.339 -0.7118  0.4960 -0.0930
    3MOL   C678 2602   6.342   5.165   5.457 -1.0245  0.5195  0.0028
    3MOL   C679 2603   6.330   5.292   5.522  0.5017  0.6254  0.7982
    3MOL   C680 2604   6.384   5.409   5.463  0.0863 -1.0743  0.7082
    3MOL   C681 2605   6.458   5.401   5.345  0.8077 -0.1325 -0.4142
    3MOL   C682 2606   6.532   5.521   5.286  0.0864  0.6158  0.4563
    3MOL   N683 2607   6.476   5.569   5.163 -0.9990  0.0145  0.5460
    3MOL   C684 2608   6.351   5.624   5.153 -0.3884  0.0492  0.2424
    3MOL   O685 2609   6.288   5.663   5.247  0.1688 -0.2829  0.0305
    3MOL   C686 2610   6.298   5.649   5.011 -0.1627 -0.4044 -0.0564
    3MOL   C687 2611   6.181   5.556   4.983  0.1748  0.2979  0.3870
    3MOL   C688 2612   6.236   5.432   4.909 -0.3569  0.2327 -0.3872
    3MOL   C689 2613   6.138   5.330   4.861  0.2820 -0.4403 -0.2191
    3MOL   C690 2614   6.200   5.212   4.796  0.2038 -0.1576  0.3181
    3MOL   C691 2615   6.114   5.098   4.748 -0.2879  0.0243  0.1375
    3MOL   C692 2616   6.038   5.039   4.866 -0.2977 -0.1188  0.6042
    3MOL   C693 2617   5.949   4.916   4.835 -0.4030 -0.3020  0.6029
    3MOL   C694 2618   5.816   4.942   4.780 -0.7748  0.4935  0.0687
    3MOL   O695 2619   5.763   5.055   4.787  0.0799  0.4373  0.2859
    3MOL   H696 2620   6.727   5.345   5.265 -1.1333 -0.2315  0.0010
    3MOL   H697 2621   6.560   5.146   5.133  0.0910  0.5285 -1.9849
    3MOL   H698 2622   6.543   5.322   5.087  1.1558  0.9546  0.7732
    3MOL   H699 2623   6.419   5.065   5.288  0.6669  0.7866 -0.5128
    3MOL   H700 2624   6.301   5.074   5.497  3.4212 -1.6793 -0.1495
    3MOL   H701 2625   6.273   5.313   5.612  1.3305 -0.7347  1.6428
    3MOL   H702 2626   6.373   5.510   5.500 -0.6741 -0.9338  0.0988
    3MOL   H703 2627   6.637   5.494   5.277  0.0089 -0.6451  3.0269
    3MOL   H704 2628   6.532   5.606   5.355  0.5833  2.2923 -1.5394
    3MOL   H705 2629   6.524   5.549   5.076 -0.3918  1.1117  0.6133
    3MOL   H706 2630   6.383   5.635   4.944 -0.4097  1.4757 -0.8121
    3MOL   H707 2631   6.270   5.754   4.995  1.9455  0.2003  0.0996
    3MOL   H708 2632   6.110   5.603   4.916  0.0311  0.3586  0.5800
    3MOL   H709 2633   6.120   5.534   5.071 -2.4212  1.4300 -1.0607
    3MOL   H710 2634   6.293   5.458   4.819  1.8583 -1.1565  0.5645
    3MOL   H711 2635   6.314   5.385   4.969 -0.5055 -0.6871 -0.9034
    3MOL   H712 2636   6.081   5.298   4.949  1.0335 -0.9819  0.0788
    3MOL   H713 2637   6.069   5.373   4.789  1.3950 -2.5668 -2.6255
    3MOL   H714 2638   6.277   5.232   4.722  0.1558 -0.0911  0.2879
    3MOL   H715 2639   6.256   5.164   4.877 -0.8639 -1.1153  0.5163
    3MOL   H716 2640   6.156   5.016   4.691 -1.8062 -0.9271  0.3724
    3MOL   H717 2641   6.040   5.141   4.681  0.0558  1.8733  0.8923
    3MOL   H718 2642   5.970   5.105   4.920  0.2078  2.1577 -1.4394
    3MOL   H719 2643   6.118   5.026   4.939 -0.6270  1.3777  1.2458
    3MOL   H720 2644   5.943   4.871   4.934  1.5495  0.2819  1.0182
    3MOL   H721 2645   6.008   4.842   4.780  0.9506  1.2772 -0.1151
    3MOL   N722 2646   5.751   4.836   4.730  0.0195 -0.4281 -0.4713
    3MOL   C723 2647   5.610   4.834   4.704 -0.4315  0.0733 -0.1752
    3MOL   C724 2648   5.556   4.690   4.706 -0.7414 -0.2341 -0.9674
    3MOL   C725 2649   5.546   4.626   4.832  0.6772  0.1185  0.6144
    3MOL   C726 2650   5.505   4.496   4.847  0.0420  0.5054  0.2171
    3MOL   C727 2651   5.467   4.427   4.732 -0.2085 -0.3026 -0.0044
    3MOL   C728 2652   5.475   4.491   4.604  0.8180  0.1812  0.9411
    3MOL   C729 2653   5.530   4.622   4.587  0.6928  0.9758  0.4840
    3MOL   C730 2654   5.527   4.695   4.450  0.0945  0.2533  1.0796
    3MOL   N731 2655   5.507   4.596   4.340  0.2826 -0.4985 -0.6812
    3MOL   C732 2656   5.601   4.532   4.271  0.0303 -0.3761 -0.5512
    3MOL   O733 2657   5.721   4.547   4.301 -0.1059 -0.1729  0.1547
    3MOL   C734 2658   5.561   4.425   4.171  0.6424  0.3555  0.4053
    3MOL   C735 2659   5.610   4.282   4.215 -0.9087  0.4115  0.2045
    3MOL   C736 2660   5.727   4.233   4.127  1.1387  0.1250  0.1173
    3MOL   C737 2661   5.861   4.304   4.161 -0.1338 -0.3191 -0.5198
    3MOL   C738 2662   5.976   4.263   4.073 -0.1366 -0.4814 -0.0827
    3MOL   C739 2663   6.110   4.333   4.116 -0.1183  0.0878  0.7305
    3MOL   C740 2664   6.109   4.483   4.133 -0.9081 -0.5305 -0.5382
    3MOL   C741 2665   6.059   4.548   3.996 -0.1037 -0.1771 -0.5787
    3MOL   C742 2666   6.147   4.521   3.874  0.5922  0.1029  0.3777
    3MOL   O743 2667   6.255   4.579   3.859 -0.1240 -0.0594 -0.0796
    3MOL   H744 2668   5.801   4.748   4.730 -0.7883 -0.9094  1.2677
    3MOL   H745 2669   5.589   4.882   4.609 -0.5844 -0.2685 -0.3178
    3MOL   H746 2670   5.550   4.881   4.782 -2.3237 -0.0404 -1.5290
    3MOL   H747 2671   5.565   4.688   4.918 -0.8207  1.3213  0.1013
    3MOL   H748 2672   5.497   4.463   4.949  0.0028 -0.4367 -0.0921
    3MOL   H749 2673   5.431   4.326   4.741 -1.2805  0.0173 -0.6253
    3MOL   H750 2674   5.443   4.442   4.513 -0.7320  0.2256  1.4527
    3MOL   H751 2675   5.618   4.749   4.425 -0.8336  0.6602 -1.5016
    3MOL   H752 2676   5.439   4.760   4.448  0.5324  0.8439  0.8944
    3MOL   H753 2677   5.409   4.574   4.325 -0.3569  1.6546  0.1278
    3MOL   H754 2678   5.573   4.452   4.066 -2.4079 -1.1506 -0.4114
    3MOL   H755 2679   5.452   4.416   4.167  0.7332 -1.6404  1.6869
    3MOL   H756 2680   5.523   4.221   4.188  0.1128 -1.0438  0.1258
    3MOL   H757 2681   5.640   4.274   4.320 -0.4431 -0.1518  0.0321
    3MOL   H758 2682   5.766   4.132   4.128  1.0699  0.0942 -0.1428
    3MOL   H759 2683   5.708   4.246   4.020  1.8489 -0.1143 -0.0417
    3MOL   H760 2684   5.838   4.409   4.144  2.6220  0.4302  0.0658
    3MOL   H761 2685   5.888   4.291   4.265  2.4720  0.4720 -1.0607
    3MOL   H762 2686   5.997   4.156   4.078  2.2112 -0.0781 -0.5959
    3MOL   H763 2687   5.949   4.296   3.973  2.3693  1.2677 -0.2565
    3MOL   H764 2688   6.185   4.314   4.040 -1.2961 -0.1446 -0.3834
    3MOL   H765 2689   6.152   4.293   4.209 -0.5937  0.3962  1.0801
    3MOL   H766 2690   6.055   4.520   4.221  0.0566  0.1084 -0.2065
    3MOL   H767 2691   6.215   4.504   4.143 -0.4896 -2.4856 -0.7151
    3MOL   H768 2692   5.953   4.530   3.976 -0.3136  0.4601 -0.0687
    3MOL   H769 2693   6.052   4.653   4.023 -1.4251 -0.4610  0.2586
    3MOL   N770 2694   6.105   4.432   3.780  0.1803  0.1619 -0.1901
    3MOL   C771 2695   6.173   4.400   3.654  0.3380  0.8559 -0.0891
    3MOL   C772 2696   6.105   4.436   3.521  0.5971  0.2539  0.5282
    3MOL   C773 2697   5.972   4.383   3.504  0.3229  0.3032 -0.0701
    3MOL   C774 2698   5.904   4.421   3.389 -0.0146  0.0171  0.2815
    3MOL   C775 2699   5.959   4.491   3.282  0.1161 -0.3061 -1.0166
    3MOL   C776 2700   6.093   4.522   3.289 -0.9808  0.0692  0.3313
    3MOL   C777 2701   6.173   4.490   3.407  0.7059  0.2832 -0.1813
    3MOL   C778 2702   6.323   4.535   3.419 -0.4417  0.2241  0.0489
    3MOL   N779 2703   6.337   4.663   3.486  0.0476  0.0705 -0.3690
    3MOL   C780 2704   6.377   4.781   3.442 -0.5768 -0.1477  0.6896
    3MOL   O781 2705   6.430   4.796   3.332 -0.1411 -0.6829 -0.2903
    3MOL   C782 2706   6.354   4.905   3.538  0.0218  0.1206  0.3159
    3MOL   C783 2707   6.334   5.033   3.459 -0.1260 -0.3263  0.1756
    3MOL   C784 2708   6.333   5.158   3.551 -0.1089  0.2350 -0.1761
    3MOL   C785 2709   6.330   5.286   3.480  0.1654  0.0748 -0.0957
    3MOL   C786 2710   6.194   5.330   3.429 -0.0318  0.0513  0.8789
    3MOL   C787 2711   6.203   5.452   3.336  0.3196 -0.3021  0.1900
    3MOL   C788 2712   6.066   5.513   3.290 -0.3273  0.1175  0.1371
    3MOL   C789 2713   6.091   5.636   3.192  0.2985  0.0812  0.2108
    3MOL   C790 2714   5.966   5.693   3.125 -0.2678  0.2292  0.5034
    3MOL   O791 2715   5.876   5.617   3.082 -0.0680  0.2890  0.2165
    3MOL   H792 2716   6.012   4.391   3.787  0.6450 -0.6766  1.2312
    3MOL   H793 2717   6.272   4.445   3.654  1.0111 -0.6066 -0.8030
    3MOL   H794 2718   6.194   4.293   3.649 -0.5683  0.6325  0.7236
    3MOL   H795 2719   5.919   4.344   3.590  0.5572 -1.8373 -0.8657
    3MOL   H796 2720   5.797   4.405   3.392  0.1310 -1.5245 -1.8996
    3MOL   H797 2721   5.899   4.537   3.205  1.2739  1.6230 -0.8074
    3MOL   H798 2722   6.145   4.548   3.197  0.3949  0.1430  1.1182
    3MOL   H799 2723   6.348   4.550   3.314  4.1775  0.1057  1.0377
    3MOL   H800 2724   6.382   4.456   3.465  0.1995 -0.0157 -1.1677
    3MOL   H801 2725   6.303   4.665   3.581 -0.8950  1.1038 -0.7080
    3MOL   H802 2726   6.444   4.919   3.598 -1.4295  0.1484  2.5400
    3MOL   H803 2727   6.267   4.907   3.604 -1.9323  1.5001 -2.2143
    3MOL   H804 2728   6.244   5.020   3.400 -0.3131  2.1768 -0.1307
    3MOL   H805 2729   6.412   5.033   3.382  0.5366 -0.7001  0.8354
    3MOL   H806 2730   6.426   5.156   3.608  0.3678  1.3846 -0.8885
    3MOL   H807 2731   6.244   5.152   3.613  0.7165  0.1719  1.0184
    3MOL   H808 2732   6.368   5.363   3.547 -0.8014  1.2635 -0.8912
    3MOL   H809 2733   6.403   5.279   3.399  1.6414  1.2203  1.1128
    3MOL   H810 2734   6.133   5.249   3.387  0.9219 -0.5229  0.5841
    3MOL   H811 2735   6.138   5.359   3.518  0.4092  0.2789  1.0814
    3MOL   H812 2736   6.259   5.423   3.247 -0.5480 -0.4212 -0.3311
    3MOL   H813 2737   6.262   5.531   3.382 -0.0065 -0.7032  1.3103
    3MOL   H814 2738   6.014   5.559   3.374 -1.6384  1.0825 -1.1993
    3MOL   H815 2739   6.013   5.429   3.245 -1.5516  0.0961  1.5921
    3MOL   H816 2740   6.153   5.603   3.108  1.5556 -1.3214  1.6471
    3MOL   H817 2741   6.147   5.707   3.252  0.3396  0.0102  0.2553
    3MOL   N818 2742   5.958   5.825   3.104 -0.4721 -0.1543 -0.3005
    3MOL   C819 2743   5.852   5.891   3.028  0.7018  0.8379 -0.1179
    3MOL   C820 2744   5.792   6.019   3.094 -1.0138 -0.3743 -0.1858
    3MOL   C821 2745   5.746   6.122   3.011 -0.0755  0.5991  0.1749
    3MOL   C822 2746   5.709   6.245   3.058 -0.2469  0.2633  0.4128
    3MOL   C823 2747   5.691   6.267   3.200  0.3142 -0.1536 -0.0747
    3MOL   C824 2748   5.726   6.162   3.291  0.0787  0.0785  0.1978
    3MOL   C825 2749   5.783   6.038   3.238 -0.0415  0.3154 -0.0353
    3MOL   C826 2750   5.814   5.937   3.345  0.6490 -0.2806 -0.2180
    3MOL   N827 2751   5.948   5.941   3.407 -0.2382 -0.7464 -0.2847
    3MOL   C828 2752   5.974   5.960   3.541  0.3237 -0.1263 -0.6132
    3MOL   O829 2753   5.883   5.977   3.621  0.1462 -0.0164 -0.2343
    3MOL   C830 2754   6.119   5.958   3.590  0.3914  0.1199 -0.4184
    3MOL   C831 2755   6.159   5.837   3.678 -0.0246  0.1258  0.4011
    3MOL   C832 2756   6.111   5.698   3.629 -0.4997  0.0899  0.5074
    3MOL   C833 2757   6.136   5.587   3.728  0.0731 -0.2783 -0.1708
    3MOL   C834 2758   6.292   5.577   3.764  0.4253  0.0960 -0.0226
    3MOL   C835 2759   6.308   5.444   3.838  0.3198  0.4234  0.0488
    3MOL   C836 2760   6.459   5.402   3.849 -0.2820  0.2886  0.5265
    3MOL   C837 2761   6.483   5.310   3.968  0.1157 -0.0317  0.2186
    3MOL   C838 2762   6.636   5.278   3.991 -0.3625  0.7160 -0.0788
    3MOL   O839 2763   6.717   5.361   3.947  0.1256 -0.6208  0.5722
    3MOL   H840 2764   6.039   5.878   3.132  1.0200 -1.7159 -1.5161
    3MOL   H841 2765   5.898   5.918   2.933  1.0860 -0.1565 -0.2093
    3MOL   H842 2766   5.770   5.825   3.001  0.9988  0.1858  0.5826
    3MOL   H843 2767   5.740   6.107   2.904 -2.2184 -0.6184  0.4558
    3MOL   H844 2768   5.698   6.324   2.985  2.4577  0.1355 -0.1941
    3MOL   H845 2769   5.650   6.359   3.238  1.5095  0.2497  0.2293
    3MOL   H846 2770   5.713   6.185   3.396 -2.7650  1.4829 -0.4181
    3MOL   H847 2771   5.800   5.841   3.296  1.3569 -0.2411 -0.4925
    3MOL   H848 2772   5.743   5.952   3.427  0.8551 -0.4022 -0.0181
    3MOL   H849 2773   6.030   5.940   3.348  0.8410 -2.1751  1.1687
    3MOL   H850 2774   6.152   6.052   3.634 -1.9656 -0.6825  3.2422
    3MOL   H851 2775   6.181   5.943   3.502  0.8366  1.8565 -0.4304
    3MOL   H852 2776   6.118   5.840   3.779  0.6313 -2.8366  0.8002
    3MOL   H853 2777   6.264   5.828   3.706  0.3689  1.3357 -0.6342
    3MOL   H854 2778   6.143   5.670   3.529  0.3594  2.5192  0.0625
    3MOL   H855 2779   6.004   5.697   3.606  0.1259 -0.3316 -2.5697
    3MOL   H856 2780   6.085   5.595   3.823 -0.4507 -2.2215 -0.2632
    3MOL   H857 2781   6.102   5.494   3.682  1.6835 -0.4805 -1.0310
    3MOL   H858 2782   6.347   5.578   3.670 -1.8137  0.9154 -1.3690
    3MOL   H859 2783   6.339   5.653   3.826  2.2182  1.0330 -2.4196
    3MOL   H860 2784   6.250   5.367   3.786  1.7003 -1.0540  0.6435
    3MOL   H861 2785   6.267   5.450   3.938 -1.9995  0.6747 -0.8946
    3MOL   H862 2786   6.524   5.489   3.858  0.7127 -0.2494 -1.2273
    3MOL   H863 2787   6.488   5.354   3.755 -2.4313  0.1410 -0.0884
    3MOL   H864 2788   6.446   5.357   4.059  1.9356  1.8956  0.0082
    3MOL   H865 2789   6.429   5.217   3.956 -1.0364  0.3372  2.3213
    3MOL   N866 2790   6.667   5.161   4.044 -0.4559 -0.0062 -0.4259
    3MOL   C867 2791   6.799   5.119   4.094  0.5878 -0.4019 -0.2604
    3MOL   C868 2792   6.791   5.018   4.208  0.8371  1.2518  0.6120
    3MOL   C869 2793   6.862   4.897   4.189 -0.0087  0.2249  0.4541
    3MOL   C870 2794   6.875   4.806   4.289  0.2946  0.5765 -0.7733
    3MOL   C871 2795   6.816   4.835   4.406 -0.6889 -0.9756  0.0158
    3MOL   C872 2796   6.721   4.940   4.424  0.1099  0.1415  0.1656
    3MOL   C873 2797   6.711   5.037   4.321  0.4826  0.2252 -0.3880
    3MOL   C874 2798   6.635   5.167   4.341  0.1456  0.3316  0.0706
    3MOL   N875 2799   6.497   5.168   4.295  0.5162 -0.0342 -0.5626
    3MOL   C876 2800   6.394   5.214   4.366  0.1019 -0.7370  0.4371
    3MOL   O877 2801   6.413   5.285   4.464  0.6829  0.4584  0.3818
    3MOL   C878 2802   6.245   5.174   4.326  0.0762  0.1958 -0.2871
    3MOL   C879 2803   6.162   5.294   4.263 -0.1361 -0.0555 -0.5213
    3MOL   C880 2804   6.021   5.246   4.242 -0.2549 -0.3593  0.2463
    3MOL   C881 2805   5.951   5.320   4.132 -0.5106 -0.0835  0.3622
    3MOL   C882 2806   5.924   5.465   4.177 -0.3064  0.0295 -0.2372
    3MOL   C883 2807   5.863   5.549   4.069  0.7133 -0.5759 -0.0335
    3MOL   C884 2808   5.848   5.699   4.108  0.2348 -0.3214 -0.4747
    3MOL   C885 2809   5.820   5.791   3.992 -0.1469 -0.0617  0.5639
    3MOL   C886 2810   5.778   5.938   4.026  0.0669 -0.1477 -0.6941
    3MOL   O887 2811   5.708   5.960   4.122  0.5187  0.3791  0.1396
    3MOL   H888 2812   6.589   5.097   4.053 -0.4735  0.1878  0.8946
    3MOL   H889 2813   6.851   5.086   4.005 -0.9493  2.8017 -2.4386
    3MOL   H890 2814   6.847   5.208   4.135  1.3506 -0.3248 -1.3134
    3MOL   H891 2815   6.921   4.876   4.101  0.5258  2.9136  0.1083
    3MOL   H892 2816   6.945   4.725   4.278  1.1406  0.9732  1.3213
    3MOL   H893 2817   6.838   4.772   4.491  2.4536 -2.4147 -1.7846
    3MOL   H894 2818   6.674   4.964   4.519  3.6248  0.1785  1.9732
    3MOL   H895 2819   6.686   5.255   4.304  1.6734 -0.7383 -0.4193
    3MOL   H896 2820   6.635   5.177   4.449 -1.5039  0.8363  0.0348
    3MOL   H897 2821   6.470   5.108   4.219  0.2188  0.8628 -1.1752
    3MOL   H898 2822   6.202   5.138   4.420  0.8995  0.0135  0.0207
    3MOL   H899 2823   6.246   5.087   4.261  0.3579  0.9816 -1.3445
    3MOL   H900 2824   6.201   5.317   4.164 -0.5173 -2.6706 -1.3021
    3MOL   H901 2825   6.168   5.385   4.323 -1.3016  1.5510 -2.7586
    3MOL   H902 2826   6.035   5.145   4.202  1.9673 -0.4852  1.2647
    3MOL   H903 2827   5.952   5.248   4.327 -0.3489  1.2126  0.1389
    3MOL   H904 2828   6.015   5.325   4.044 -0.9575 -0.0263  0.0372
    3MOL   H905 2829   5.859   5.268   4.107  1.6726 -2.3924 -3.4524
    3MOL   H906 2830   5.864   5.465   4.268 -0.4993 -1.8009 -0.3533
    3MOL   H907 2831   6.014   5.523   4.199 -0.4962  0.0081  0.6089
    3MOL   H908 2832   5.771   5.498   4.038  0.6826 -0.2180 -0.5440
    3MOL   H909 2833   5.916   5.547   3.974  1.5878  2.9353  0.3224
    3MOL   H910 2834   5.781   5.714   4.193  2.6865  2.7574  1.0280
    3MOL   H911 2835   5.940   5.734   4.155 -1.2924  0.3783  2.1343
    3MOL   H912 2836   5.902   5.799   3.921  0.1880  1.0459  1.0698
    3MOL   H913 2837   5.735   5.756   3.933 -0.9331  1.8001  0.5489
    3MOL   N914 2838   5.826   6.032   3.946 -0.1214  0.3275  0.1445
    3MOL   C915 2839   5.781   6.170   3.961 -0.3041  0.5001  0.0698
    3MOL   C916 2840   5.903   6.259   3.971 -0.2340 -0.6614  0.3744
    3MOL   C917 2841   5.980   6.284   3.860  0.0486  0.3750 -0.4446
    3MOL   C918 2842   6.096   6.361   3.855 -0.5526  0.0039 -0.0329
    3MOL   C919 2843   6.142   6.423   3.977  0.1999  0.6433 -0.7351
    3MOL   C920 2844   6.063   6.406   4.094 -0.1220 -0.0058 -0.8045
    3MOL   C921 2845   5.941   6.329   4.093 -0.0514  0.1461 -0.4343
    3MOL   C922 2846   5.856   6.327   4.220 -0.0041 -0.1419  0.4704
    3MOL   N923 2847   5.879   6.194   4.270  0.3093 -0.7697 -0.2645
    3MOL   C924 2848   5.980   6.158   4.354  0.0262  0.3200 -0.4636
    3MOL   O925 2849   6.064   6.239   4.393  0.7015  0.9892  0.3795
    3MOL   C926 2850   5.987   6.010   4.393 -0.4341  0.5360  0.3202
    3MOL   C927 2851   6.107   5.948   4.324  0.3238 -0.0857 -0.4694
    3MOL   C928 2852   6.129   5.802   4.364 -0.6988 -0.6750  0.9724
    3MOL   C929 2853   6.228   5.722   4.279  0.2535 -0.0582  0.4608
    3MOL   C930 2854   6.363   5.788   4.274  0.3289  0.4328 -0.1607
    3MOL   C931 2855   6.477   5.711   4.201 -0.4793  0.4866  0.0611
    3MOL   C932 2856   6.608   5.786   4.196  0.3404  0.3056  0.4995
    3MOL   C933 2857   6.714   5.702   4.119 -0.1918 -0.5705  0.2881
    3MOL   C934 2858   6.684   5.696   3.966 -0.5699  1.3596 -0.3805
    3MOL   O935 2859   6.612   5.778   3.908  0.2038  0.0398  0.5811
    3MOL   H936 2860   5.888   6.008   3.870  1.4328  0.3061  1.3879
    3MOL   H937 2861   5.731   6.191   3.866 -1.0354 -2.6441 -0.3017
    3MOL   H938 2862   5.709   6.185   4.042  0.0465  2.9997 -0.0329
    3MOL   H939 2863   5.949   6.241   3.766 -0.6808 -0.5907  0.2297
    3MOL   H940 2864   6.154   6.389   3.768  0.3562 -1.3033  0.1226
    3MOL   H941 2865   6.227   6.488   3.988  1.4968 -1.1901  0.4291
    3MOL   H942 2866   6.093   6.447   4.190  0.7767 -0.6223 -0.8187
    3MOL   H943 2867   5.749   6.343   4.206 -0.1776 -2.3417 -0.9558
    3MOL   H944 2868   5.893   6.395   4.297  2.1249 -0.6878 -0.0349
    3MOL   H945 2869   5.811   6.127   4.240  0.8460 -0.0996 -3.1755
    3MOL   H946 2870   5.899   5.954   4.362 -0.3288  0.5417  0.0139
    3MOL   H947 2871   6.001   6.001   4.501  0.3922  0.8085  0.2341
    3MOL   H948 2872   6.190   6.013   4.353  1.4624 -1.5344 -0.4093
    3MOL   H949 2873   6.086   5.960   4.218 -0.0511  3.6901 -0.0375
    3MOL   H950 2874   6.148   5.793   4.471  2.5468 -0.6471  0.4419
    3MOL   H951 2875   6.032   5.752   4.357 -0.3860 -1.1535 -0.0459
    3MOL   H952 2876   6.233   5.622   4.322 -2.6930 -0.0203  0.9835
    3MOL   H953 2877   6.197   5.693   4.179  0.1125  0.0390  0.4771
    3MOL   H954 2878   6.396   5.804   4.377 -2.8835  0.0847  0.9786
    3MOL   H955 2879   6.354   5.884   4.224 -0.6067  1.0708  1.1999
    3MOL   H956 2880   6.492   5.612   4.245 -0.1335  0.9621  1.0135
    3MOL   H957 2881   6.441   5.696   4.098 -1.1929 -0.4057  0.4260
    3MOL   H958 2882   6.631   5.780   4.302 -2.0415 -0.2632  0.9993
    3MOL   H959 2883   6.597   5.890   4.163 -2.4119 -0.3499 -0.7242
    3MOL   H960 2884   6.690   5.602   4.156 -1.1086 -0.6476 -0.4879
    3MOL   H961 2885   6.813   5.725   4.157 -0.4675 -1.1163  1.3695
    3MOL   H962 2886   6.734   5.612   3.917 -1.4078  0.6632 -0.0478
    4MOL     N1 2887   6.006   3.872   1.460 -0.0073  0.0953  0.4105
    4MOL     C2 2888   5.935   3.764   1.404  1.1735  0.0441  0.6033
    4MOL     C3 2889   5.787   3.778   1.386 -0.0219 -0.1714 -0.1189
    4MOL     C4 2890   5.716   3.846   1.489 -0.5197 -0.8732  0.0248
    4MOL     C5 2891   5.578   3.878   1.473  0.3567 -0.4972  0.3804
    4MOL     C6 2892   5.517   3.827   1.364  0.4686  0.3803  0.6028
    4MOL     C7 2893   5.579   3.766   1.257  0.4124 -0.5354  0.2920
    4MOL     C8 2894   5.719   3.736   1.268  0.2417  0.5297 -0.1031
    4MOL     C9 2895   5.789   3.656   1.163 -0.3636  0.1714  0.4895
    4MOL    N10 2896   5.707   3.611   1.048  0.4028  0.3447 -0.7564
    4MOL    C11 2897   5.706   3.645   0.921  0.7713  0.1174 -0.0742
    4MOL    O12 2898   5.772   3.741   0.874 -0.0991 -0.3648 -0.2863
    4MOL    C13 2899   5.611   3.568   0.829  0.7960 -0.3140  0.0663
    4MOL    C14 2900   5.680   3.441   0.766  0.4202  0.7412  0.5404
    4MOL    C15 2901   5.792   3.464   0.667  0.1444  0.1015  0.4705
    4MOL    C16 2902   5.827   3.334   0.589 -0.7369 -0.1963  0.1527
    4MOL    C17 2903   5.923   3.351   0.476  0.5651 -0.2682 -0.1933
    4MOL    C18 2904   5.861   3.427   0.354  0.2616 -0.9744  0.7834
    4MOL    C19 2905   5.956   3.441   0.229 -0.5346  0.0827 -0.3573
    4MOL    C20 2906   5.880   3.474   0.099  0.5648  0.1643  0.1818
    4MOL    C21 2907   5.838   3.624   0.078 -0.5313  0.3913 -0.0300
    4MOL    O22 2908   5.925   3.712   0.067 -0.1573  0.2201 -0.6310
    4MOL    H23 2909   5.939   3.935   1.501  1.9519  2.6780 -0.2381
    4MOL    H24 2910   5.993   3.736   1.316 -0.2324  1.5220 -0.8186
    4MOL    H25 2911   5.961   3.678   1.467  0.2687 -1.4560 -1.0188
    4MOL    H26 2912   5.766   3.879   1.579  0.5348  1.7773 -1.4616
    4MOL    H27 2913   5.520   3.934   1.544  0.1543 -0.2517  0.0216
    4MOL    H28 2914   5.410   3.842   1.355  0.6994  0.4368 -2.8353
    4MOL    H29 2915   5.516   3.742   1.172  0.4886  1.4991 -0.3653
    4MOL    H30 2916   5.819   3.560   1.206 -0.2972  0.2239  0.5602
    4MOL    H31 2917   5.879   3.707   1.127 -1.3318 -0.1270 -2.5188
    4MOL    H32 2918   5.637   3.545   1.077 -0.1290  0.6388 -1.3735
    4MOL    H33 2919   5.577   3.611   0.735 -0.6357 -2.0052 -0.2085
    4MOL    H34 2920   5.519   3.553   0.885 -0.2976  1.3040 -1.2605
    4MOL    H35 2921   5.607   3.376   0.718 -1.1212  0.1110  3.6155
    4MOL    H36 2922   5.712   3.368   0.840 -0.5704  2.1159  2.3773
    4MOL    H37 2923   5.755   3.541   0.599  0.4853 -1.0849 -1.0920
    4MOL    H38 2924   5.888   3.487   0.714 -0.1115  1.2309  0.4453
    4MOL    H39 2925   5.877   3.270   0.662 -3.5301 -0.7298  1.6810
    4MOL    H40 2926   5.741   3.274   0.560 -1.0217  1.4749 -2.5839
    4MOL    H41 2927   6.018   3.394   0.510 -0.7319  1.1673  1.7062
    4MOL    H42 2928   5.941   3.248   0.444 -0.8896 -0.3830 -0.6763
    4MOL    H43 2929   5.828   3.529   0.376  1.7431  0.4419 -3.2172
    4MOL    H44 2930   5.764   3.390   0.320 -0.7064  1.2138  1.0507
    4MOL    H45 2931   6.040   3.509   0.245  0.5452 -0.7502 -2.3294
    4MOL    H46 2932   5.999   3.344   0.205 -1.3870 -0.0156 -1.5884
    4MOL    H47 2933   5.793   3.409   0.087  2.6970 -2.4796 -1.7061
    4MOL    H48 2934   5.940   3.442   0.014  0.4674  0.9733 -0.1876
    4MOL    H49 2935   6.067   3.833   1.531  1.3762  1.8087  0.1937
    4MOL    N50 2936   5.709   3.649   0.101  0.4326  0.1387  0.1980
    4MOL    C51 2937   5.649   3.783   0.106  0.5437  0.5686 -0.2088
    4MOL    C52 2938   5.553   3.811   0.223 -0.5667  0.4816 -0.6146
    4MOL    C53 2939   5.512   3.704   0.305 -0.3773 -0.1301  0.1021
    4MOL    C54 2940   5.406   3.723   0.397  0.7754 -0.1718  0.1945
    4MOL    C55 2941   5.350   3.850   0.417 -0.2651  0.0865  0.2004
    4MOL    C56 2942   5.394   3.958   0.341 -0.1476  0.0150  0.6288
    4MOL    C57 2943   5.490   3.935   0.240 -0.2760  0.0205 -0.5206
    4MOL    C58 2944   5.529   4.055   0.159 -0.1737 -0.0241 -0.1127
    4MOL    N59 2945   5.632   4.135   0.229  0.3172 -0.0033 -0.7610
    4MOL    C60 2946   5.670   4.256   0.195  0.2858 -0.5932  0.5715
    4MOL    O61 2947   5.638   4.307   0.086  0.3420 -0.1307  0.6541
    4MOL    C62 2948   5.735   4.334   0.311 -0.0406  0.0311  0.9640
    4MOL    C63 2949   5.641   4.424   0.393  0.0394  0.3830  0.2712
    4MOL    C64 2950   5.574   4.345   0.502  0.3632  0.7245 -0.5840
    4MOL    C65 2951   5.484   4.430   0.591 -0.2903  0.0486  0.1382
    4MOL    C66 2952   5.424   4.357   0.716 -1.0574 -0.1836  1.1875
    4MOL    C67 2953   5.321   4.265   0.671  0.2689  0.6667  0.4652
    4MOL    C68 2954   5.263   4.193   0.788  0.2552  0.4262 -0.2740
    4MOL    C69 2955   5.161   4.272   0.872  0.0968 -0.4054  0.0182
    4MOL    C70 2956   5.014   4.245   0.830  0.3678  0.4538 -0.7410
    4MOL    O71 2957   4.987   4.186   0.724  0.0261 -0.3159 -0.3353
    4MOL    H72 2958   5.642   3.576   0.118  0.8127  0.0769  1.4620
    4MOL    H73 2959   5.600   3.814   0.014 -1.5097  2.3800  1.4471
    4MOL    H74 2960   5.728   3.854   0.126  1.5946 -0.5352 -0.3979
    4MOL    H75 2961   5.543   3.602   0.289 -0.1418  0.1528 -1.2502
    4MOL    H76 2962   5.388   3.638   0.461 -0.2754  0.1655  0.3561
    4MOL    H77 2963   5.269   3.854   0.489  1.9639 -1.2483  2.8832
    4MOL    H78 2964   5.353   4.058   0.345 -2.4270 -0.7676 -1.6051
    4MOL    H79 2965   5.446   4.124   0.145  0.8261  0.6730 -2.8605
    4MOL    H80 2966   5.574   4.025   0.065 -0.1277  0.1235 -0.1367
    4MOL    H81 2967   5.655   4.089   0.315 -0.9073 -1.4947 -1.1938
    4MOL    H82 2968   5.813   4.394   0.265 -0.6136 -0.7832 -1.1340
    4MOL    H83 2969   5.786   4.264   0.376 -1.7566  0.1182  2.4392
    4MOL    H84 2970   5.564   4.477   0.337  1.0624  2.6715  0.9667
    4MOL    H85 2971   5.702   4.499   0.444  0.0250  0.1567  0.6239
    4MOL    H86 2972   5.511   4.274   0.448 -0.7198  2.5784 -1.8135
    4MOL    H87 2973   5.647   4.297   0.568 -0.1510  2.8281  1.5917
    4MOL    H88 2974   5.541   4.511   0.637 -0.9022  1.7824 -2.0878
    4MOL    H89 2975   5.408   4.478   0.528  0.5609 -0.4650 -1.2962
    4MOL    H90 2976   5.506   4.302   0.762  0.2416 -0.6165 -1.5602
    4MOL    H91 2977   5.397   4.422   0.799  0.4628  2.2679 -0.1769
    4MOL    H92 2978   5.359   4.190   0.601  0.9571  2.6324 -1.3318
    4MOL    H93 2979   5.242   4.316   0.614 -1.4693 -2.6422 -0.2104
    4MOL    H94 2980   5.346   4.169   0.855 -1.2725 -0.9588  1.1880
    4MOL    H95 2981   5.227   4.092   0.766  0.1383  0.1695  1.0198
    4MOL    H96 2982   5.175   4.380   0.873  2.5353 -0.6716  3.0964
    4MOL    H97 2983   5.162   4.240   0.976  0.3601 -0.3728  0.0271
    4MOL    N98 2984   4.918   4.282   0.915 -0.4808 -0.1951  0.8426
    4MOL    C99 2985   4.776   4.256   0.886  0.2854  0.3894  0.3868
    4MOL   C100 2986   4.714   4.365   0.794 -0.3624  0.0532 -0.3592
    4MOL   C101 2987   4.692   4.496   0.853  0.3353  0.2583  0.0490
    4MOL   C102 2988   4.625   4.591   0.775  0.2336 -0.2014 -0.3470
    4MOL   C103 2989   4.566   4.560   0.649  0.0817  0.1738  0.5154
    4MOL   C104 2990   4.568   4.423   0.611 -0.2908 -0.9208 -0.3814
    4MOL   C105 2991   4.640   4.321   0.678 -0.6115 -0.4389  0.6408
    4MOL   C106 2992   4.630   4.172   0.627 -0.0826 -0.1628 -0.1016
    4MOL   N107 2993   4.749   4.119   0.579 -0.4095 -0.0628 -0.2014
    4MOL   C108 2994   4.752   4.002   0.519  0.8436  0.0928  0.3857
    4MOL   O109 2995   4.651   3.935   0.505  0.7847 -0.2990 -0.9492
    4MOL   C110 2996   4.880   3.941   0.471 -0.1386 -0.0397 -0.1344
    4MOL   C111 2997   4.910   3.803   0.537  0.1983  0.2810 -0.6660
    4MOL   C112 2998   4.947   3.815   0.691 -0.1685 -0.3328  0.3411
    4MOL   C113 2999   4.959   3.688   0.767 -0.9502  0.2444 -0.5471
    4MOL   C114 3000   4.820   3.629   0.805 -0.4697  0.9103 -0.1849
    4MOL   C115 3001   4.850   3.498   0.875 -0.5731  0.0242 -0.4526
    4MOL   C116 3002   4.731   3.434   0.945  0.5559  0.4820  0.8322
    4MOL   C117 3003   4.628   3.366   0.851 -0.0761  0.6360  0.2362
    4MOL   C118 3004   4.668   3.241   0.783 -0.5129  0.4419  0.4961
    4MOL   O119 3005   4.713   3.139   0.844 -0.1452 -0.1049 -0.1378
    4MOL   H120 3006   4.935   4.316   1.009  1.4546  3.5586 -0.7831
    4MOL   H121 3007   4.764   4.152   0.856  1.2452  0.4886 -0.3448
    4MOL   H122 3008   4.719   4.261   0.979 -2.1266 -2.0851 -0.8860
    4MOL   H123 3009   4.734   4.533   0.946 -2.2301 -1.5078  1.9724
    4MOL   H124 3010   4.621   4.693   0.811  2.3490 -0.0843 -0.3884
    4MOL   H125 3011   4.514   4.636   0.593 -0.5024 -0.5529  0.0525
    4MOL   H126 3012   4.514   4.391   0.523  0.3907  1.5100 -1.7369
    4MOL   H127 3013   4.562   4.164   0.542  0.6594  1.0187 -0.8156
    4MOL   H128 3014   4.587   4.104   0.701  2.3350 -2.6849 -0.9285
    4MOL   H129 3015   4.836   4.170   0.585  0.1930 -1.0242 -0.6842
    4MOL   H130 3016   4.959   4.009   0.504  1.2068 -1.9698  0.6922
    4MOL   H131 3017   4.880   3.944   0.362 -1.8726 -0.2226 -0.1565
    4MOL   H132 3018   5.002   3.763   0.494  0.7361 -2.3154  2.6467
    4MOL   H133 3019   4.838   3.722   0.524  1.1403 -0.4480 -1.3825
    4MOL   H134 3020   5.038   3.873   0.701  0.7735 -1.9213  1.2679
    4MOL   H135 3021   4.872   3.877   0.739  1.1183  0.8766  0.7909
    4MOL   H136 3022   5.007   3.607   0.712 -0.3482  0.7180 -0.7219
    4MOL   H137 3023   5.014   3.701   0.860 -1.0355 -1.1582 -0.2926
    4MOL   H138 3024   4.767   3.688   0.879  0.6891  0.8239  0.7291
    4MOL   H139 3025   4.757   3.599   0.721  0.1768 -0.2097 -0.2888
    4MOL   H140 3026   4.919   3.505   0.958 -0.0472 -1.3558 -0.7622
    4MOL   H141 3027   4.891   3.421   0.810 -0.3344  0.3904 -0.7392
    4MOL   H142 3028   4.750   3.352   1.014 -0.7646 -2.4814 -2.1535
    4MOL   H143 3029   4.679   3.509   1.004  0.3101  0.6020  0.4666
    4MOL   H144 3030   4.582   3.440   0.786 -1.3876 -0.2921  0.0865
    4MOL   H145 3031   4.544   3.334   0.911 -0.3768 -0.2706 -0.6496
    4MOL   N146 3032   4.653   3.238   0.649 -0.1282  0.3986  0.2464
    4MOL   C147 3033   4.695   3.122   0.565 -0.0826 -0.6600  0.4065
    4MOL   C148 3034   4.795   3.146   0.452  0.0570  0.3816  0.0529
    4MOL   C149 3035   4.899   3.245   0.470 -0.3051 -0.0454  0.5713
    4MOL   C150 3036   4.998   3.271   0.365 -0.2429  0.1177 -0.0549
    4MOL   C151 3037   4.981   3.205   0.239  0.4985 -0.1410 -0.5412
    4MOL   C152 3038   4.884   3.098   0.226 -0.4626 -0.3195 -0.8648
    4MOL   C153 3039   4.795   3.069   0.329 -0.0885  0.1443 -0.4009
    4MOL   C154 3040   4.699   2.952   0.302 -0.3156 -0.3982  0.7832
    4MOL   N155 3041   4.755   2.824   0.341  0.2825  0.0619 -0.4290
    4MOL   C156 3042   4.689   2.707   0.352 -0.6918  0.3572 -0.8092
    4MOL   O157 3043   4.573   2.679   0.327  0.0141 -0.1036 -0.1525
    4MOL   C158 3044   4.768   2.594   0.410  0.0293 -0.3759  1.1159
    4MOL   C159 3045   4.753   2.458   0.336 -0.5172  0.3624 -0.0495
    4MOL   C160 3046   4.824   2.453   0.197 -0.0543  0.2157  0.0207
    4MOL   C161 3047   4.815   2.318   0.130  0.0153  0.0471 -0.3146
    4MOL   C162 3048   4.672   2.285   0.085  0.1683  0.1423  0.2072
    4MOL   C163 3049   4.649   2.142   0.048 -0.0247 -0.4310 -0.9502
    4MOL   C164 3050   4.519   2.131   7.748 -0.6577  0.7248 -0.1888
    4MOL   C165 3051   4.503   1.983   7.702 -0.3761  0.1392 -0.8267
    4MOL   C166 3052   4.422   1.961   7.577  0.3237  0.0050 -0.8001
    4MOL   O167 3053   4.459   2.009   7.470 -0.5677  0.0412  0.0901
    4MOL   H168 3054   4.618   3.320   0.601  0.1339 -0.4676 -1.4497
    4MOL   H169 3055   4.600   3.079   0.534 -1.2471  0.8342  1.8112
    4MOL   H170 3056   4.732   3.033   0.615 -1.6348 -1.1915  0.6372
    4MOL   H171 3057   4.899   3.290   0.568 -1.0721 -0.9191  0.9828
    4MOL   H172 3058   5.075   3.346   0.375 -0.7558  0.5231  0.9967
    4MOL   H173 3059   5.031   3.233   0.147  2.5339 -1.2501  0.2199
    4MOL   H174 3060   4.884   3.047   0.131  1.5945  0.6938 -1.4547
    4MOL   H175 3061   4.673   2.947   0.196 -0.1710 -1.0723  0.7793
    4MOL   H176 3062   4.606   2.974   0.353 -1.4810 -1.3861 -0.8657
    4MOL   H177 3063   4.849   2.831   0.376  0.2122 -1.8821  0.2228
    4MOL   H178 3064   4.714   2.596   0.505 -3.0507 -0.0496 -0.5739
    4MOL   H179 3065   4.872   2.612   0.439  0.6263 -3.3560  1.0402
    4MOL   H180 3066   4.648   2.436   0.315 -0.3884 -0.1544 -0.1684
    4MOL   H181 3067   4.775   2.368   0.393 -0.3790  0.1696 -0.4079
    4MOL   H182 3068   4.761   2.524   0.143 -2.2882 -1.6225  0.1208
    4MOL   H183 3069   4.927   2.483   0.212 -1.1343  4.3288 -0.1428
    4MOL   H184 3070   4.884   2.318   0.045  0.1317 -0.2071 -0.2219
    4MOL   H185 3071   4.847   2.244   0.204 -0.6179 -0.8162 -0.8963
    4MOL   H186 3072   4.601   2.325   0.158 -2.0773 -0.1736 -1.7683
    4MOL   H187 3073   4.643   2.352   0.005 -0.6528 -1.7223 -1.0796
    4MOL   H188 3074   4.640   2.080   0.137  0.3074  2.4919  1.1781
    4MOL   H189 3075   4.735   2.105   7.781 -0.1896 -0.0712 -1.4394
    4MOL   H190 3076   4.426   2.159   0.007 -1.1789  0.7362 -1.1674
    4MOL   H191 3077   4.515   2.193   7.658  0.0616  2.1759  0.7736
    4MOL   H192 3078   4.474   1.925   7.789 -1.0028  1.0579 -0.4127
    4MOL   H193 3079   4.596   1.930   7.682  0.5709  1.2276  0.6190
    4MOL   N194 3080   4.300   1.903   7.591  0.6299 -0.3585 -0.2228
    4MOL   C195 3081   4.213   1.871   7.485 -0.1435  0.6233 -0.6867
    4MOL   C196 3082   4.254   1.749   7.401  0.0832 -0.2321  0.1369
    4MOL   C197 3083   4.299   1.631   7.465  0.2499  0.7877  0.0712
    4MOL   C198 3084   4.322   1.512   7.390  1.0325  0.1458 -0.5664
    4MOL   C199 3085   4.325   1.522   7.254 -0.2977 -0.0309 -0.6357
    4MOL   C200 3086   4.283   1.639   7.193  0.8739  0.7616  0.0319
    4MOL   C201 3087   4.243   1.750   7.264 -0.2353 -0.6899 -0.4884
    4MOL   C202 3088   4.196   1.869   7.187  0.3079 -0.7300  0.6414
    4MOL   N203 3089   4.305   1.963   7.170 -0.2409  0.5005  0.3150
    4MOL   C204 3090   4.297   2.073   7.093  0.0396  0.4218  0.3094
    4MOL   O205 3091   4.191   2.113   7.045 -0.2820 -0.2686  0.0917
    4MOL   C206 3092   4.422   2.149   7.082  0.2039  0.3533  0.1699
    4MOL   C207 3093   4.413   2.270   6.987  0.1764 -0.3162  0.6359
    4MOL   C208 3094   4.354   2.399   7.052 -0.8312 -0.0576 -0.0948
    4MOL   C209 3095   4.384   2.519   6.959  0.5787 -0.3529 -0.0037
    4MOL   C210 3096   4.335   2.654   7.004  0.3144 -0.8370  0.0393
    4MOL   C211 3097   4.404   2.781   6.945 -0.0191 -0.1141 -0.2655
    4MOL   C212 3098   4.402   2.908   7.029  0.5036 -0.4692 -0.1767
    4MOL   C213 3099   4.465   3.037   6.961  0.3387 -0.4373  0.1927
    4MOL   C214 3100   4.369   3.106   6.859  0.4214 -0.3379  0.3341
    4MOL   O215 3101   4.252   3.132   6.883 -0.2779  0.1696 -0.2642
    4MOL   H216 3102   4.273   1.887   7.687 -2.4945 -1.8759 -1.2707
    4MOL   H217 3103   4.115   1.844   7.525  1.1712 -0.8628  1.6394
    4MOL   H218 3104   4.187   1.966   7.439 -2.7611  0.2476 -0.0664
    4MOL   H219 3105   4.301   1.645   7.572  0.8443 -1.3885  0.3745
    4MOL   H220 3106   4.338   1.420   7.443 -2.6693  0.8148  1.9784
    4MOL   H221 3107   4.347   1.433   7.196 -2.6396 -0.2374 -1.2417
    4MOL   H222 3108   4.271   1.645   7.086  0.6630  0.8863  0.0629
    4MOL   H223 3109   4.125   1.938   7.234 -0.0651 -0.5684 -0.1404
    4MOL   H224 3110   4.150   1.841   7.092  0.3255 -0.9973  0.7131
    4MOL   H225 3111   4.391   1.932   7.213 -0.2096  0.3149  0.1190
    4MOL   H226 3112   4.495   2.079   7.042 -1.1884  0.3192 -2.4585
    4MOL   H227 3113   4.467   2.178   7.177  0.7128  0.4760 -0.1029
    4MOL   H228 3114   4.515   2.290   6.955  1.2449 -1.3343  3.2142
    4MOL   H229 3115   4.362   2.240   6.896 -0.9776 -1.2166  1.5576
    4MOL   H230 3116   4.247   2.401   7.077 -0.2521  1.6918  2.4056
    4MOL   H231 3117   4.393   2.411   7.152  0.5133  0.2605 -0.6538
    4MOL   H232 3118   4.488   2.530   6.928  0.5591  1.5874  0.5086
    4MOL   H233 3119   4.333   2.511   6.863 -0.6820 -3.1434  0.8489
    4MOL   H234 3120   4.228   2.655   6.984  0.4682 -0.8451 -0.8122
    4MOL   H235 3121   4.346   2.674   7.110 -1.1908  1.6985 -0.2509
    4MOL   H236 3122   4.349   2.810   6.855  0.8909  0.1328 -0.7419
    4MOL   H237 3123   4.510   2.762   6.931  0.1865  0.5939  0.2547
    4MOL   H238 3124   4.443   2.884   7.127 -3.2606  0.8448  1.8376
    4MOL   H239 3125   4.297   2.932   7.047  1.2061  2.2009  0.5333
    4MOL   H240 3126   4.483   3.113   7.038  1.6859 -1.3884  0.8338
    4MOL   H241 3127   4.557   3.006   6.913 -0.6643 -0.2715 -1.8649
    4MOL   N242 3128   4.425   3.135   6.737 -0.2737 -0.0865 -0.7843
    4MOL   C243 3129   4.354   3.197   6.624 -0.1230  0.1149  0.4896
    4MOL   C244 3130   4.428   3.194   6.495 -0.0158 -0.4546  0.1396
    4MOL   C245 3131   4.404   3.082   6.408  0.5052  0.2635  0.8430
    4MOL   C246 3132   4.464   3.075   6.283 -0.0683  0.4982 -0.2407
    4MOL   C247 3133   4.542   3.178   6.240 -0.1218  0.1551  0.2323
    4MOL   C248 3134   4.573   3.286   6.324 -0.1187 -0.4742 -0.3037
    4MOL   C249 3135   4.517   3.295   6.453 -0.1067 -0.6420  0.9809
    4MOL   C250 3136   4.551   3.409   6.552 -0.1743 -0.3707  0.6247
    4MOL   N251 3137   4.583   3.530   6.483  0.4107  0.4737  0.4137
    4MOL   C252 3138   4.675   3.620   6.522  0.5167  0.1745 -0.1308
    4MOL   O253 3139   4.758   3.592   6.610  0.3637  0.0712 -0.3917
    4MOL   C254 3140   4.692   3.751   6.448  0.5253  0.2088  0.3903
    4MOL   C255 3141   4.615   3.863   6.510  0.4355  0.3479  0.3428
    4MOL   C256 3142   4.468   3.860   6.444  0.0088 -0.0257  0.1346
    4MOL   C257 3143   4.369   3.949   6.519 -0.1006  0.4259  0.6943
    4MOL   C258 3144   4.225   3.937   6.465  0.0787  0.2660 -0.0847
    4MOL   C259 3145   4.131   4.026   6.552  0.4954 -0.0609  0.2104
    4MOL   C260 3146   3.977   4.012   6.501 -0.4817 -0.6259  0.1518
    4MOL   C261 3147   3.960   4.041   6.348  0.0884  0.1252 -1.2194
    4MOL   C262 3148   4.028   4.166   6.290 -0.4489  0.2714 -0.6250
    4MOL   O263 3149   4.010   4.275   6.336  0.2896  0.0495  0.2577
    4MOL   H264 3150   4.519   3.101   6.725 -0.7155 -2.3276  1.6666
    4MOL   H265 3151   4.253   3.157   6.615  0.1949 -0.7522  0.7106
    4MOL   H266 3152   4.324   3.298   6.650  0.8720  0.4446  0.3788
    4MOL   H267 3153   4.343   3.000   6.443 -0.2064  0.4566  0.0870
    4MOL   H268 3154   4.451   2.985   6.224  0.3408  0.6730 -0.6066
    4MOL   H269 3155   4.581   3.175   6.139 -1.6198  1.7723 -0.4298
    4MOL   H270 3156   4.638   3.365   6.291  1.5024 -1.3738  0.6779
    4MOL   H271 3157   4.635   3.374   6.613  1.6803 -0.8164 -2.0961
    4MOL   H272 3158   4.473   3.442   6.622 -2.1223 -1.8841 -0.7902
    4MOL   H273 3159   4.512   3.561   6.418  1.6623  0.1272 -1.1461
    4MOL   H274 3160   4.671   3.756   6.341 -2.2316  0.9143  0.9285
    4MOL   H275 3161   4.800   3.762   6.462  0.8454 -1.2768 -0.8317
    4MOL   H276 3162   4.658   3.961   6.493  0.7894 -0.1412 -1.8423
    4MOL   H277 3163   4.613   3.854   6.618 -0.7535 -0.2647  0.2810
    4MOL   H278 3164   4.429   3.758   6.444 -0.7486  0.2151 -2.4993
    4MOL   H279 3165   4.469   3.895   6.341 -0.0153  0.8615  0.4380
    4MOL   H280 3166   4.377   3.910   6.621  0.3786  0.3196  0.6164
    4MOL   H281 3167   4.398   4.054   6.514  0.0384  0.3192 -1.2091
    4MOL   H282 3168   4.230   3.987   6.369 -0.2172 -0.8625 -0.6957
    4MOL   H283 3169   4.184   3.838   6.443 -1.1563  0.6096  0.6028
    4MOL   H284 3170   4.166   4.129   6.549  0.1714  0.0556  0.4003
    4MOL   H285 3171   4.127   3.987   6.654  0.1156 -1.8457 -0.4723
    4MOL   H286 3172   3.953   3.907   6.522 -2.1764 -0.2123  0.3525
    4MOL   H287 3173   3.914   4.070   6.568 -1.6319 -2.2300  0.4886
    4MOL   H288 3174   3.980   3.949   6.294 -2.5292  0.8774 -3.5964
    4MOL   H289 3175   3.854   4.058   6.331 -0.6167 -1.6448  1.1000
    4MOL   N290 3176   4.092   4.144   6.175 -0.2385 -0.0008  0.3176
    4MOL   C291 3177   4.178   4.237   6.104  0.7405  0.1768  0.3897
    4MOL   C292 3178   4.300   4.284   6.182 -0.4004  1.2120 -0.2515
    4MOL   C293 3179   4.392   4.182   6.229 -0.8177  0.0938  0.2958
    4MOL   C294 3180   4.509   4.223   6.300  0.1512  0.1901 -0.1443
    4MOL   C295 3181   4.537   4.359   6.324  0.0120  0.5460 -0.1885
    4MOL   C296 3182   4.452   4.458   6.270  0.2447  0.4111  0.2696
    4MOL   C297 3183   4.338   4.417   6.199  0.2665 -0.3158 -0.0197
    4MOL   C298 3184   4.255   4.532   6.140 -0.4985  0.8860 -0.1963
    4MOL   N299 3185   4.115   4.532   6.178  0.2185  0.0625  0.9724
    4MOL   C300 3186   4.031   4.604   6.103  0.4091  0.2796 -0.2607
    4MOL   O301 3187   4.064   4.684   6.017 -0.3345 -0.4766  0.2638
    4MOL   C302 3188   3.888   4.573   6.123  0.0631  0.3802  1.0582
    4MOL   C303 3189   3.806   4.704   6.138  0.4332 -0.1679  0.0291
    4MOL   C304 3190   3.847   4.778   6.266 -0.4055  0.6433  0.5610
    4MOL   C305 3191   3.740   4.874   6.314  0.2797 -0.4306  0.2232
    4MOL   C306 3192   3.796   4.966   6.426 -0.3679 -0.1078 -0.4476
    4MOL   C307 3193   3.704   5.085   6.445 -0.1102  0.5954 -0.4411
    4MOL   C308 3194   3.713   5.184   6.324  0.4181 -0.1895 -0.2887
    4MOL   C309 3195   3.651   5.331   6.336  0.1973 -0.3338 -0.4563
    4MOL   C310 3196   3.732   5.429   6.424 -0.2191  1.0807 -1.1000
    4MOL   O311 3197   3.832   5.389   6.478 -0.0005  0.4049 -0.5261
    4MOL   H312 3198   4.099   4.047   6.150  0.4282 -0.0796  0.8147
    4MOL   H313 3199   4.216   4.194   6.012  2.7950  0.0129  1.2938
    4MOL   H314 3200   4.110   4.318   6.079 -0.6839 -1.2714 -0.5800
    4MOL   H315 3201   4.381   4.076   6.215  0.6267 -0.4032  2.5523
    4MOL   H316 3202   4.580   4.151   6.339 -0.8258  0.1974  1.7036
    4MOL   H317 3203   4.620   4.388   6.386 -0.3306 -0.5463  0.8079
    4MOL   H318 3204   4.471   4.561   6.297 -2.6133  1.4060 -1.3779
    4MOL   H319 3205   4.268   4.536   6.032  1.2895 -0.1776 -0.0471
    4MOL   H320 3206   4.291   4.628   6.178 -0.3040  1.2428 -1.2709
    4MOL   H321 3207   4.078   4.468   6.247 -2.3541 -1.8482 -2.0485
    4MOL   H322 3208   3.857   4.498   6.050 -1.1324  0.6868  1.2404
    4MOL   H323 3209   3.880   4.519   6.218  0.4349  1.1514  1.5295
    4MOL   H324 3210   3.700   4.680   6.144 -0.4828  1.6516 -5.7569
    4MOL   H325 3211   3.816   4.770   6.051  2.2613 -1.9156 -1.1578
    4MOL   H326 3212   3.942   4.830   6.255  1.0486 -1.9780  0.2402
    4MOL   H327 3213   3.861   4.708   6.348 -0.3703 -0.7875 -0.6485
    4MOL   H328 3214   3.711   4.923   6.220  1.8287 -0.0311 -0.0518
    4MOL   H329 3215   3.648   4.831   6.354  0.1027 -0.0609  0.2190
    4MOL   H330 3216   3.803   4.916   6.523 -2.3167  1.5277  0.5478
    4MOL   H331 3217   3.898   5.002   6.413 -0.4322  0.3197  0.2686
    4MOL   H332 3218   3.743   5.142   6.529 -0.0868  0.0636 -0.0863
    4MOL   H333 3219   3.606   5.040   6.459 -0.4937  1.9181  1.3088
    4MOL   H334 3220   3.818   5.180   6.295  0.2755 -0.6720 -0.7468
    4MOL   H335 3221   3.665   5.127   6.244 -0.4336 -1.4830  1.1151
    4MOL   H336 3222   3.626   5.380   6.242  1.1366 -2.3937 -1.8036
    4MOL   H337 3223   3.551   5.331   6.382  0.9527  1.5279  1.2445
    4MOL   N338 3224   3.693   5.557   6.418  0.0805  0.9400 -0.0806
    4MOL   C339 3225   3.771   5.670   6.469 -0.0657  0.1134 -0.0398
    4MOL   C340 3226   3.714   5.799   6.419 -0.4841  0.3204 -0.0798
    4MOL   C341 3227   3.639   5.890   6.500  0.0638  0.3086 -0.5469
    4MOL   C342 3228   3.612   6.020   6.450  0.2075 -0.3711 -0.1962
    4MOL   C343 3229   3.633   6.053   6.315 -0.4728 -0.1434  0.0237
    4MOL   C344 3230   3.697   5.963   6.232 -0.5434  0.5654 -0.8227
    4MOL   C345 3231   3.744   5.839   6.285 -0.2493 -0.3427  0.0312
    4MOL   C346 3232   3.811   5.755   6.186 -0.3530  0.4690 -0.4301
    4MOL   N347 3233   3.720   5.674   6.119  0.5384  0.1335  0.4726
    4MOL   C348 3234   3.743   5.614   6.004 -1.2799  0.2576  0.4052
    4MOL   O349 3235   3.848   5.616   5.939 -0.3681  0.0554 -0.5193
    4MOL   C350 3236   3.617   5.548   5.939  0.1171 -0.5758 -0.1638
    4MOL   C351 3237   3.540   5.631   5.840  0.0272  0.2772 -0.8036
    4MOL   C352 3238   3.614   5.687   5.718 -0.4101  0.1962  0.9071
    4MOL   C353 3239   3.659   5.580   5.612  0.0258 -0.2412  0.2703
    4MOL   C354 3240   3.739   5.630   5.491 -0.3444 -0.2331 -0.0490
    4MOL   C355 3241   3.800   5.521   5.397 -0.1500 -0.2685 -0.6603
    4MOL   C356 3242   3.707   5.461   5.294 -0.2290 -0.4466  0.1964
    4MOL   C357 3243   3.762   5.334   5.223 -0.4366  0.3178 -0.0076
    4MOL   C358 3244   3.895   5.348   5.158 -0.5469  0.0059  0.0292
    4MOL   O359 3245   3.904   5.422   5.058  0.2495 -0.2996  0.2555
    4MOL   H360 3246   3.605   5.566   6.370  0.4730 -1.9031 -1.4789
    4MOL   H361 3247   3.760   5.668   6.577  0.2105  1.2147  0.0100
    4MOL   H362 3248   3.877   5.664   6.446  0.1688 -1.5759  1.4325
    4MOL   H363 3249   3.601   5.865   6.598 -1.1038  1.5049 -0.6735
    4MOL   H364 3250   3.555   6.091   6.507  0.0222 -0.7685  0.1184
    4MOL   H365 3251   3.601   6.149   6.279 -0.1786 -0.1139 -0.1640
    4MOL   H366 3252   3.714   5.982   6.127 -0.1548 -1.4704 -1.1442
    4MOL   H367 3253   3.891   5.702   6.238  0.1155 -0.3782 -2.0040
    4MOL   H368 3254   3.861   5.819   6.113 -0.0250  2.7753  1.7393
    4MOL   H369 3255   3.627   5.649   6.150  1.0186 -0.5212  1.4300
    4MOL   H370 3256   3.546   5.513   6.014  2.0235  0.1847  2.0643
    4MOL   H371 3257   3.662   5.464   5.885  1.2399 -1.6682  2.3591
    4MOL   H372 3258   3.491   5.718   5.883 -0.2349 -0.8651  1.3133
    4MOL   H373 3259   3.472   5.563   5.787  0.8991 -1.6009  0.4101
    4MOL   H374 3260   3.554   5.765   5.671 -2.3477  0.0655  3.0747
    4MOL   H375 3261   3.704   5.742   5.748 -0.2622  0.1860  0.4849
    4MOL   H376 3262   3.567   5.536   5.575  0.0304  1.5361 -1.9663
    4MOL   H377 3263   3.715   5.500   5.661 -1.5992 -1.0153  0.8797
    4MOL   H378 3264   3.674   5.693   5.430  1.7874  1.9300 -0.1374
    4MOL   H379 3265   3.828   5.685   5.520 -2.2102  1.6151  2.4030
    4MOL   H380 3266   3.830   5.448   5.472 -0.5549  1.1587  0.9183
    4MOL   H381 3267   3.876   5.567   5.334  1.0011 -1.5184 -0.2061
    4MOL   H382 3268   3.607   5.441   5.332 -0.5401 -0.1383 -0.4553
    4MOL   H383 3269   3.688   5.535   5.216  0.4209  2.0685  2.3194
    4MOL   H384 3270   3.693   5.310   5.143  0.5993 -1.0544 -0.5156
    4MOL   H385 3271   3.747   5.254   5.296  0.1360  0.8177  0.6708
    4MOL   N386 3272   3.997   5.278   5.212  0.3066 -0.1741 -0.4281
    4MOL   C387 3273   4.132   5.268   5.159 -0.0428  0.3016  0.5687
    4MOL   C388 3274   4.162   5.145   5.076  0.2679  0.0674 -0.4225
    4MOL   C389 3275   4.078   5.036   5.088  0.0255 -0.3222  0.0372
    4MOL   C390 3276   4.099   4.923   5.009  0.3769 -0.2376 -0.1591
    4MOL   C391 3277   4.207   4.921   4.915 -0.0722  0.6296  0.1273
    4MOL   C392 3278   4.294   5.034   4.908  0.5692 -0.2559 -0.0504
    4MOL   C393 3279   4.272   5.146   4.983 -0.8526  0.0845 -0.5238
    4MOL   C394 3280   4.366   5.268   4.964  0.0961 -0.7960 -0.0854
    4MOL   N395 3281   4.491   5.247   4.893 -0.0411  0.7467  0.0486
    4MOL   C396 3282   4.560   5.344   4.836  0.5410 -0.1299 -0.0357
    4MOL   O397 3283   4.546   5.461   4.869  0.4809 -0.3116 -0.7228
    4MOL   C398 3284   4.669   5.302   4.739 -0.0635  0.0609 -0.3941
    4MOL   C399 3285   4.746   5.407   4.658 -0.4072  0.4110  0.1607
    4MOL   C400 3286   4.854   5.483   4.741 -0.8810  0.1454  0.0504
    4MOL   C401 3287   4.973   5.396   4.792 -0.1467  0.4354  0.5519
    4MOL   C402 3288   5.089   5.484   4.834 -0.5876 -0.1994  0.0913
    4MOL   C403 3289   5.224   5.402   4.859 -0.3658 -0.5603  0.6259
    4MOL   C404 3290   5.278   5.315   4.739  0.0179  1.1033 -0.0719
    4MOL   C405 3291   5.423   5.275   4.758  0.3151 -0.0273  0.2384
    4MOL   C406 3292   5.452   5.193   4.885  0.4041  0.2803  0.1790
    4MOL   O407 3293   5.368   5.104   4.903 -0.3319 -0.2232 -0.4334
    4MOL   H408 3294   3.984   5.215   5.289 -1.0521 -2.0004 -2.0900
    4MOL   H409 3295   4.138   5.341   5.079  1.0371  0.8735  1.1750
    4MOL   H410 3296   4.200   5.275   5.244 -1.0798  0.0038  1.4432
    4MOL   H411 3297   3.998   5.031   5.161 -0.7589 -1.3615 -0.8740
    4MOL   H412 3298   4.036   4.835   5.010  1.2001 -0.8377 -0.8383
    4MOL   H413 3299   4.215   4.839   4.845 -0.0952  0.9635 -0.2683
    4MOL   H414 3300   4.374   5.016   4.838 -1.4810 -2.4058 -1.9009
    4MOL   H415 3301   4.393   5.304   5.063  0.9476 -0.4155 -0.4486
    4MOL   H416 3302   4.301   5.345   4.921  1.4172  0.6445  0.4852
    4MOL   H417 3303   4.520   5.150   4.882 -1.1577  0.3611  0.4775
    4MOL   H418 3304   4.742   5.244   4.796  0.3812 -0.9406 -1.9524
    4MOL   H419 3305   4.626   5.218   4.684 -0.0667  1.5766 -2.7595
    4MOL   H420 3306   4.668   5.468   4.613 -1.1946 -0.4531  0.3303
    4MOL   H421 3307   4.798   5.352   4.580  1.3321  1.0632  0.8403
    4MOL   H422 3308   4.803   5.538   4.820  1.6436 -0.1498  1.9456
    4MOL   H423 3309   4.879   5.563   4.671 -1.1362 -0.1672 -0.4059
    4MOL   H424 3310   4.947   5.325   4.871 -0.3571 -1.4987 -1.2032
    4MOL   H425 3311   5.003   5.325   4.715 -1.0477 -1.1704  1.6505
    4MOL   H426 3312   5.101   5.564   4.761 -0.8946 -0.0490  0.2058
    4MOL   H427 3313   5.049   5.546   4.914  0.4315  1.0885 -0.3919
    4MOL   H428 3314   5.206   5.333   4.942  2.3659  0.5589  2.2035
    4MOL   H429 3315   5.304   5.468   4.891 -0.1723 -1.5452  2.2505
    4MOL   H430 3316   5.251   5.377   4.654  3.0226  2.0565 -0.3930
    4MOL   H431 3317   5.212   5.229   4.731  0.7898  0.4417  0.5984
    4MOL   H432 3318   5.484   5.364   4.747  0.0057 -0.0774 -2.0328
    4MOL   H433 3319   5.456   5.221   4.669 -0.6796 -1.7232  0.8597
    4MOL   N434 3320   5.554   5.223   4.960 -0.4454  0.1805 -1.0737
    4MOL   C435 3321   5.573   5.156   5.092 -0.2056  0.0959 -0.1527
    4MOL   C436 3322   5.712   5.138   5.145  0.4418 -0.1107  0.0036
    4MOL   C437 3323   5.736   5.020   5.221  0.4753  0.1831 -0.4013
    4MOL   C438 3324   5.859   4.995   5.287  0.6159 -0.5244  0.0872
    4MOL   C439 3325   5.955   5.095   5.279  0.2405  0.4274  0.6100
    4MOL   C440 3326   5.935   5.210   5.196  0.3650  0.1593  0.1024
    4MOL   C441 3327   5.808   5.238   5.142 -0.2451  0.1360  0.4452
    4MOL   C442 3328   5.797   5.374   5.070 -0.5411  0.0292  0.2725
    4MOL   N443 3329   5.811   5.349   4.927 -0.2798  0.3745  0.0348
    4MOL   C444 3330   5.754   5.424   4.829 -0.1189  0.2054  0.4600
    4MOL   O445 3331   5.689   5.525   4.858  0.5345 -0.3290 -0.0763
    4MOL   C446 3332   5.785   5.386   4.685 -0.9729 -0.1801  0.9350
    4MOL   C447 3333   5.871   5.495   4.608 -0.4728 -0.0727  0.0901
    4MOL   C448 3334   5.784   5.581   4.514  0.2292  0.0429 -0.5265
    4MOL   C449 3335   5.679   5.665   4.589 -0.0878  0.2597 -0.0977
    4MOL   C450 3336   5.615   5.776   4.507 -0.5824  0.1100  0.3593
    4MOL   C451 3337   5.506   5.722   4.407  0.2911  0.5872 -0.0285
    4MOL   C452 3338   5.357   5.744   4.456 -0.5841 -0.1024  0.9047
    4MOL   C453 3339   5.320   5.678   4.585 -0.3163 -0.2268  0.2044
    4MOL   C454 3340   5.336   5.768   4.709 -0.1576  0.7519  0.2065
    4MOL   O455 3341   5.301   5.884   4.704  0.0245  0.5213  0.4517
    4MOL   H456 3342   5.616   5.294   4.924 -0.4860 -0.2739 -2.0618
    4MOL   H457 3343   5.530   5.057   5.079 -1.0472  0.5288 -0.7086
    4MOL   H458 3344   5.510   5.207   5.165  0.8480 -0.1284  0.9282
    4MOL   H459 3345   5.651   4.956   5.237  1.9228 -1.6976 -0.1358
    4MOL   H460 3346   5.871   4.901   5.340  1.7519  0.0599  0.9029
    4MOL   H461 3347   6.046   5.078   5.335  0.7092 -0.5520 -0.4390
    4MOL   H462 3348   6.017   5.280   5.193  0.0730  0.5089  0.1833
    4MOL   H463 3349   5.880   5.439   5.096 -0.9564  0.8288 -0.3696
    4MOL   H464 3350   5.700   5.420   5.084  0.1975  1.1734  1.6726
    4MOL   H465 3351   5.865   5.270   4.896 -0.8776 -0.7285  1.7140
    4MOL   H466 3352   5.694   5.368   4.629 -0.0701 -1.8122 -0.0543
    4MOL   H467 3353   5.839   5.293   4.704  1.8425  1.2447  0.1866
    4MOL   H468 3354   5.943   5.442   4.545  0.5229  1.4680 -0.0874
    4MOL   H469 3355   5.920   5.557   4.683  0.6142 -1.1141  0.2664
    4MOL   H470 3356   5.856   5.641   4.458  0.1619  0.8469  0.2510
    4MOL   H471 3357   5.742   5.508   4.444  0.4012 -0.7278  0.1724
    4MOL   H472 3358   5.602   5.601   4.631  0.5245 -0.2150  0.3085
    4MOL   H473 3359   5.727   5.713   4.674 -1.2928 -1.3917  1.5534
    4MOL   H474 3360   5.559   5.843   4.573  0.7401  1.2116  0.3771
    4MOL   H475 3361   5.687   5.841   4.456  1.5622 -1.2505  1.5888
    4MOL   H476 3362   5.521   5.618   4.377 -0.9011  0.6384 -0.8363
    4MOL   H477 3363   5.527   5.781   4.318  1.9616  1.7546  1.1167
    4MOL   H478 3364   5.311   5.841   4.438 -1.7139 -0.5607  1.2985
    4MOL   H479 3365   5.310   5.681   4.381  0.2386 -1.1899  1.2866
    4MOL   H480 3366   5.213   5.657   4.580 -0.1219 -1.3540  0.6026
    4MOL   H481 3367   5.373   5.583   4.597 -0.2952 -0.0195  1.8373
    4MOL   N482 3368   5.407   5.718   4.806 -0.2098  0.1086  0.1694
    4MOL   C483 3369   5.461   5.798   4.918  0.3032 -0.0838  0.1277
    4MOL   C484 3370   5.408   5.737   5.046  0.1204 -0.4959  0.4714
    4MOL   C485 3371   5.487   5.652   5.119 -0.3484  0.9542 -0.4087
    4MOL   C486 3372   5.438   5.599   5.241  0.2313 -0.0898 -0.4535
    4MOL   C487 3373   5.313   5.634   5.293 -0.2234 -0.3312  0.2020
    4MOL   C488 3374   5.236   5.727   5.217 -0.0993 -0.1951 -0.6645
    4MOL   C489 3375   5.282   5.780   5.091  0.2314 -0.5043  0.3370
    4MOL   C490 3376   5.192   5.862   5.003  0.7296 -0.3084  0.2126
    4MOL   N491 3377   5.072   5.925   5.053 -0.2541  0.4857 -0.4132
    4MOL   C492 3378   5.059   6.038   5.120  0.1466 -0.5508 -0.5787
    4MOL   O493 3379   5.159   6.113   5.136  0.0980  0.2845 -0.0151
    4MOL   C494 3380   4.930   6.065   5.187  0.1527 -0.5625 -0.6856
    4MOL   C495 3381   4.879   6.207   5.144  0.4607  0.0861 -0.5535
    4MOL   C496 3382   4.811   6.218   5.006  0.3964  0.1647 -0.0022
    4MOL   C497 3383   4.798   6.354   4.947  0.8184 -0.1510  0.1263
    4MOL   C498 3384   4.721   6.348   4.814 -0.7116  0.6933  0.0774
    4MOL   C499 3385   4.710   6.487   4.754 -0.6422 -0.4491 -0.2282
    4MOL   C500 3386   4.644   6.498   4.619  0.2330  0.1392 -0.7826
    4MOL   C501 3387   4.574   6.632   4.596 -0.7074  0.5613 -0.3965
    4MOL   C502 3388   4.469   6.633   4.484  0.4883 -0.3964  0.9207
    4MOL   O503 3389   4.451   6.524   4.428  0.0250  0.3410 -0.0810
    4MOL   H504 3390   5.419   5.619   4.825 -0.0288  0.5287  2.3242
    4MOL   H505 3391   5.570   5.791   4.913  0.1859 -3.1770  0.7461
    4MOL   H506 3392   5.443   5.905   4.909 -2.7702 -0.4334  1.7440
    4MOL   H507 3393   5.585   5.626   5.084  0.3415  1.6434  1.0001
    4MOL   H508 3394   5.500   5.539   5.307 -1.6789 -1.2936  0.2700
    4MOL   H509 3395   5.283   5.596   5.390 -1.7823 -0.4491 -0.3067
    4MOL   H510 3396   5.134   5.747   5.245  1.1455  2.9427  1.8188
    4MOL   H511 3397   5.157   5.806   4.917  0.7976  0.2193 -0.1596
    4MOL   H512 3398   5.256   5.943   4.969  0.3542 -0.5416 -1.0549
    4MOL   H513 3399   4.987   5.872   5.034  0.6312 -0.4541 -1.8546
    4MOL   H514 3400   4.941   6.067   5.296  0.5794  1.0684 -0.7510
    4MOL   H515 3401   4.859   5.984   5.170 -1.3567  0.8289 -1.1211
    4MOL   H516 3402   4.958   6.280   5.163  1.0674 -1.1772  2.0744
    4MOL   H517 3403   4.796   6.236   5.209  0.2834  0.1148 -0.7941
    4MOL   H518 3404   4.865   6.161   4.930  3.2489  1.5739  0.8878
    4MOL   H519 3405   4.717   6.164   5.009  1.0463 -1.0332 -0.6032
    4MOL   H520 3406   4.743   6.406   5.026  1.1329  0.5639 -0.1206
    4MOL   H521 3407   4.893   6.407   4.938 -0.7413  2.3697 -2.3004
    4MOL   H522 3408   4.768   6.272   4.751  0.4500 -0.1692  1.9283
    4MOL   H523 3409   4.624   6.299   4.826 -0.8021  0.4362 -1.6034
    4MOL   H524 3410   4.814   6.517   4.742 -0.2725 -2.0369 -1.0723
    4MOL   H525 3411   4.672   6.563   4.823 -1.0711  0.3641 -1.3573
    4MOL   H526 3412   4.714   6.498   4.535  3.5543  0.1015  1.8557
    4MOL   H527 3413   4.567   6.422   4.616  1.4718 -1.1996  0.3610
    4MOL   H528 3414   4.653   6.706   4.579 -0.8931  0.9422  0.3839
    4MOL   H529 3415   4.514   6.664   4.681 -0.2803  2.1646 -0.6778
    4MOL   N530 3416   4.396   6.743   4.458  0.0819 -0.1350 -0.1605
    4MOL   C531 3417   4.288   6.740   4.365  0.4890  1.1680  0.7653
    4MOL   C532 3418   4.177   6.827   4.416 -0.0040 -0.2780  0.7366
    4MOL   C533 3419   4.176   6.964   4.388  0.4671 -0.6098  0.2100
    4MOL   C534 3420   4.064   7.038   4.431 -0.6140  0.6349  0.2545
    4MOL   C535 3421   3.950   6.984   4.497  0.4345  0.5460 -0.0360
    4MOL   C536 3422   3.948   6.845   4.516 -0.5530 -0.0401 -0.0025
    4MOL   C537 3423   4.057   6.766   4.472  0.5367 -0.4774  0.4324
    4MOL   C538 3424   4.050   6.622   4.507  0.4296 -0.1709  0.7022
    4MOL   N539 3425   4.140   6.585   4.614 -0.2677 -0.2899  0.5834
    4MOL   C540 3426   4.134   6.467   4.668  0.0423  0.0887  0.0549
    4MOL   O541 3427   4.035   6.390   4.651  0.3829 -0.3148 -0.4747
    4MOL   C542 3428   4.254   6.435   4.763  0.3670  0.0486 -0.3227
    4MOL   C543 3429   4.203   6.396   4.897  0.6038  0.5002  0.3270
    4MOL   C544 3430   4.325   6.379   4.989 -0.5161  0.1427 -0.0278
    4MOL   C545 3431   4.281   6.329   5.133  0.7315 -0.1831  1.0980
    4MOL   C546 3432   4.393   6.340   5.228  0.3170 -0.0264  0.1901
    4MOL   C547 3433   4.502   6.226   5.216  0.0982 -0.3591  0.8685
    4MOL   C548 3434   4.449   6.084   5.211 -1.0830  0.5354 -0.4017
    4MOL   C549 3435   4.566   5.984   5.228  0.0091  0.3678 -0.1214
    4MOL   C550 3436   4.575   5.935   5.376 -0.1142 -0.5938  0.6401
    4MOL   O551 3437   4.626   6.012   5.462  0.2353  0.0464  0.0479
    4MOL   H552 3438   4.417   6.836   4.491 -0.5908  0.2624 -0.8339
    4MOL   H553 3439   4.261   6.636   4.347  0.2258  1.6960 -2.0550
    4MOL   H554 3440   4.317   6.777   4.267 -4.5139  0.8076 -0.9642
    4MOL   H555 3441   4.262   7.006   4.339  0.5465  1.0868  1.7549
    4MOL   H556 3442   4.056   7.136   4.385 -2.1203  0.8102  0.8714
    4MOL   H557 3443   3.864   7.045   4.520 -0.4109 -1.3703  2.0913
    4MOL   H558 3444   3.865   6.808   4.573 -1.8817 -1.3077 -2.6516
    4MOL   H559 3445   4.068   6.557   4.422  1.2927  0.8791  0.0586
    4MOL   H560 3446   3.948   6.598   4.535  0.4967 -1.0625  0.2139
    4MOL   H561 3447   4.211   6.654   4.635 -0.4035 -0.1118  0.4577
    4MOL   H562 3448   4.314   6.526   4.772  0.3169  0.0769 -0.2811
    4MOL   H563 3449   4.313   6.354   4.721  0.3755 -0.4206  0.5806
    4MOL   H564 3450   4.147   6.303   4.892  0.3778  0.5658  1.4271
    4MOL   H565 3451   4.139   6.474   4.939 -0.6622 -0.7201  0.6951
    4MOL   H566 3452   4.395   6.303   4.958  0.5956  0.6490  1.1890
    4MOL   H567 3453   4.380   6.473   4.990 -0.0757 -0.0858 -1.5795
    4MOL   H568 3454   4.203   6.401   5.159  1.2612  0.1004  1.9382
    4MOL   H569 3455   4.232   6.232   5.134  0.1918  0.0867  1.4001
    4MOL   H570 3456   4.442   6.437   5.229 -2.6282  1.5123  1.4450
    4MOL   H571 3457   4.347   6.329   5.327 -0.6105  1.1316 -0.0963
    4MOL   H572 3458   4.577   6.240   5.294  0.1064  1.4412  0.5594
    4MOL   H573 3459   4.553   6.238   5.121  1.5114 -0.4783  1.6129
    4MOL   H574 3460   4.369   6.068   5.283 -0.4686 -1.8464 -0.2022
    4MOL   H575 3461   4.400   6.066   5.115 -0.4367  0.0746 -0.6525
    4MOL   H576 3462   4.664   6.025   5.203  0.3471  0.1932  0.8795
    4MOL   H577 3463   4.556   5.903   5.157  2.6169  0.3806 -0.5677
    4MOL   N578 3464   4.520   5.816   5.397  0.0036  0.0702 -0.6535
    4MOL   C579 3465   4.510   5.757   5.530 -0.1043 -0.7746  0.2746
    4MOL   C580 3466   4.368   5.754   5.583 -0.7842 -0.9863 -0.5918
    4MOL   C581 3467   4.339   5.822   5.701 -0.4817 -0.1081  0.0348
    4MOL   C582 3468   4.210   5.811   5.762  0.2950 -0.8423 -0.3224
    4MOL   C583 3469   4.111   5.735   5.706  0.5302  0.1826  0.2795
    4MOL   C584 3470   4.141   5.655   5.596 -1.0683  0.3721 -0.6112
    4MOL   C585 3471   4.272   5.659   5.536  0.0515 -0.1577 -0.9220
    4MOL   C586 3472   4.298   5.556   5.425 -0.2596  0.2938  0.3359
    4MOL   N587 3473   4.232   5.581   5.298 -0.1340  0.2347 -0.2260
    4MOL   C588 3474   4.296   5.634   5.188  0.4593 -0.4752 -0.0895
    4MOL   O589 3475   4.414   5.653   5.186  0.0776  0.5052 -0.1479
    4MOL   C590 3476   4.210   5.673   5.069  0.7513  1.1839  0.1582
    4MOL   C591 3477   4.172   5.822   5.052 -0.5514 -0.0802 -1.3626
    4MOL   C592 3478   4.090   5.867   5.174  0.1629 -0.3870 -0.2524
    4MOL   C593 3479   4.035   6.009   5.153  0.5089  0.2132 -0.3362
    4MOL   C594 3480   4.006   6.082   5.287  0.2535  0.4889 -0.5358
    4MOL   C595 3481   3.888   6.033   5.366 -0.4841  0.5825  0.0771
    4MOL   C596 3482   3.751   6.040   5.303  0.1920 -0.2609 -0.2277
    4MOL   C597 3483   3.627   6.031   5.394  0.4239 -0.1865 -0.1612
    4MOL   C598 3484   3.634   6.144   5.502 -0.1053  0.2028  0.4990
    4MOL   O599 3485   3.670   6.256   5.473 -0.0022 -0.0332  0.1570
    4MOL   H600 3486   4.476   5.770   5.319 -0.1304 -0.8141 -0.0719
    4MOL   H601 3487   4.571   5.799   5.610  1.5249 -0.8913 -0.8877
    4MOL   H602 3488   4.549   5.655   5.526  0.4745 -0.7399  3.5895
    4MOL   H603 3489   4.410   5.878   5.761 -0.2812  0.8545 -1.0825
    4MOL   H604 3490   4.202   5.863   5.856 -0.6868 -2.6629  0.6208
    4MOL   H605 3491   4.013   5.746   5.751 -0.9618  1.5401 -3.1267
    4MOL   H606 3492   4.068   5.591   5.550  0.5368 -1.2240 -1.0043
    4MOL   H607 3493   4.261   5.458   5.455 -0.8230  0.9691  1.8951
    4MOL   H608 3494   4.404   5.541   5.406 -0.4353  1.6325 -1.8843
    4MOL   H609 3495   4.132   5.572   5.301 -0.0046 -1.3124 -0.2263
    4MOL   H610 3496   4.117   5.616   5.081  1.0346  0.5665 -0.5192
    4MOL   H611 3497   4.242   5.632   4.974 -2.7627 -1.7731  0.1128
    4MOL   H612 3498   4.103   5.847   4.971 -2.6058 -0.0330  0.3544
    4MOL   H613 3499   4.262   5.880   5.031 -0.3124  0.2872  0.5639
    4MOL   H614 3500   4.002   5.805   5.191 -1.0890  0.9406 -1.7319
    4MOL   H615 3501   4.153   5.875   5.263 -0.0482  0.8403 -0.2064
    4MOL   H616 3502   4.093   6.059   5.076 -0.6999 -1.4895 -2.4288
    4MOL   H617 3503   3.940   5.987   5.104  0.2244 -1.1320  0.7804
    4MOL   H618 3504   4.092   6.092   5.353 -0.3021  0.7246  0.1516
    4MOL   H619 3505   3.981   6.185   5.259 -0.4343  0.6637  0.6818
    4MOL   H620 3506   3.894   6.096   5.455 -3.0010 -0.7687  1.2662
    4MOL   H621 3507   3.905   5.927   5.388 -0.8015  0.7190  0.9901
    4MOL   H622 3508   3.754   6.129   5.241  0.9802  0.9722  1.5393
    4MOL   H623 3509   3.756   5.959   5.230 -0.8409 -0.2841 -0.2777
    4MOL   H624 3510   3.548   6.057   5.324  2.8401  1.5216 -2.3393
    4MOL   H625 3511   3.615   5.938   5.450 -0.0694 -1.1357 -1.8021
    4MOL   N626 3512   3.595   6.107   5.622 -0.0987  0.0381  0.2745
    4MOL   C627 3513   3.620   6.186   5.747  0.2272 -0.3338 -0.6752
    4MOL   C628 3514   3.522   6.168   5.868  0.1487 -0.3793 -0.0088
    4MOL   C629 3515   3.466   6.042   5.891  0.0935  0.5470  0.2631
    4MOL   C630 3516   3.386   6.022   6.003 -0.4916 -0.8093  0.1872
    4MOL   C631 3517   3.369   6.126   6.096  0.2646 -0.1365  0.2210
    4MOL   C632 3518   3.423   6.252   6.075  0.3273 -0.0609  0.1310
    4MOL   C633 3519   3.503   6.277   5.961 -0.2119  0.2540  0.1700
    4MOL   C634 3520   3.565   6.410   5.948  0.1313 -0.4817 -0.1025
    4MOL   N635 3521   3.709   6.406   5.935 -0.2258  0.5226  0.0806
    4MOL   C636 3522   3.795   6.386   6.030 -0.1305 -0.1893 -0.6112
    4MOL   O637 3523   3.754   6.356   6.143 -0.3032 -0.0768 -0.2004
    4MOL   C638 3524   3.941   6.402   6.004 -0.2852 -0.2343  0.2211
    4MOL   C639 3525   4.022   6.480   6.117  0.0293  0.5714  0.1453
    4MOL   C640 3526   3.968   6.625   6.139 -0.0652  0.7595 -0.9811
    4MOL   C641 3527   3.992   6.710   6.016 -0.3664 -0.3469 -0.8551
    4MOL   C642 3528   3.966   6.863   6.042  0.2979 -0.5538  0.8907
    4MOL   C643 3529   3.943   6.943   5.921 -0.1530 -0.2670 -1.1497
    4MOL   C644 3530   3.801   6.923   5.873  0.0404  0.0752 -0.3331
    4MOL   C645 3531   3.789   6.985   5.737 -0.1287 -0.1463  0.3285
    4MOL   C646 3532   3.642   6.984   5.686  0.0612  0.3151 -0.0798
    4MOL   O647 3533   3.546   7.005   5.759  0.3557  0.2467  0.2367
    4MOL   H648 3534   3.537   6.025   5.627 -1.5353  1.0198  0.0448
    4MOL   H649 3535   3.617   6.291   5.715  1.9197 -0.6692 -2.0134
    4MOL   H650 3536   3.718   6.154   5.781  0.2753 -1.0937 -1.5230
    4MOL   H651 3537   3.467   5.964   5.816 -0.3642 -0.0575  0.8786
    4MOL   H652 3538   3.330   5.930   6.014 -1.5581 -0.8143 -4.2570
    4MOL   H653 3539   3.307   6.112   6.183 -0.2518  0.5219 -0.0319
    4MOL   H654 3540   3.412   6.335   6.144  2.1163 -0.4011  0.8758
    4MOL   H655 3541   3.542   6.480   6.028 -1.5221 -0.7340 -0.3393
    4MOL   H656 3542   3.531   6.466   5.861  0.6601 -1.8485 -1.2056
    4MOL   H657 3543   3.748   6.426   5.844 -0.1331 -1.0929 -0.2574
    4MOL   H658 3544   3.946   6.462   5.913 -0.1611  0.0693  0.4286
    4MOL   H659 3545   3.986   6.304   5.991  1.5704  0.7339 -0.7924
    4MOL   H660 3546   4.130   6.485   6.105  0.1698  0.5768  1.3889
    4MOL   H661 3547   4.017   6.430   6.214  1.3839 -0.1157 -0.1297
    4MOL   H662 3548   3.861   6.616   6.158  0.0952 -1.5089 -1.0129
    4MOL   H663 3549   4.019   6.675   6.221 -0.2169  0.3529 -0.6415
    4MOL   H664 3550   4.096   6.695   5.989  0.4987  1.8092  1.1212
    4MOL   H665 3551   3.919   6.688   5.938 -1.6188 -0.6860  0.3905
    4MOL   H666 3552   3.881   6.858   6.110 -0.6073 -4.9523 -0.4173
    4MOL   H667 3553   4.044   6.909   6.103  1.3941  0.7460 -1.4016
    4MOL   H668 3554   4.026   6.918   5.854 -0.8269 -0.1103 -2.0555
    4MOL   H669 3555   3.965   7.046   5.948  3.0778 -1.4889  1.2239
    4MOL   H670 3556   3.765   6.821   5.867  0.3622 -0.0365 -0.3469
    4MOL   H671 3557   3.735   6.985   5.934 -0.0658 -1.0836  0.7332
    4MOL   H672 3558   3.853   6.937   5.664  1.1254 -0.1185  1.4009
    4MOL   H673 3559   3.834   7.084   5.726 -0.7066  0.4129  2.5869
    4MOL   N674 3560   3.621   6.949   5.562 -0.4498  0.4131 -0.2644
    4MOL   C675 3561   3.491   6.919   5.504  0.0098  0.4535 -0.4161
    4MOL   C676 3562   3.503   6.836   5.378  0.4455 -0.0624  0.1756
    4MOL   C677 3563   3.457   6.902   5.261  0.0952  0.0965 -0.5522
    4MOL   C678 3564   3.452   6.835   5.140  0.1390  0.4325 -0.1358
    4MOL   C679 3565   3.486   6.699   5.130  0.2871 -0.3077 -0.5814
    4MOL   C680 3566   3.515   6.628   5.250 -0.8465 -0.2954 -0.1844
    4MOL   C681 3567   3.534   6.697   5.371 -0.2068  0.5899  0.7516
    4MOL   C682 3568   3.591   6.627   5.487  0.0792 -0.2244  0.3821
    4MOL   N683 3569   3.737   6.637   5.479 -0.8202  0.1552  0.0056
    4MOL   C684 3570   3.826   6.603   5.571 -0.0222 -0.4978  0.0328
    4MOL   O685 3571   3.787   6.553   5.679 -0.1560 -0.2178  0.3776
    4MOL   C686 3572   3.976   6.632   5.553  0.6092 -0.3273 -0.3828
    4MOL   C687 3573   4.065   6.505   5.528  0.4953  0.2281 -0.3404
    4MOL   C688 3574   4.066   6.417   5.650  0.3319  0.3098  0.8282
    4MOL   C689 3575   4.149   6.288   5.640  0.3887 -0.2144  0.3808
    4MOL   C690 3576   4.298   6.319   5.671  0.1431 -0.2642  0.1042
    4MOL   C691 3577   4.400   6.209   5.638 -0.1215 -0.6578 -0.6985
    4MOL   C692 3578   4.486   6.160   5.761 -0.4958 -0.1733 -0.8969
    4MOL   C693 3579   4.611   6.246   5.790 -0.7980  0.6997  0.5157
    4MOL   C694 3580   4.724   6.171   5.862 -0.1530  0.3193  0.2147
    4MOL   O695 3581   4.702   6.125   5.975 -0.0725 -0.3691  0.4357
    4MOL   H696 3582   3.704   6.922   5.509  0.8149  2.6519  0.5372
    4MOL   H697 3583   3.439   7.011   5.477  0.4278  0.9182  0.3661
    4MOL   H698 3584   3.414   6.879   5.569 -0.9410  2.7103 -0.1105
    4MOL   H699 3585   3.441   7.008   5.266  0.6726  0.1140  1.3622
    4MOL   H700 3586   3.413   6.896   5.060  1.3844  0.7760 -0.4944
    4MOL   H701 3587   3.475   6.640   5.040 -0.5968  0.5885 -1.0686
    4MOL   H702 3588   3.525   6.520   5.244 -0.5844 -0.1325 -3.4520
    4MOL   H703 3589   3.574   6.519   5.492  0.3444 -0.3076 -0.4832
    4MOL   H704 3590   3.559   6.673   5.580  0.3650  0.2739  0.2331
    4MOL   H705 3591   3.774   6.679   5.395 -2.3471  0.8068 -0.3529
    4MOL   H706 3592   3.998   6.677   5.650 -2.9346  0.5522  0.0911
    4MOL   H707 3593   3.991   6.712   5.481  1.1199  0.8266  0.9875
    4MOL   H708 3594   4.164   6.535   5.493  0.2233  3.3591  1.3419
    4MOL   H709 3595   4.021   6.450   5.445  2.2897  2.6101 -2.9564
    4MOL   H710 3596   4.098   6.475   5.737  0.3601 -0.2886  1.2225
    4MOL   H711 3597   3.967   6.384   5.683 -0.9845  2.5300 -0.7567
    4MOL   H712 3598   4.112   6.207   5.704  0.7872 -0.3410  0.4501
    4MOL   H713 3599   4.132   6.259   5.536  1.3752  0.3792  0.0549
    4MOL   H714 3600   4.333   6.418   5.641 -2.1842  0.2415 -1.1227
    4MOL   H715 3601   4.295   6.335   5.779  1.4109 -2.7113  0.5350
    4MOL   H716 3602   4.469   6.234   5.558 -0.5698 -2.1332 -1.5694
    4MOL   H717 3603   4.353   6.122   5.593  1.9441 -2.0557 -0.2584
    4MOL   H718 3604   4.518   6.056   5.754  1.0711  0.1877  0.6172
    4MOL   H719 3605   4.421   6.146   5.847 -0.7124 -1.7227 -1.2818
    4MOL   H720 3606   4.582   6.346   5.824 -0.3879  1.2309 -0.6314
    4MOL   H721 3607   4.658   6.269   5.694 -1.8105 -1.1883 -0.4639
    4MOL   N722 3608   4.848   6.172   5.804  0.6134  0.1926  0.6265
    4MOL   C723 3609   4.951   6.074   5.847 -0.8196  0.3393  0.0452
    4MOL   C724 3610   4.978   5.966   5.736 -0.1955 -0.0934 -0.5322
    4MOL   C725 3611   4.905   5.973   5.615 -0.2941 -0.4068 -0.0118
    4MOL   C726 3612   4.931   5.889   5.507  1.2618  0.4729 -0.3328
    4MOL   C727 3613   5.032   5.789   5.521 -0.4161  0.2483  0.8052
    4MOL   C728 3614   5.111   5.781   5.635  0.7865  0.2901 -0.5108
    4MOL   C729 3615   5.084   5.861   5.744 -0.6709 -0.2114 -0.1880
    4MOL   C730 3616   5.157   5.836   5.874 -0.4322 -0.0691 -0.0209
    4MOL   N731 3617   5.164   5.695   5.899  0.0731 -0.2065  0.1746
    4MOL   C732 3618   5.064   5.619   5.943  0.2368 -0.2741 -0.2245
    4MOL   O733 3619   4.959   5.664   5.979  0.9469  0.2629  0.0674
    4MOL   C734 3620   5.088   5.474   5.933 -0.0685 -0.4075  0.1045
    4MOL   C735 3621   5.061   5.419   5.791  0.3961 -0.2610 -0.3004
    4MOL   C736 3622   4.912   5.400   5.766  0.5293  0.7604 -0.2810
    4MOL   C737 3623   4.875   5.366   5.620  0.8387 -0.3436  0.5544
    4MOL   C738 3624   4.903   5.473   5.512  0.2875  0.3979 -1.0473
    4MOL   C739 3625   4.826   5.449   5.384 -0.2672 -0.1177  0.2468
    4MOL   C740 3626   4.829   5.567   5.291  0.6262 -0.0636 -0.1962
    4MOL   C741 3627   4.741   5.548   5.165 -0.7062 -0.2325 -0.2606
    4MOL   C742 3628   4.763   5.665   5.076 -0.1104 -0.7698 -0.8911
    4MOL   O743 3629   4.862   5.734   5.086 -0.5368  0.3574 -0.5368
    4MOL   H744 3630   4.859   6.198   5.707 -0.9477  0.7635  0.5859
    4MOL   H745 3631   4.947   6.034   5.948 -0.9706 -0.7059 -0.3719
    4MOL   H746 3632   5.037   6.137   5.870 -0.0678 -0.8601  0.5156
    4MOL   H747 3633   4.831   6.050   5.601 -1.3649 -0.7308  3.3736
    4MOL   H748 3634   4.868   5.909   5.421 -0.0823  1.5854  0.8635
    4MOL   H749 3635   5.054   5.730   5.433  2.3777  2.2396  0.0885
    4MOL   H750 3636   5.199   5.719   5.632 -0.5986 -1.6401 -2.2508
    4MOL   H751 3637   5.108   5.892   5.953  0.1106  0.0226  0.2560
    4MOL   H752 3638   5.256   5.878   5.855 -0.0071 -0.5493  1.0804
    4MOL   H753 3639   5.234   5.645   5.845  1.0082  1.1572  0.1087
    4MOL   H754 3640   5.029   5.425   6.010 -0.7669 -0.3176 -0.3692
    4MOL   H755 3641   5.191   5.456   5.962  0.1336  0.6643  0.0568
    4MOL   H756 3642   5.105   5.320   5.797  1.4757  0.2555  0.3348
    4MOL   H757 3643   5.114   5.478   5.715  2.2766  1.1152  2.0266
    4MOL   H758 3644   4.882   5.327   5.841  1.3700 -0.2128 -0.8745
    4MOL   H759 3645   4.866   5.497   5.786 -1.6509 -0.2310 -0.2763
    4MOL   H760 3646   4.910   5.264   5.603  1.9406 -0.2271  2.0087
    4MOL   H761 3647   4.766   5.357   5.624  0.5435  2.2442 -0.6893
    4MOL   H762 3648   4.870   5.566   5.559  1.3891  1.0488 -1.5402
    4MOL   H763 3649   5.009   5.488   5.492  0.0480 -0.7562 -3.3048
    4MOL   H764 3650   4.722   5.425   5.406  0.3855 -0.8897  2.6627
    4MOL   H765 3651   4.857   5.359   5.331  2.3524  1.8582 -1.6940
    4MOL   H766 3652   4.805   5.661   5.341  2.1989  0.7172 -0.8701
    4MOL   H767 3653   4.934   5.585   5.266  1.9468 -3.2791  2.5706
    4MOL   H768 3654   4.748   5.459   5.103  2.4777 -0.0639 -0.2246
    4MOL   H769 3655   4.636   5.552   5.195 -0.8240  1.3029 -0.8259
    4MOL   N770 3656   4.665   5.702   4.991  0.0882  0.0202 -0.8433
    4MOL   C771 3657   4.665   5.823   4.910  0.4256  0.4522 -0.4750
    4MOL   C772 3658   4.671   5.792   4.758  0.2179 -0.7735 -0.3308
    4MOL   C773 3659   4.793   5.803   4.686  0.0982  0.2805  0.2209
    4MOL   C774 3660   4.800   5.776   4.550  0.8701 -0.2799 -0.2347
    4MOL   C775 3661   4.691   5.739   4.474 -0.6321  0.7679 -0.0518
    4MOL   C776 3662   4.568   5.722   4.542  0.4060  0.1175  0.2853
    4MOL   C777 3663   4.558   5.749   4.686 -0.4990 -0.4134  0.8151
    4MOL   C778 3664   4.418   5.735   4.746  0.4733 -0.7272 -0.0319
    4MOL   N779 3665   4.358   5.612   4.716 -0.3896  0.4191  0.7119
    4MOL   C780 3666   4.238   5.588   4.668  0.1032  0.0772  0.2877
    4MOL   O781 3667   4.150   5.672   4.650 -0.3023 -0.5816  0.2709
    4MOL   C782 3668   4.202   5.449   4.625  0.7458 -0.8182 -0.4441
    4MOL   C783 3669   4.070   5.389   4.693  0.3517 -0.2161 -0.1566
    4MOL   C784 3670   4.041   5.246   4.647  0.3787  0.1046 -0.5054
    4MOL   C785 3671   3.937   5.174   4.742  0.4369  0.7381 -0.3580
    4MOL   C786 3672   3.804   5.241   4.765  0.7415  0.5222  0.2880
    4MOL   C787 3673   3.698   5.144   4.815 -0.3317 -0.4059  0.5867
    4MOL   C788 3674   3.574   5.227   4.852 -0.1221 -0.5362 -0.2874
    4MOL   C789 3675   3.472   5.137   4.927  0.8520 -0.3960  0.2767
    4MOL   C790 3676   3.365   5.223   4.986  0.1796 -0.2160  0.1584
    4MOL   O791 3677   3.320   5.313   4.916 -0.0959  0.0518  0.3889
    4MOL   H792 3678   4.594   5.633   4.969  0.1259 -0.4598  0.4876
    4MOL   H793 3679   4.564   5.859   4.931 -0.5628 -1.9439 -0.9627
    4MOL   H794 3680   4.734   5.902   4.939  1.2647  0.3745 -2.2100
    4MOL   H795 3681   4.883   5.837   4.735  0.5244 -1.2205  0.5131
    4MOL   H796 3682   4.891   5.798   4.496  1.5620 -1.7899  0.3125
    4MOL   H797 3683   4.706   5.725   4.368  3.2261  0.0559  0.5237
    4MOL   H798 3684   4.486   5.678   4.488 -1.1859  2.2133  0.9172
    4MOL   H799 3685   4.349   5.814   4.714  1.0564  0.2637  1.1025
    4MOL   H800 3686   4.414   5.769   4.850 -0.7526  1.5284 -0.7823
    4MOL   H801 3687   4.422   5.535   4.729 -0.0008  0.9563  2.1111
    4MOL   H802 3688   4.283   5.376   4.627  1.0888 -0.4016  1.2942
    4MOL   H803 3689   4.183   5.461   4.518  0.8704  0.2217 -0.3524
    4MOL   H804 3690   3.986   5.449   4.658 -1.1146 -1.8693  0.4987
    4MOL   H805 3691   4.070   5.417   4.798  1.0832  0.0103 -0.2143
    4MOL   H806 3692   4.134   5.190   4.663 -0.6044 -1.3507  0.2521
    4MOL   H807 3693   4.021   5.239   4.540 -0.7477 -1.5115 -0.2168
    4MOL   H808 3694   3.923   5.075   4.697 -1.4017  0.9118 -0.2086
    4MOL   H809 3695   3.985   5.156   4.838  1.1565 -1.2145 -1.0425
    4MOL   H810 3696   3.827   5.322   4.834  3.3053 -0.0723  0.1968
    4MOL   H811 3697   3.769   5.282   4.670  0.3964 -1.5559 -0.5111
    4MOL   H812 3698   3.740   5.076   4.890  1.7433 -0.6046 -0.6991
    4MOL   H813 3699   3.672   5.069   4.740 -2.1416  1.6852 -0.9317
    4MOL   H814 3700   3.526   5.264   4.761  1.4681  0.2267 -0.8314
    4MOL   H815 3701   3.601   5.305   4.922  1.2373 -0.6967 -0.6213
    4MOL   H816 3702   3.525   5.078   5.002  1.9721  1.7449  1.1981
    4MOL   H817 3703   3.426   5.067   4.856 -0.5940 -0.1065  0.9318
    4MOL   N818 3704   3.331   5.200   5.108 -0.0364  0.6582 -0.0508
    4MOL   C819 3705   3.241   5.290   5.179  0.1832  0.1696  0.2614
    4MOL   C820 3706   3.269   5.311   5.327 -0.3266 -0.1144 -0.0267
    4MOL   C821 3707   3.389   5.268   5.387  0.0175 -0.1157  0.1838
    4MOL   C822 3708   3.415   5.283   5.522  0.0024  0.9992 -0.1209
    4MOL   C823 3709   3.308   5.318   5.604 -0.7495 -0.1310  0.7708
    4MOL   C824 3710   3.186   5.365   5.550 -0.3919  0.3789 -0.3469
    4MOL   C825 3711   3.170   5.368   5.414  0.1950 -0.2928 -0.7950
    4MOL   C826 3712   3.038   5.414   5.357  0.2710  0.3554 -0.1099
    4MOL   N827 3713   2.930   5.433   5.455 -0.3078 -0.5902  0.4964
    4MOL   C828 3714   2.893   5.555   5.491  0.1753  0.0244 -0.3335
    4MOL   O829 3715   2.958   5.654   5.460 -0.6183  0.4215  0.0078
    4MOL   C830 3716   2.762   5.564   5.563 -0.0861 -0.6542  0.4756
    4MOL   C831 3717   2.679   5.687   5.525 -0.6319 -1.1637 -0.0536
    4MOL   C832 3718   2.640   5.690   5.374  0.6350 -0.3330  0.1721
    4MOL   C833 3719   2.597   5.552   5.321 -1.6474  0.3532  0.8190
    4MOL   C834 3720   2.554   5.563   5.171 -0.3576  0.2314 -0.3500
    4MOL   C835 3721   2.505   5.428   5.116 -0.1283  0.2826  0.1734
    4MOL   C836 3722   2.443   5.435   4.978  0.3202 -0.1412  0.5629
    4MOL   C837 3723   2.331   5.328   4.952  0.1980 -0.1977 -0.4301
    4MOL   C838 3724   2.217   5.337   5.050  0.9253 -0.1184 -0.9109
    4MOL   O839 3725   2.144   5.435   5.047  0.1777 -0.0909 -0.9320
    4MOL   H840 3726   3.369   5.129   5.169 -1.4521  0.8768  1.1194
    4MOL   H841 3727   3.238   5.393   5.143 -1.0755 -0.2881 -1.0015
    4MOL   H842 3728   3.143   5.245   5.169  0.3300  0.1914 -1.5501
    4MOL   H843 3729   3.463   5.225   5.322 -2.6711 -0.8892 -2.4359
    4MOL   H844 3730   3.512   5.247   5.555 -0.0903 -0.1392 -1.0569
    4MOL   H845 3731   3.322   5.319   5.711 -0.8282 -0.2577  0.7821
    4MOL   H846 3732   3.111   5.405   5.618 -0.5792  1.1806 -1.0134
    4MOL   H847 3733   2.989   5.344   5.289 -2.6888  0.2221  2.0423
    4MOL   H848 3734   3.050   5.502   5.295  0.0110 -0.3186 -1.1292
    4MOL   H849 3735   2.861   5.361   5.471  1.9570 -2.3317  2.7968
    4MOL   H850 3736   2.786   5.551   5.669 -0.1377  2.0300  0.8617
    4MOL   H851 3737   2.702   5.475   5.545 -0.3832 -0.2333 -0.6287
    4MOL   H852 3738   2.743   5.775   5.538 -0.8441 -1.2694  1.8376
    4MOL   H853 3739   2.591   5.705   5.587 -1.1885  0.2357 -1.2324
    4MOL   H854 3740   2.716   5.734   5.310  0.4139  1.5700  1.1994
    4MOL   H855 3741   2.561   5.762   5.353  1.6286  0.9261  0.7171
    4MOL   H856 3742   2.684   5.486   5.313 -0.6791  1.4842  1.7096
    4MOL   H857 3743   2.521   5.505   5.383 -1.3317  2.5312  2.9655
    4MOL   H858 3744   2.483   5.643   5.153 -0.1588  0.1200 -1.6793
    4MOL   H859 3745   2.641   5.596   5.114 -0.4625  0.5275 -0.3381
    4MOL   H860 3746   2.448   5.383   5.198  1.6589 -1.7539  0.3409
    4MOL   H861 3747   2.592   5.363   5.107 -1.2513 -1.0969 -0.9249
    4MOL   H862 3748   2.520   5.420   4.901  0.5478  0.0114  0.7623
    4MOL   H863 3749   2.402   5.534   4.955  1.3637 -0.1824 -1.6201
    4MOL   H864 3750   2.298   5.331   4.848  3.0617 -0.3642 -1.3999
    4MOL   H865 3751   2.376   5.229   4.963  1.8055  0.6804  1.1855
    4MOL   N866 3752   2.196   5.234   5.130  0.0050  0.0644 -0.8891
    4MOL   C867 3753   2.085   5.210   5.218 -0.4075  0.9524  0.7406
    4MOL   C868 3754   2.000   5.092   5.173 -0.1672 -0.2219 -0.1290
    4MOL   C869 3755   2.046   4.964   5.207  0.2620 -0.0132 -0.1852
    4MOL   C870 3756   1.977   4.849   5.167 -0.3041 -0.7823 -0.3020
    4MOL   C871 3757   1.860   4.865   5.092 -0.2882  0.1896 -0.1571
    4MOL   C872 3758   1.810   4.990   5.058 -0.0818  0.0848 -0.9421
    4MOL   C873 3759   1.884   5.108   5.095  0.2027 -0.3904 -0.1597
    4MOL   C874 3760   1.835   5.244   5.051 -0.4937 -0.1532 -0.0747
    4MOL   N875 3761   1.691   5.262   5.062 -0.4565  0.8233  0.0269
    4MOL   C876 3762   1.608   5.336   4.987  0.0143 -0.1391 -0.0600
    4MOL   O877 3763   1.644   5.388   4.885  0.5302  0.2143  0.0062
    4MOL   C878 3764   1.464   5.360   5.035  0.1555  0.3589 -0.5009
    4MOL   C879 3765   1.397   5.483   4.965  0.5135 -0.4907 -0.1397
    4MOL   C880 3766   1.454   5.609   5.032 -0.4204 -0.2765  0.5558
    4MOL   C881 3767   1.393   5.740   4.996  0.8388 -0.2148 -0.1415
    4MOL   C882 3768   1.382   5.782   4.845 -0.8447  0.1270 -0.0829
    4MOL   C883 3769   1.514   5.783   4.761  0.0590  0.2032 -0.1911
    4MOL   C884 3770   1.601   5.905   4.794 -0.1067 -0.4932  0.7290
    4MOL   C885 3771   1.747   5.915   4.741 -0.2558  0.1807  0.7047
    4MOL   C886 3772   1.843   5.811   4.805  0.1463  0.0489  0.2423
    4MOL   O887 3773   1.898   5.833   4.908  0.3126 -0.3997 -0.3687
    4MOL   H888 3774   2.264   5.159   5.130 -2.1425 -1.9831  1.5636
    4MOL   H889 3775   2.133   5.179   5.311  1.0533  1.2274  0.0984
    4MOL   H890 3776   2.031   5.303   5.237  0.0765  1.4871 -0.4518
    4MOL   H891 3777   2.136   4.946   5.264  0.8422 -0.0069 -1.1010
    4MOL   H892 3778   2.009   4.748   5.188  0.6848 -0.0482  1.7917
    4MOL   H893 3779   1.801   4.785   5.049 -0.5770  0.2114  0.2031
    4MOL   H894 3780   1.718   4.999   5.002  1.1967 -0.2794 -3.1892
    4MOL   H895 3781   1.860   5.257   4.946  3.1111 -0.9251  0.6422
    4MOL   H896 3782   1.887   5.327   5.098  2.3373 -0.9840 -1.6532
    4MOL   H897 3783   1.654   5.220   5.146  1.1349 -2.4257 -0.8073
    4MOL   H898 3784   1.462   5.373   5.143 -3.3415  1.1320 -0.5834
    4MOL   H899 3785   1.403   5.271   5.019  0.9651 -0.0653 -1.2998
    4MOL   H900 3786   1.289   5.487   4.974  0.5276 -1.2311  0.4461
    4MOL   H901 3787   1.423   5.500   4.861 -2.0096  0.5818 -0.6350
    4MOL   H902 3788   1.443   5.609   5.141  1.0296 -2.7435  0.7418
    4MOL   H903 3789   1.563   5.612   5.020 -0.3708 -0.4152  0.9478
    4MOL   H904 3790   1.293   5.740   5.039  0.6804 -0.2188 -0.5050
    4MOL   H905 3791   1.443   5.827   5.041 -0.6160  0.3167  0.4847
    4MOL   H906 3792   1.330   5.696   4.802 -0.0993 -1.9284  2.9761
    4MOL   H907 3793   1.340   5.881   4.826  0.2661  0.4717 -0.8276
    4MOL   H908 3794   1.496   5.765   4.655 -3.6758  0.7321  0.2685
    4MOL   H909 3795   1.558   5.687   4.791 -3.9371 -1.3000  1.2885
    4MOL   H910 3796   1.553   5.999   4.767  0.9726  0.0765  0.7525
    4MOL   H911 3797   1.609   5.914   4.903  0.2469  0.7756  0.6057
    4MOL   H912 3798   1.742   5.901   4.633  0.8444 -0.2967  0.7169
    4MOL   H913 3799   1.794   6.010   4.768  0.0570  0.0004  0.7913
    4MOL   N914 3800   1.867   5.699   4.735  0.0297 -0.5316 -0.4482
    4MOL   C915 3801   1.937   5.579   4.783  0.4027  0.0976  0.3254
    4MOL   C916 3802   2.068   5.553   4.705  0.1269 -0.2188  0.1340
    4MOL   C917 3803   2.065   5.449   4.608 -0.7253 -0.1957 -0.1217
    4MOL   C918 3804   2.183   5.420   4.539  0.5869 -0.8957 -0.0732
    4MOL   C919 3805   2.298   5.496   4.564  0.2267 -0.5074  0.4435
    4MOL   C920 3806   2.303   5.601   4.656 -1.0109 -0.4252  0.0708
    4MOL   C921 3807   2.182   5.634   4.728 -0.7984  0.0180  0.1288
    4MOL   C922 3808   2.182   5.748   4.827  0.3670  0.4608  0.5640
    4MOL   N923 3809   2.319   5.781   4.861 -0.6626 -0.4160 -0.0352
    4MOL   C924 3810   2.363   5.878   4.947 -0.2101  0.1359  0.4549
    4MOL   O925 3811   2.280   5.954   5.006 -0.4810 -0.2333 -0.0046
    4MOL   C926 3812   2.512   5.894   4.981  0.3984 -0.0028  0.4277
    4MOL   C927 3813   2.534   6.016   5.082 -0.4647 -0.6880 -0.0023
    4MOL   C928 3814   2.675   6.023   5.143  0.1729  0.6229 -0.0347
    4MOL   C929 3815   2.774   6.086   5.045  1.4743 -0.4261  0.1887
    4MOL   C930 3816   2.915   6.096   5.106  0.7371  0.1082 -0.2613
    4MOL   C931 3817   2.974   5.967   5.166  0.6657 -0.2090 -0.5315
    4MOL   C932 3818   2.996   5.861   5.064 -0.3881  0.1084 -0.3855
    4MOL   C933 3819   3.115   5.881   4.961  0.0864  0.4046  0.0816
    4MOL   C934 3820   3.123   5.777   4.848 -0.1819  0.2658  0.0801
    4MOL   O935 3821   3.118   5.816   4.730  0.2645  0.1431  0.7256
    4MOL   H936 3822   1.826   5.693   4.643 -1.2806 -2.3958  0.2242
    4MOL   H937 3823   1.954   5.579   4.890  1.2138  0.1695  0.1989
    4MOL   H938 3824   1.869   5.495   4.775  0.5037 -0.1190  1.7217
    4MOL   H939 3825   1.980   5.388   4.583 -0.8128  0.0535 -0.4494
    4MOL   H940 3826   2.186   5.349   4.457  0.7237 -1.4758  0.4253
    4MOL   H941 3827   2.387   5.472   4.507  1.5121  3.0797  0.7900
    4MOL   H942 3828   2.389   5.665   4.671 -1.4696  0.3654 -0.5856
    4MOL   H943 3829   2.127   5.715   4.915  0.1134  0.1749  0.2999
    4MOL   H944 3830   2.144   5.842   4.786  0.4506  0.0696 -0.4337
    4MOL   H945 3831   2.395   5.719   4.837  1.5981  2.0971  0.3994
    4MOL   H946 3832   2.571   5.915   4.891 -1.6830  0.9996 -0.7306
    4MOL   H947 3833   2.557   5.810   5.034  2.1312  0.2866 -0.5479
    4MOL   H948 3834   2.466   6.004   5.166 -1.1685 -0.3589 -0.5196
    4MOL   H949 3835   2.514   6.109   5.030 -0.0247 -0.8679 -0.5077
    4MOL   H950 3836   2.673   6.090   5.229  1.1905  1.0519 -0.3416
    4MOL   H951 3837   2.717   5.924   5.156  1.2464  0.9529 -0.8519
    4MOL   H952 3838   2.773   6.038   4.947  0.8774  0.1734 -0.1044
    4MOL   H953 3839   2.756   6.191   5.020 -0.6558 -0.5119  1.3092
    4MOL   H954 3840   2.908   6.177   5.178  0.1560 -1.0863  1.0542
    4MOL   H955 3841   2.981   6.145   5.034  0.2335  0.8357 -0.2356
    4MOL   H956 3842   3.074   5.984   5.204  0.1657  0.7702  0.3706
    4MOL   H957 3843   2.922   5.922   5.251  2.8035 -1.2975  0.2216
    4MOL   H958 3844   2.904   5.848   5.007 -0.2832  1.2197 -0.8124
    4MOL   H959 3845   3.012   5.774   5.128 -2.4347  0.5956  0.8347
    4MOL   H960 3846   3.213   5.878   5.009 -0.4024 -1.3502  1.0299
    4MOL   H961 3847   3.099   5.981   4.923 -1.3391  0.4914  0.8716
    4MOL   H962 3848   3.142   5.674   4.878 -1.2687 -0.1300 -0.5787
    5MOL     N1 3849   3.739   3.430   2.233 -1.2482 -0.1326 -0.6321
    5MOL     C2 3850   3.730   3.525   2.123  0.1194 -0.0607 -0.6631
    5MOL     C3 3851   3.747   3.464   1.986 -0.7758 -0.0741  0.4926
    5MOL     C4 3852   3.636   3.455   1.901  0.3936 -0.2920 -0.0312
    5MOL     C5 3853   3.647   3.407   1.770 -0.0968  0.3806  0.5527
    5MOL     C6 3854   3.765   3.351   1.719 -0.0300 -0.2583  0.0831
    5MOL     C7 3855   3.884   3.353   1.800  0.1003 -0.5572  0.1922
    5MOL     C8 3856   3.870   3.411   1.934  0.1757 -0.1513 -0.6552
    5MOL     C9 3857   3.998   3.406   2.018 -0.1666 -0.3940 -0.0586
    5MOL    N10 3858   3.984   3.315   2.127  0.0704  0.6486 -0.0046
    5MOL    C11 3859   4.075   3.234   2.173  0.6835 -0.0377 -0.3116
    5MOL    O12 3860   4.186   3.215   2.120 -0.2215  0.0437 -0.4163
    5MOL    C13 3861   4.046   3.177   2.313  0.0364 -0.1026 -0.1302
    5MOL    C14 3862   4.109   3.047   2.336  0.2248  0.1459  0.2169
    5MOL    C15 3863   4.046   2.920   2.269 -0.2085 -0.1241  0.2254
    5MOL    C16 3864   4.123   2.789   2.298  0.1456 -0.2465  0.1336
    5MOL    C17 3865   4.064   2.671   2.224 -0.1755  0.1874 -0.2869
    5MOL    C18 3866   4.115   2.538   2.274  0.1147  0.3027 -0.3322
    5MOL    C19 3867   4.097   2.423   2.172 -0.0088 -0.4207  0.5160
    5MOL    C20 3868   3.959   2.407   2.104 -0.0579  0.3010 -0.6888
    5MOL    C21 3869   3.942   2.503   1.985  0.6588  0.2600 -0.4351
    5MOL    O22 3870   4.033   2.519   1.908 -0.3879 -0.0463  0.2623
    5MOL    H23 3871   3.808   3.458   2.302 -0.3111  1.2793 -2.0987
    5MOL    H24 3872   3.642   3.589   2.124 -0.6807 -1.0302 -3.7505
    5MOL    H25 3873   3.809   3.598   2.144 -0.3907  0.1582  0.5720
    5MOL    H26 3874   3.540   3.488   1.938  1.3524  1.1137  1.2550
    5MOL    H27 3875   3.559   3.401   1.709  1.9168  1.2806 -2.5737
    5MOL    H28 3876   3.780   3.317   1.617 -1.0197 -0.7518  0.1041
    5MOL    H29 3877   3.974   3.317   1.753 -0.6442  0.1226 -1.8156
    5MOL    H30 3878   3.997   3.510   2.048 -3.6466 -0.4514  0.1475
    5MOL    H31 3879   4.089   3.389   1.960 -0.8710 -0.6905 -1.0928
    5MOL    H32 3880   3.893   3.321   2.171  0.1571 -1.7146  0.5604
    5MOL    H33 3881   3.940   3.155   2.316  0.1587 -0.7358 -0.4522
    5MOL    H34 3882   4.075   3.256   2.383  0.7855  1.2498 -1.9205
    5MOL    H35 3883   4.116   3.020   2.442  0.8707  1.1478  0.4347
    5MOL    H36 3884   4.216   3.057   2.320  0.5131 -1.1861  1.1965
    5MOL    H37 3885   3.949   2.910   2.318 -0.3704 -1.6675 -0.3722
    5MOL    H38 3886   4.017   2.936   2.166  0.3098  3.1157  0.5443
    5MOL    H39 3887   4.224   2.813   2.266  0.3319  0.4919  1.2544
    5MOL    H40 3888   4.117   2.780   2.406  0.7892 -0.6732  0.1350
    5MOL    H41 3889   3.956   2.653   2.221 -0.1108 -0.0530 -1.6141
    5MOL    H42 3890   4.088   2.679   2.118  1.0306 -1.7094 -0.1845
    5MOL    H43 3891   4.059   2.519   2.365  0.5421 -1.5286 -0.4238
    5MOL    H44 3892   4.223   2.546   2.285  0.0697  2.1249 -1.0342
    5MOL    H45 3893   4.173   2.429   2.094  0.3804 -0.2089  0.9059
    5MOL    H46 3894   4.113   2.332   2.230 -1.9971 -0.7816  0.5401
    5MOL    H47 3895   3.891   2.417   2.188  1.3347  0.7336  0.3939
    5MOL    H48 3896   3.948   2.302   2.074 -1.7069  0.2661  0.0079
    5MOL    H49 3897   3.651   3.420   2.281 -2.6790  1.1730 -2.9461
    5MOL    N50 3898   3.820   2.551   1.978  0.1920 -0.1368  0.6732
    5MOL    C51 3899   3.780   2.655   1.883  0.5906 -0.2111  0.6214
    5MOL    C52 3900   3.760   2.801   1.931 -0.2038 -0.2888  0.2562
    5MOL    C53 3901   3.763   2.828   2.063 -0.5752 -0.0629 -0.5752
    5MOL    C54 3902   3.738   2.959   2.114 -0.3053 -0.2529 -0.7999
    5MOL    C55 3903   3.704   3.058   2.024  0.0634  0.4303  0.3709
    5MOL    C56 3904   3.696   3.029   1.885  0.4866 -0.0631  0.3989
    5MOL    C57 3905   3.728   2.901   1.839  0.2024 -0.9972 -0.1798
    5MOL    C58 3906   3.709   2.884   1.693  0.3196 -0.0681  0.3240
    5MOL    N59 3907   3.824   2.933   1.623  0.4002 -0.2347 -0.2688
    5MOL    C60 3908   3.870   2.879   1.507 -0.0714  0.4466 -0.1693
    5MOL    O61 3909   3.810   2.786   1.445 -0.5775  0.4596 -0.9101
    5MOL    C62 3910   4.000   2.932   1.446  0.6693  0.5293 -0.0869
    5MOL    C63 3911   3.966   3.019   1.323  0.8270 -0.7081  0.0778
    5MOL    C64 3912   3.885   3.143   1.351 -0.2042 -0.3114  0.0507
    5MOL    C65 3913   3.869   3.247   1.239 -0.0530 -0.8095  0.0058
    5MOL    C66 3914   3.994   3.327   1.191 -0.2974 -0.7839  0.0123
    5MOL    C67 3915   4.072   3.411   1.290  0.1133  0.1066  0.0918
    5MOL    C68 3916   4.189   3.488   1.214 -0.2096  0.4710  0.1894
    5MOL    C69 3917   4.256   3.610   1.283  0.1186  0.3772  0.3619
    5MOL    C70 3918   4.296   3.590   1.431  0.8543  0.3703 -0.0857
    5MOL    O71 3919   4.229   3.531   1.517  0.7515 -0.7704  0.5310
    5MOL    H72 3920   3.739   2.525   2.032  1.3652  0.5351  2.8115
    5MOL    H73 3921   3.689   2.623   1.831  1.0596  0.8622 -0.9033
    5MOL    H74 3922   3.860   2.659   1.809  1.2395 -1.5407  1.2493
    5MOL    H75 3923   3.770   2.745   2.132 -0.9084  0.3923  0.0161
    5MOL    H76 3924   3.759   2.982   2.217 -0.3356 -0.2174 -0.8015
    5MOL    H77 3925   3.678   3.160   2.049 -0.6710  0.1729  0.6785
    5MOL    H78 3926   3.675   3.108   1.814  0.4043 -2.1255 -1.9235
    5MOL    H79 3927   3.638   2.956   1.653 -0.1637 -0.6460  0.1269
    5MOL    H80 3928   3.678   2.786   1.656 -0.5767 -0.1766  1.3310
    5MOL    H81 3929   3.875   3.012   1.659  0.7250 -0.4936 -0.1675
    5MOL    H82 3930   4.059   2.847   1.413  1.5343  0.6203  1.1492
    5MOL    H83 3931   4.067   2.983   1.516  0.6594  1.4437 -0.7427
    5MOL    H84 3932   3.906   2.966   1.248 -0.4707  0.0768  0.5422
    5MOL    H85 3933   4.059   3.049   1.275 -0.8732 -0.0421 -3.0188
    5MOL    H86 3934   3.784   3.104   1.365  0.4597 -1.3328  2.1427
    5MOL    H87 3935   3.916   3.188   1.445 -0.2091 -0.9900  0.3824
    5MOL    H88 3936   3.834   3.191   1.152 -0.3726  2.5701 -2.1432
    5MOL    H89 3937   3.798   3.326   1.265 -1.3454 -2.3744  1.4150
    5MOL    H90 3938   4.056   3.265   1.127 -0.8568  0.0870 -1.3955
    5MOL    H91 3939   3.960   3.404   1.121  1.6871 -1.0322 -1.2642
    5MOL    H92 3940   4.107   3.356   1.378 -0.3844  0.2048  0.3497
    5MOL    H93 3941   4.001   3.484   1.328  0.2291 -0.1349  0.7933
    5MOL    H94 3942   4.152   3.533   1.123 -0.6321 -0.9421 -0.3613
    5MOL    H95 3943   4.266   3.421   1.176  0.6211  2.6818 -2.1154
    5MOL    H96 3944   4.185   3.692   1.275 -0.6828 -0.4844 -1.4540
    5MOL    H97 3945   4.344   3.640   1.227  0.3404 -0.5013  0.2328
    5MOL    N98 3946   4.411   3.651   1.462 -0.0632  0.3631  0.7117
    5MOL    C99 3947   4.491   3.608   1.580  0.8872 -0.0714  0.3318
    5MOL   C100 3948   4.636   3.661   1.573 -0.1123  0.0553 -0.4449
    5MOL   C101 3949   4.730   3.567   1.533  0.1786  1.0596 -0.3493
    5MOL   C102 3950   4.866   3.602   1.521  0.5125  0.6768 -0.0615
    5MOL   C103 3951   4.906   3.730   1.554 -0.5150  0.0833 -0.0461
    5MOL   C104 3952   4.811   3.826   1.577 -0.2124  0.1246  0.3985
    5MOL   C105 3953   4.673   3.794   1.593 -0.6446 -0.3069 -0.1820
    5MOL   C106 3954   4.573   3.904   1.634 -0.0936  0.1053 -0.9268
    5MOL   N107 3955   4.640   4.019   1.698  0.3768  0.1712  0.6418
    5MOL   C108 3956   4.665   4.138   1.642  0.7001 -1.3623 -0.1386
    5MOL   O109 3957   4.651   4.165   1.521 -0.2380  0.3306  0.1203
    5MOL   C110 3958   4.701   4.244   1.741  0.1887  0.2717  0.5123
    5MOL   C111 3959   4.742   4.378   1.683  0.2531 -0.1481  0.1070
    5MOL   C112 3960   4.624   4.475   1.657 -0.0086 -0.2288  0.7824
    5MOL   C113 3961   4.668   4.619   1.625  0.7065 -0.1512 -0.3610
    5MOL   C114 3962   4.763   4.689   1.721 -0.9422  0.1562  0.6565
    5MOL   C115 3963   4.799   4.829   1.669  0.0106  0.4498 -0.1512
    5MOL   C116 3964   4.921   4.894   1.730 -0.4545  0.4685  0.1452
    5MOL   C117 3965   4.930   5.048   1.703  0.5114  0.5980  0.4043
    5MOL   C118 3966   5.049   5.123   1.755 -0.0638  0.1775  0.6634
    5MOL   O119 3967   5.110   5.072   1.847  0.4577 -0.3330  0.3001
    5MOL   H120 3968   4.457   3.690   1.381  0.7839 -0.9329  0.5514
    5MOL   H121 3969   4.440   3.639   1.671 -2.2341 -1.4626 -0.8714
    5MOL   H122 3970   4.477   3.500   1.586  3.7000 -0.4517  0.6425
    5MOL   H123 3971   4.711   3.466   1.500  1.6157  0.8140 -0.4516
    5MOL   H124 3972   4.943   3.532   1.491  0.2837  1.5281 -2.8337
    5MOL   H125 3973   5.010   3.755   1.543  0.0930 -1.5433  1.8932
    5MOL   H126 3974   4.843   3.929   1.578  2.5651 -0.7031 -0.2154
    5MOL   H127 3975   4.500   3.856   1.699  0.1493  0.5891 -0.2810
    5MOL   H128 3976   4.518   3.942   1.548 -0.3932 -0.0462 -0.8001
    5MOL   H129 3977   4.665   3.998   1.793  2.7642 -1.1852 -0.2222
    5MOL   H130 3978   4.783   4.198   1.797 -1.4807 -4.0605 -0.4396
    5MOL   H131 3979   4.618   4.259   1.811 -1.4756  0.9676 -1.5689
    5MOL   H132 3980   4.806   4.369   1.595  1.8747 -1.0242  1.3421
    5MOL   H133 3981   4.805   4.421   1.761  0.4373 -1.8071  0.8973
    5MOL   H134 3982   4.565   4.443   1.570 -0.4726  1.8731  0.2991
    5MOL   H135 3983   4.556   4.485   1.742  0.0579  1.4087  0.6524
    5MOL   H136 3984   4.720   4.632   1.530  2.9992 -3.8149  0.3073
    5MOL   H137 3985   4.584   4.688   1.623  1.6274  1.0227  0.5150
    5MOL   H138 3986   4.712   4.687   1.817 -0.0614 -0.6250  1.1126
    5MOL   H139 3987   4.856   4.632   1.715 -1.8286 -1.0948 -1.6774
    5MOL   H140 3988   4.717   4.896   1.696  1.8077  2.1754  1.1026
    5MOL   H141 3989   4.804   4.832   1.560  1.0789 -0.3549 -0.1301
    5MOL   H142 3990   4.915   4.878   1.838 -1.6147  3.5478  0.5768
    5MOL   H143 3991   5.007   4.835   1.698  0.1647  0.2369  2.1846
    5MOL   H144 3992   4.853   5.097   1.761 -0.7046  0.2630 -0.9019
    5MOL   H145 3993   4.917   5.073   1.597  1.4375  1.9874  0.6033
    5MOL   N146 3994   5.071   5.250   1.708  0.2069  0.6777 -0.5577
    5MOL   C147 3995   5.176   5.330   1.768  0.8633  0.2979 -0.5174
    5MOL   C148 3996   5.208   5.464   1.708 -0.0938  0.4052  0.0364
    5MOL   C149 3997   5.138   5.506   1.589 -0.2056  0.7656 -0.4830
    5MOL   C150 3998   5.166   5.624   1.527 -0.6569 -0.5222 -0.8852
    5MOL   C151 3999   5.273   5.710   1.571  0.6232 -0.5237  0.3392
    5MOL   C152 4000   5.347   5.670   1.683 -0.0879  0.6841 -0.2140
    5MOL   C153 4001   5.308   5.551   1.758  0.2907  0.5982 -0.1681
    5MOL   C154 4002   5.392   5.505   1.884 -0.4047  0.1203 -0.3296
    5MOL   N155 4003   5.485   5.602   1.931  0.4040 -0.6101  0.6191
    5MOL   C156 4004   5.512   5.634   2.057  0.0614 -0.3312  0.0512
    5MOL   O157 4005   5.461   5.581   2.149  0.2317 -0.4628  0.1420
    5MOL   C158 4006   5.620   5.738   2.082 -0.6555 -0.3859  0.3878
    5MOL   C159 4007   5.619   5.820   2.209 -0.1995 -0.2167  0.3635
    5MOL   C160 4008   5.552   5.955   2.189 -0.7128  0.0441  0.2544
    5MOL   C161 4009   5.534   6.042   2.309  0.7227 -0.2659 -0.4065
    5MOL   C162 4010   5.656   6.101   2.367  0.1638  0.4336  0.2018
    5MOL   C163 4011   5.623   6.201   2.482  0.1472 -0.2934  0.3089
    5MOL   C164 4012   5.740   6.247   2.571  0.2685  0.4433  0.2345
    5MOL   C165 4013   5.847   6.336   2.498 -0.2982  0.0267 -0.8186
    5MOL   C166 4014   5.810   6.484   2.503 -0.1137  0.4459 -0.7443
    5MOL   O167 4015   5.697   6.524   2.538 -0.7912  0.3558 -0.0362
    5MOL   H168 4016   4.997   5.293   1.655 -2.6385  0.5499  3.1185
    5MOL   H169 4017   5.259   5.263   1.790 -1.1265 -1.8477  0.6123
    5MOL   H170 4018   5.142   5.367   1.865  1.4023  0.9680 -0.5776
    5MOL   H171 4019   5.063   5.447   1.539  0.5575 -1.2288  0.6547
    5MOL   H172 4020   5.117   5.646   1.434  1.2101  2.0619 -1.3205
    5MOL   H173 4021   5.279   5.802   1.514 -2.0998  1.4166  3.0277
    5MOL   H174 4022   5.414   5.744   1.725 -1.1048  1.6634 -0.2732
    5MOL   H175 4023   5.443   5.410   1.865 -0.3547  0.0946 -0.0709
    5MOL   H176 4024   5.319   5.480   1.961 -0.2174 -1.1433 -0.5550
    5MOL   H177 4025   5.553   5.639   1.867  1.9122  0.0663  2.5416
    5MOL   H178 4026   5.620   5.805   1.996 -0.6683 -1.0483 -0.1303
    5MOL   H179 4027   5.709   5.675   2.082  0.4684  1.1796 -0.5887
    5MOL   H180 4028   5.723   5.839   2.238 -0.6241  1.4123  0.8479
    5MOL   H181 4029   5.568   5.767   2.289  1.5286 -2.7852 -0.1403
    5MOL   H182 4030   5.601   6.018   2.115  2.4164 -0.3639  1.8812
    5MOL   H183 4031   5.456   5.932   2.144 -0.3558 -0.1716 -0.3944
    5MOL   H184 4032   5.462   6.121   2.288  0.9538 -0.6204 -2.7063
    5MOL   H185 4033   5.478   5.972   2.371 -0.5877 -1.3129 -2.6748
    5MOL   H186 4034   5.715   6.013   2.392 -0.1129  0.2943  0.3651
    5MOL   H187 4035   5.711   6.157   2.291  0.5058 -1.8234 -1.2832
    5MOL   H188 4036   5.539   6.159   2.538 -0.4606  0.5885  0.0776
    5MOL   H189 4037   5.584   6.285   2.425 -0.9134 -1.1863 -0.3296
    5MOL   H190 4038   5.698   6.292   2.662 -0.2281  0.2238  0.1137
    5MOL   H191 4039   5.793   6.155   2.594  1.5691  0.9540 -0.7195
    5MOL   H192 4040   5.875   6.299   2.399  1.7489  0.6285 -0.4925
    5MOL   H193 4041   5.937   6.314   2.556 -0.6083  2.6869  0.7618
    5MOL   N194 4042   5.904   6.571   2.459 -0.3529 -0.1015 -0.9423
    5MOL   C195 4043   5.891   6.719   2.471  0.0066 -0.2696 -0.0708
    5MOL   C196 4044   5.972   6.780   2.583 -0.0972  1.0946 -0.0265
    5MOL   C197 4045   6.115   6.774   2.571 -0.1788 -0.6485 -0.3696
    5MOL   C198 4046   6.193   6.833   2.672  0.2617  0.1532 -0.0202
    5MOL   C199 4047   6.138   6.897   2.786 -0.1802  0.4333  0.2701
    5MOL   C200 4048   6.000   6.887   2.800  0.8743 -0.7787  0.4400
    5MOL   C201 4049   5.917   6.824   2.706 -0.1918  0.1160 -0.0889
    5MOL   C202 4050   5.770   6.814   2.736 -0.2638  0.1239 -0.3121
    5MOL   N203 4051   5.723   6.842   2.873  0.2424 -0.2400  0.6039
    5MOL   C204 4052   5.702   6.962   2.930 -0.3458  0.8244 -0.0457
    5MOL   O205 4053   5.699   7.067   2.868  0.0390  0.0030  0.3007
    5MOL   C206 4054   5.679   6.967   3.079 -0.7749 -0.6450  0.0047
    5MOL   C207 4055   5.587   7.075   3.137  0.2202 -0.3583  0.5032
    5MOL   C208 4056   5.438   7.073   3.104  0.7159 -0.5989 -0.5645
    5MOL   C209 4057   5.364   7.201   3.140  0.3576 -0.0086  0.7135
    5MOL   C210 4058   5.349   7.309   3.035  0.0959  0.1902 -0.5092
    5MOL   C211 4059   5.257   7.431   3.059  0.6332  0.6131  0.0763
    5MOL   C212 4060   5.282   7.546   2.957  0.1427  0.3673  0.3658
    5MOL   C213 4061   5.208   7.679   2.968  0.0090 -0.1452  0.2963
    5MOL   C214 4062   5.239   7.771   3.086 -0.0774  0.0743 -0.1378
    5MOL   O215 4063   5.288   7.728   3.189  0.5469 -0.0592 -0.0420
    5MOL   H216 4064   5.993   6.536   2.427 -0.8952 -2.3923 -0.0188
    5MOL   H217 4065   5.919   6.771   2.379  0.2502  1.8440  1.1661
    5MOL   H218 4066   5.785   6.742   2.480  0.4130  1.6470 -0.0334
    5MOL   H219 4067   6.173   6.736   2.489 -0.4210  0.7079 -1.1802
    5MOL   H220 4068   6.301   6.833   2.659  0.1076  1.2166 -1.5422
    5MOL   H221 4069   6.193   6.945   2.866  0.0742 -1.6052  1.3471
    5MOL   H222 4070   5.958   6.936   2.887 -0.5441  1.7272 -1.6102
    5MOL   H223 4071   5.736   6.715   2.704 -2.4100  1.0242 -0.8863
    5MOL   H224 4072   5.717   6.889   2.677 -0.4367 -0.5573 -1.0277
    5MOL   H225 4073   5.726   6.765   2.938 -0.5634 -1.0933 -0.3622
    5MOL   H226 4074   5.773   6.977   3.133 -2.1957  2.0394  2.1164
    5MOL   H227 4075   5.627   6.877   3.110 -0.6901 -1.3539 -1.8242
    5MOL   H228 4076   5.588   7.059   3.244  0.3445  0.5266  0.6372
    5MOL   H229 4077   5.627   7.175   3.116 -0.3688 -0.4047 -0.8846
    5MOL   H230 4078   5.408   7.044   3.003 -0.2667 -1.7893  0.0612
    5MOL   H231 4079   5.398   6.988   3.158 -1.2931  0.8538  0.3013
    5MOL   H232 4080   5.264   7.171   3.172 -0.3563  0.1023 -1.3227
    5MOL   H233 4081   5.416   7.247   3.224  0.1307  1.1889  0.2214
    5MOL   H234 4082   5.452   7.346   3.029 -0.3722  1.2602 -2.8062
    5MOL   H235 4083   5.318   7.258   2.944 -1.0143 -1.2700  0.6579
    5MOL   H236 4084   5.285   7.472   3.156  3.1703 -3.6614  1.3006
    5MOL   H237 4085   5.150   7.410   3.065  0.3034  1.6716 -1.8392
    5MOL   H238 4086   5.295   7.508   2.856 -0.6108  0.2852  0.2927
    5MOL   H239 4087   5.386   7.566   2.979 -0.0098  0.3426  1.1051
    5MOL   H240 4088   5.220   7.737   2.876 -1.2675  2.0745  1.4782
    5MOL   H241 4089   5.105   7.645   2.970  0.6828 -2.2683 -0.2017
    5MOL   N242 4090   5.206   0.111   3.074  0.2374 -0.1583  0.7443
    5MOL   C243 4091   5.231   0.211   3.177  0.2656 -0.3225 -0.3314
    5MOL   C244 4092   5.370   0.273   3.145  0.1116 -0.0061 -0.1387
    5MOL   C245 4093   5.377   0.356   3.027 -0.0529  0.1997  0.6802
    5MOL   C246 4094   5.490   0.435   3.003 -0.2679 -0.0936 -0.6064
    5MOL   C247 4095   5.595   0.437   3.092 -0.5140 -0.4551 -0.2172
    5MOL   C248 4096   5.598   0.342   3.195 -0.0473 -0.2078  0.6288
    5MOL   C249 4097   5.486   0.273   3.235  0.8142 -0.5745  0.3213
    5MOL   C250 4098   5.489   0.199   3.366 -0.1598  0.6981 -0.5922
    5MOL   N251 4099   5.488   0.051   3.355 -0.4537  0.2184 -0.4511
    5MOL   C252 4100   5.596   7.762   3.338  0.0133  0.3799 -0.1658
    5MOL   O253 4101   5.706   0.023   3.340 -0.4997  0.5036  0.2038
    5MOL   C254 4102   5.578   7.614   3.304 -0.7295 -0.3398  0.0971
    5MOL   C255 4103   5.701   7.534   3.355  0.0964  0.1091 -0.3136
    5MOL   C256 4104   5.682   7.383   3.340 -0.3531  0.3720 -0.2800
    5MOL   C257 4105   5.800   7.285   3.367  0.3996 -0.3864  0.0529
    5MOL   C258 4106   5.902   7.295   3.257  0.5081 -0.1101 -0.0067
    5MOL   C259 4107   6.000   7.170   3.260 -0.0688 -0.0519 -0.0972
    5MOL   C260 4108   6.075   7.137   3.132  0.4082 -0.3733  0.1153
    5MOL   C261 4109   6.138   7.253   3.055 -0.4131 -0.4368  0.5419
    5MOL   C262 4110   6.287   7.225   3.011 -0.1022 -0.3409  1.1668
    5MOL   O263 4111   6.365   7.224   3.104  0.0581 -0.1158 -0.3761
    5MOL   H264 4112   5.164   0.139   2.987 -1.7186 -0.9829  1.3922
    5MOL   H265 4113   5.150   0.283   3.166  2.1544  2.2005  1.5132
    5MOL   H266 4114   5.212   0.177   3.279 -1.7569  0.3665 -0.4638
    5MOL   H267 4115   5.288   0.368   2.967 -0.3840 -0.1402  1.0985
    5MOL   H268 4116   5.486   0.496   2.914  0.2256  0.1535 -0.4584
    5MOL   H269 4117   5.689   0.488   3.079  0.9745 -2.7508  1.1713
    5MOL   H270 4118   5.685   0.328   3.258 -1.3937  0.4323  2.6966
    5MOL   H271 4119   5.393   0.226   3.410  0.5152 -1.1748  2.1354
    5MOL   H272 4120   5.570   0.229   3.432 -1.3923 -0.3476  1.4523
    5MOL   H273 4121   5.398   0.014   3.330  0.3751 -1.3513 -1.1875
    5MOL   H274 4122   5.551   7.596   3.200  0.9215 -0.5671 -0.3022
    5MOL   H275 4123   5.492   7.583   3.364  0.5908 -0.9034  1.7390
    5MOL   H276 4124   5.741   7.562   3.452 -0.5548  0.2438 -0.0797
    5MOL   H277 4125   5.776   7.562   3.281 -0.1046 -1.0112 -0.9513
    5MOL   H278 4126   5.630   7.369   3.246  0.3575 -1.0992 -0.4704
    5MOL   H279 4127   5.604   7.362   3.413  0.4488 -1.7481 -0.0205
    5MOL   H280 4128   5.851   7.305   3.462  1.7108  0.1968 -0.7659
    5MOL   H281 4129   5.770   7.181   3.367 -0.7832 -0.1092 -3.2283
    5MOL   H282 4130   5.845   7.293   3.164 -0.4124  0.1166  0.5456
    5MOL   H283 4131   5.957   7.389   3.270 -0.6360  0.8824 -2.0486
    5MOL   H284 4132   5.941   7.084   3.290  0.6226 -0.2596  0.6847
    5MOL   H285 4133   6.077   7.195   3.333  2.4391  0.4057 -2.8302
    5MOL   H286 4134   6.155   7.067   3.159 -0.7876 -0.3737  3.9076
    5MOL   H287 4135   6.004   7.086   3.067 -1.5385  1.2608  0.9206
    5MOL   H288 4136   6.072   7.281   2.973 -0.0541  0.7468  0.6581
    5MOL   H289 4137   6.146   7.343   3.116 -0.4062 -0.5840  0.7573
    5MOL   N290 4138   6.315   7.201   2.882 -0.0061 -0.0667 -0.2752
    5MOL   C291 4139   6.446   7.179   2.828 -0.3214 -0.2388 -0.0181
    5MOL   C292 4140   6.529   7.301   2.799  0.2695  0.0456 -0.4775
    5MOL   C293 4141   6.480   7.431   2.796  0.2819  0.0814 -0.3921
    5MOL   C294 4142   6.557   7.542   2.761  0.3208 -0.8977 -0.1140
    5MOL   C295 4143   6.686   7.523   2.720 -0.1060 -0.2838  0.1833
    5MOL   C296 4144   6.739   7.392   2.719 -0.2860  0.1319 -0.2348
    5MOL   C297 4145   6.666   7.279   2.761 -0.1095 -0.4491  0.0395
    5MOL   C298 4146   6.729   7.137   2.744 -0.2403 -0.0631 -0.1022
    5MOL   N299 4147   6.726   7.099   2.607  0.0338  0.7706  0.5189
    5MOL   C300 4148   6.641   7.013   2.554 -0.2028  0.3071  0.0087
    5MOL   O301 4149   6.566   6.953   2.619 -0.2890  0.2889 -0.2763
    5MOL   C302 4150   6.650   6.979   2.404 -0.0359 -0.8278  0.0054
    5MOL   C303 4151   6.527   7.033   2.327 -0.5291  1.1927 -0.4585
    5MOL   C304 4152   6.398   6.950   2.342 -0.6911  0.3992  1.0240
    5MOL   C305 4153   6.297   7.002   2.234  0.1988 -0.6045 -0.5165
    5MOL   C306 4154   6.152   6.946   2.249 -0.1968  0.0560 -0.1663
    5MOL   C307 4155   6.060   6.973   2.126 -0.4760 -0.1398 -0.2133
    5MOL   C308 4156   5.920   6.899   2.129  0.1571 -0.0044 -0.0712
    5MOL   C309 4157   5.829   6.941   2.011 -0.3340  0.0298 -1.0503
    5MOL   C310 4158   5.694   6.871   2.012 -0.1893 -0.8909  0.1436
    5MOL   O311 4159   5.662   6.791   2.101 -0.0196  0.4900  0.2157
    5MOL   H312 4160   6.238   7.191   2.817 -0.8532 -0.2409  0.7383
    5MOL   H313 4161   6.498   7.103   2.886  1.4641  0.1253 -1.1002
    5MOL   H314 4162   6.433   7.137   2.728 -0.9215  1.4871 -0.6830
    5MOL   H315 4163   6.376   7.443   2.822  0.4434 -0.7379  0.6509
    5MOL   H316 4164   6.503   7.635   2.764  0.7622 -0.6544  0.6579
    5MOL   H317 4165   6.750   7.606   2.692 -2.2978  1.5364  0.4629
    5MOL   H318 4166   6.839   7.380   2.680 -0.3979 -0.3029 -0.3931
    5MOL   H319 4167   6.692   7.065   2.817 -1.1374  0.2758 -0.2273
    5MOL   H320 4168   6.834   7.144   2.773  0.5081 -1.1114 -2.4535
    5MOL   H321 4169   6.803   7.128   2.548 -0.4267 -0.9676 -0.9903
    5MOL   H322 4170   6.737   7.027   2.360 -1.2350  0.5179 -0.9249
    5MOL   H323 4171   6.664   6.871   2.404  0.0253 -0.8238  0.7190
    5MOL   H324 4172   6.559   7.042   2.223 -1.0356  1.5733 -0.5813
    5MOL   H325 4173   6.510   7.136   2.358 -0.1136  0.9655  0.5753
    5MOL   H326 4174   6.339   6.962   2.434 -0.1677 -0.6393  1.5017
    5MOL   H327 4175   6.409   6.844   2.322  0.3450  0.6753  0.1029
    5MOL   H328 4176   6.309   7.108   2.256  0.2114 -0.8837  0.8542
    5MOL   H329 4177   6.332   6.973   2.135  1.9413  0.7263 -0.3243
    5MOL   H330 4178   6.163   6.837   2.255  2.2189  0.2239 -1.0188
    5MOL   H331 4179   6.106   6.975   2.344  0.4943  1.8573 -0.3689
    5MOL   H332 4180   6.109   6.948   2.032 -1.6579  0.5382 -1.0174
    5MOL   H333 4181   6.041   7.080   2.117  0.3047  0.2168  1.9193
    5MOL   H334 4182   5.926   6.790   2.139 -1.0218 -0.2027 -1.4187
    5MOL   H335 4183   5.864   6.940   2.213  1.5367 -0.2608  0.9986
    5MOL   H336 4184   5.815   7.049   2.025  0.0832  0.2423 -2.2661
    5MOL   H337 4185   5.879   6.925   1.916  1.8504  1.1902 -0.1441
    5MOL   N338 4186   5.614   6.909   1.912 -1.1375  0.2395 -0.5427
    5MOL   C339 4187   5.479   6.861   1.900  0.1690  0.3545 -0.4353
    5MOL   C340 4188   5.455   6.743   1.799 -0.3250 -0.0204  0.2059
    5MOL   C341 4189   5.483   6.781   1.665 -0.1286 -0.1600  0.3929
    5MOL   C342 4190   5.449   6.684   1.571  0.0236  0.0444 -0.5127
    5MOL   C343 4191   5.399   6.558   1.611  0.2490  0.3696 -0.4059
    5MOL   C344 4192   5.372   6.520   1.741  0.0864  0.6665 -0.1080
    5MOL   C345 4193   5.406   6.614   1.843 -0.0574 -0.4218  0.0830
    5MOL   C346 4194   5.377   6.574   1.984 -1.0159  1.0704  0.1933
    5MOL   N347 4195   5.493   6.548   2.060  0.5408 -0.4292  0.4388
    5MOL   C348 4196   5.548   6.429   2.082  0.4044  0.1174 -0.4518
    5MOL   O349 4197   5.492   6.321   2.052 -0.1303 -0.0268 -0.3001
    5MOL   C350 4198   5.681   6.434   2.161  0.4420 -0.2383 -0.1369
    5MOL   C351 4199   5.802   6.386   2.081  0.2827 -0.0883 -0.0707
    5MOL   C352 4200   5.838   6.494   1.976  0.2632  0.2557  0.1492
    5MOL   C353 4201   5.972   6.478   1.911  0.1514 -0.1434  0.5712
    5MOL   C354 4202   6.032   6.602   1.842 -0.2439  0.1957 -0.1229
    5MOL   C355 4203   5.939   6.666   1.728 -0.2785  0.3278  0.5841
    5MOL   C356 4204   6.013   6.794   1.683 -0.3361  0.0720  0.2548
    5MOL   C357 4205   5.961   6.871   1.554 -0.7195 -0.3633  0.0548
    5MOL   C358 4206   5.860   6.984   1.589  0.0598 -0.5227 -0.7050
    5MOL   O359 4207   5.771   6.969   1.670  0.0937 -0.1343  0.0672
    5MOL   H360 4208   5.662   6.950   1.833 -1.4130 -0.8293 -1.2805
    5MOL   H361 4209   5.438   6.839   1.999 -0.9476  0.7802 -0.7861
    5MOL   H362 4210   5.421   6.948   1.870  1.3477  1.6891  1.0715
    5MOL   H363 4211   5.508   6.882   1.635  0.1191 -0.2272  0.3747
    5MOL   H364 4212   5.465   6.712   1.468 -0.2268 -1.2982 -0.9367
    5MOL   H365 4213   5.382   6.492   1.527  1.2940  1.3437 -1.3992
    5MOL   H366 4214   5.328   6.423   1.759  0.2829  0.8702  1.5002
    5MOL   H367 4215   5.308   6.489   1.987 -0.6718  0.7986  0.4496
    5MOL   H368 4216   5.322   6.655   2.033 -2.2578  0.0727  0.4682
    5MOL   H369 4217   5.547   6.631   2.078 -2.1243  1.8135 -1.4882
    5MOL   H370 4218   5.672   6.367   2.247 -1.5129 -1.5047 -1.2787
    5MOL   H371 4219   5.694   6.537   2.193  0.3143  0.2262 -1.5534
    5MOL   H372 4220   5.777   6.292   2.032 -0.9275  1.5687 -2.7499
    5MOL   H373 4221   5.883   6.367   2.151 -0.9126 -1.0076  1.0846
    5MOL   H374 4222   5.770   6.514   1.893 -1.0859  1.2516  1.4683
    5MOL   H375 4223   5.848   6.594   2.019  1.8490 -0.3234  1.1848
    5MOL   H376 4224   5.955   6.404   1.833  0.5426  0.9624 -0.5805
    5MOL   H377 4225   6.038   6.428   1.982 -1.6885 -1.1534  1.6188
    5MOL   H378 4226   6.042   6.682   1.916 -2.4067 -1.4233  2.0222
    5MOL   H379 4227   6.128   6.568   1.804 -0.6043  0.4261 -1.2357
    5MOL   H380 4228   5.839   6.686   1.765 -0.9318  0.7778 -1.3833
    5MOL   H381 4229   5.925   6.588   1.653 -0.0728 -1.3218  2.2155
    5MOL   H382 4230   6.021   6.869   1.762 -0.5472 -0.3881  0.7089
    5MOL   H383 4231   6.117   6.763   1.674 -0.0865  0.9498 -0.0051
    5MOL   H384 4232   5.899   6.804   1.494 -1.1926  0.5594 -0.5004
    5MOL   H385 4233   6.045   6.908   1.495 -1.1400 -0.4864 -0.6273
    5MOL   N386 4234   5.870   7.100   1.516  0.4083 -0.1045  0.1849
    5MOL   C387 4235   5.804   7.223   1.552 -0.1263 -0.4951 -0.0304
    5MOL   C388 4236   5.906   7.330   1.571 -0.4699 -0.1585  0.6202
    5MOL   C389 4237   5.941   7.407   1.459  0.1751  0.2261 -0.0552
    5MOL   C390 4238   6.024   7.519   1.478  0.4631 -0.2448 -0.1698
    5MOL   C391 4239   6.080   7.547   1.600  0.0039  0.7154  0.3300
    5MOL   C392 4240   6.045   7.472   1.718  0.3400  0.5075 -0.3497
    5MOL   C393 4241   5.965   7.358   1.702 -0.3632 -0.5841  0.3514
    5MOL   C394 4242   5.946   7.259   1.817  0.3277 -0.0118 -0.5881
    5MOL   N395 4243   6.001   7.298   1.949 -0.8663  0.3419  0.6772
    5MOL   C396 4244   5.940   7.355   2.046  0.4539  0.1326  0.0413
    5MOL   O397 4245   5.822   7.391   2.038 -0.4942 -0.1208  0.0149
    5MOL   C398 4246   6.016   7.364   2.177  0.2086  0.6428 -0.4383
    5MOL   C399 4247   5.925   7.359   2.294  0.5600  0.4583  0.2785
    5MOL   C400 4248   5.866   7.223   2.332 -0.3849  0.7088  0.7242
    5MOL   C401 4249   5.739   7.250   2.416  0.2295 -0.1711 -0.2135
    5MOL   C402 4250   5.665   7.116   2.430  0.2860  0.6099  0.5995
    5MOL   C403 4251   5.515   7.146   2.471  0.1892  0.5443 -0.1703
    5MOL   C404 4252   5.490   7.193   2.617 -0.2664 -0.4694 -0.1763
    5MOL   C405 4253   5.348   7.222   2.639  0.3427  0.3857  0.2399
    5MOL   C406 4254   5.282   7.338   2.569 -0.3603  0.2246  0.1767
    5MOL   O407 4255   5.287   7.455   2.606 -0.5465 -0.0427 -0.2278
    5MOL   H408 4256   5.953   7.109   1.458 -0.4433 -0.2012 -1.0775
    5MOL   H409 4257   5.742   7.269   1.476  0.6568  2.2867  0.9342
    5MOL   H410 4258   5.737   7.209   1.637 -0.1248  1.2896  0.2898
    5MOL   H411 4259   5.898   7.387   1.362  1.0389 -0.6646 -0.2656
    5MOL   H412 4260   6.045   7.579   1.391 -3.6591  2.7285  0.7583
    5MOL   H413 4261   6.143   7.635   1.602 -1.3751  1.7345 -0.5008
    5MOL   H414 4262   6.080   7.502   1.816  0.7095  2.3386 -1.0195
    5MOL   H415 4263   5.990   7.164   1.789  0.2335 -0.4758  0.8198
    5MOL   H416 4264   5.839   7.242   1.829 -0.0580  0.8718 -2.4783
    5MOL   H417 4265   6.098   7.277   1.968 -0.3048  1.3146 -0.9702
    5MOL   H418 4266   6.093   7.288   2.189 -1.2697 -0.4946  2.3913
    5MOL   H419 4267   6.066   7.461   2.177  2.5101 -0.4987  0.3804
    5MOL   H420 4268   5.847   7.434   2.281  0.8284  0.5142 -1.1057
    5MOL   H421 4269   5.978   7.378   2.387  2.3526  2.5302 -1.1114
    5MOL   H422 4270   5.922   7.154   2.396  0.0599  0.4216  0.0297
    5MOL   H423 4271   5.840   7.163   2.245 -1.8190 -2.1364  3.0059
    5MOL   H424 4272   5.756   7.290   2.516  0.5859  0.3231 -0.4655
    5MOL   H425 4273   5.673   7.328   2.378  1.6202  1.6259  0.9916
    5MOL   H426 4274   5.660   7.069   2.332 -3.2594 -0.0787  1.0537
    5MOL   H427 4275   5.709   7.048   2.503  2.7179 -0.1648 -1.5259
    5MOL   H428 4276   5.451   7.063   2.442 -0.0080  0.5914  0.1312
    5MOL   H429 4277   5.486   7.220   2.396 -1.2559  0.9481  0.7416
    5MOL   H430 4278   5.561   7.273   2.637  1.6922 -2.1878 -0.0892
    5MOL   H431 4279   5.518   7.115   2.687 -0.3881 -0.4839 -0.1441
    5MOL   H432 4280   5.325   7.243   2.744  0.9746  2.5191 -0.0385
    5MOL   H433 4281   5.295   7.130   2.616  1.1308 -0.1881  0.6928
    5MOL   N434 4282   5.214   7.310   2.461 -0.0042 -0.4662  0.1561
    5MOL   C435 4283   5.149   7.398   2.363  0.3756  0.0527  0.3381
    5MOL   C436 4284   5.139   7.315   2.233  0.3459  0.6336  0.2820
    5MOL   C437 4285   5.221   7.204   2.201  0.7394 -0.3508 -0.1954
    5MOL   C438 4286   5.221   7.141   2.079  0.0016 -0.1596  0.3570
    5MOL   C439 4287   5.120   7.166   1.985  0.3260  0.5095 -0.0504
    5MOL   C440 4288   5.038   7.275   2.007  0.3900 -0.3764  0.2890
    5MOL   C441 4289   5.046   7.347   2.128 -0.9317  0.5229  0.2312
    5MOL   C442 4290   4.957   7.472   2.131  0.0773  0.1865 -0.1577
    5MOL   N443 4291   5.011   7.584   2.058 -0.4168  0.8438  0.2272
    5MOL   C444 4292   5.043   7.697   2.121 -0.5856 -0.6871  0.3574
    5MOL   O445 4293   5.029   7.724   2.239  1.0982 -0.4039  0.1538
    5MOL   C446 4294   5.083   0.021   2.024  0.2786 -0.1649  0.2817
    5MOL   C447 4295   5.219   0.064   2.039  0.5763 -0.7327 -0.2831
    5MOL   C448 4296   5.238   0.176   2.142 -0.4035 -0.0951  0.2820
    5MOL   C449 4297   5.382   0.228   2.157  0.3698 -1.0582 -0.5710
    5MOL   C450 4298   5.408   0.326   2.273  0.6322 -0.6046 -0.4609
    5MOL   C451 4299   5.558   0.368   2.273 -0.3930  0.0829  0.2741
    5MOL   C452 4300   5.596   0.503   2.343  0.8817 -0.1284 -0.1216
    5MOL   C453 4301   5.732   0.566   2.294  0.6742  0.5547  0.6736
    5MOL   C454 4302   5.771   0.699   2.359 -0.1183 -0.6317 -0.6053
    5MOL   O455 4303   5.705   0.753   2.443 -0.1639  0.0398  0.0632
    5MOL   H456 4304   5.219   7.216   2.423 -2.3149 -0.2624 -0.7912
    5MOL   H457 4305   5.188   7.499   2.358  1.8134 -0.5278 -0.4044
    5MOL   H458 4306   5.054   7.407   2.416 -0.4445 -2.4051 -0.6058
    5MOL   H459 4307   5.294   7.163   2.269  0.1628 -1.5140 -0.2739
    5MOL   H460 4308   5.294   7.062   2.065 -0.3433 -0.2561 -0.9660
    5MOL   H461 4309   5.113   7.109   1.894  0.6279  1.7670 -0.8720
    5MOL   H462 4310   4.981   7.306   1.921 -0.6742  0.2097  1.1881
    5MOL   H463 4311   4.922   7.487   2.233 -1.5441 -0.4244 -0.6031
    5MOL   H464 4312   4.864   7.448   2.080 -0.3820 -2.3447  1.7965
    5MOL   H465 4313   5.002   7.589   1.958 -0.6196 -0.4065  0.1819
    5MOL   H466 4314   5.008   0.100   2.025 -0.1312 -0.5628  2.1108
    5MOL   H467 4315   5.076   7.769   1.923  0.8688 -1.9891  0.9827
    5MOL   H468 4316   5.253   0.103   1.943  1.2726 -2.3088 -0.6820
    5MOL   H469 4317   5.290   7.773   2.058  0.4495 -0.8192 -0.1780
    5MOL   H470 4318   5.182   0.262   2.106 -0.8117 -0.5844 -0.2546
    5MOL   H471 4319   5.219   0.155   2.248  1.1474  1.5373  0.9141
    5MOL   H472 4320   5.450   0.143   2.169 -0.6076 -1.6968  0.5367
    5MOL   H473 4321   5.417   0.271   2.063  1.3980 -1.6061 -0.4433
    5MOL   H474 4322   5.346   0.415   2.264  1.3321 -0.1683 -1.0562
    5MOL   H475 4323   5.380   0.275   2.365 -1.8261  0.8349 -0.3632
    5MOL   H476 4324   5.581   0.371   2.166  0.3548  0.2240  0.4403
    5MOL   H477 4325   5.606   0.278   2.310 -0.7106 -0.5886 -0.9369
    5MOL   H478 4326   5.518   0.575   2.320  1.1160  0.2301  0.2028
    5MOL   H479 4327   5.597   0.493   2.451  0.7463 -1.0242 -0.1974
    5MOL   H480 4328   5.815   0.495   2.293  0.1865 -0.0272  1.1131
    5MOL   H481 4329   5.737   0.588   2.188 -1.7566  1.1841  0.6694
    5MOL   N482 4330   5.880   0.761   2.316  0.1620 -0.5637  0.0243
    5MOL   C483 4331   5.952   0.856   2.391  0.0296  0.3009  0.0996
    5MOL   C484 4332   6.105   0.840   2.381 -0.5738 -0.2449  0.6038
    5MOL   C485 4333   6.175   0.798   2.496  0.2819 -0.3488  0.3036
    5MOL   C486 4334   6.313   0.776   2.492  0.0076 -0.0807 -0.4953
    5MOL   C487 4335   6.388   0.798   2.371 -0.4713 -0.1373  0.4080
    5MOL   C488 4336   6.314   0.846   2.259 -0.1925 -0.3831 -0.1553
    5MOL   C489 4337   6.175   0.862   2.263 -0.7578  0.0532  0.7549
    5MOL   C490 4338   6.109   0.910   2.133 -0.3848 -0.5798 -0.2228
    5MOL   N491 4339   6.115   0.807   2.024 -0.5317  0.1076 -0.0744
    5MOL   C492 4340   6.027   0.719   1.999  0.3031 -0.0969  0.0907
    5MOL   O493 4341   5.908   0.730   2.045  0.1357  0.3940 -0.0500
    5MOL   C494 4342   6.061   0.615   1.891 -0.6438  0.3891 -0.4865
    5MOL   C495 4343   6.082   0.471   1.954 -0.1317  1.1127 -0.0010
    5MOL   C496 4344   6.229   0.436   1.981 -0.7246 -0.1614 -0.2360
    5MOL   C497 4345   6.322   0.530   2.050 -0.1132 -0.3518  0.1274
    5MOL   C498 4346   6.461   0.472   2.080  0.0624 -0.1642  0.4604
    5MOL   C499 4347   6.560   0.584   2.119  0.3087 -0.1619  0.6234
    5MOL   C500 4348   6.704   0.541   2.132 -0.0834  0.2139 -0.1492
    5MOL   C501 4349   6.797   0.653   2.190 -0.7036  0.5326  0.3024
    5MOL   C502 4350   6.822   0.764   2.093 -0.0577 -0.2758 -0.1798
    5MOL   O503 4351   6.861   0.739   1.979  0.4305 -0.4396 -0.3075
    5MOL   H504 4352   5.929   0.708   2.244  1.4451 -2.2393  2.0738
    5MOL   H505 4353   5.934   0.960   2.365 -0.5867  0.0708 -0.4271
    5MOL   H506 4354   5.920   0.866   2.494 -2.1786  1.0773 -0.6350
    5MOL   H507 4355   6.120   0.768   2.584 -1.6979 -0.1899 -0.8546
    5MOL   H508 4356   6.366   0.737   2.578  0.7894  0.4257 -0.7440
    5MOL   H509 4357   6.495   0.785   2.369 -0.6483 -1.6276 -0.2725
    5MOL   H510 4358   6.372   0.874   2.172  0.7000 -0.9553  0.2538
    5MOL   H511 4359   6.164   0.999   2.102 -2.9983  1.5382  0.9692
    5MOL   H512 4360   6.008   0.947   2.151  0.4982  0.6513  2.4542
    5MOL   H513 4361   6.205   0.795   1.980 -0.2916  0.1177  0.4082
    5MOL   H514 4362   6.147   0.646   1.832 -0.1469  3.0814  1.5475
    5MOL   H515 4363   5.985   0.617   1.813  1.1064  1.0790 -2.2148
    5MOL   H516 4364   6.031   0.393   1.898  1.4238  0.1488 -0.0996
    5MOL   H517 4365   6.022   0.477   2.045  1.3309  1.1460  0.9740
    5MOL   H518 4366   6.231   0.353   2.052  0.7441  1.3032  1.5006
    5MOL   H519 4367   6.276   0.412   1.886  0.4178 -1.3643  0.6132
    5MOL   H520 4368   6.348   0.600   1.970 -1.6897  0.3382  0.2058
    5MOL   H521 4369   6.282   0.575   2.140 -3.1507 -1.7893 -0.4458
    5MOL   H522 4370   6.445   0.389   2.149 -3.6765  0.2937  0.2636
    5MOL   H523 4371   6.503   0.416   1.996 -1.1592 -0.3971  0.0011
    5MOL   H524 4372   6.527   0.628   2.213  0.5069  0.9424  0.1800
    5MOL   H525 4373   6.559   0.668   2.050  1.2265 -0.6727 -0.0234
    5MOL   H526 4374   6.705   0.457   2.201 -0.8749 -0.9926 -1.5734
    5MOL   H527 4375   6.740   0.511   2.034  0.1024  0.8180 -0.2661
    5MOL   H528 4376   6.896   0.615   2.216 -1.5313 -1.1176  1.1508
    5MOL   H529 4377   6.747   0.699   2.275 -0.1178  1.5693  0.0994
    5MOL   N530 4378   6.793   0.889   2.135 -0.1120 -0.5515  0.0500
    5MOL   C531 4379   6.778   1.015   2.058  0.2656 -0.9290 -0.0218
    5MOL   C532 4380   6.650   1.077   2.100  0.5121  0.5097 -0.0573
    5MOL   C533 4381   6.553   1.072   1.994  0.3294  0.0551  0.1783
    5MOL   C534 4382   6.426   1.127   2.013 -0.5297 -0.3921  0.5764
    5MOL   C535 4383   6.402   1.196   2.134  0.1614  0.0899  0.4248
    5MOL   C536 4384   6.501   1.200   2.236 -0.6418 -0.3117 -0.0355
    5MOL   C537 4385   6.622   1.140   2.221 -0.1639  0.4669 -0.3511
    5MOL   C538 4386   6.726   1.163   2.327  0.6179 -1.0252 -0.0588
    5MOL   N539 4387   6.684   1.107   2.452  0.6356  0.2797 -0.3477
    5MOL   C540 4388   6.695   0.981   2.490  0.5262 -0.1822 -0.1725
    5MOL   O541 4389   6.760   0.897   2.423  0.2186 -0.4414 -0.5760
    5MOL   C542 4390   6.633   0.953   2.632  0.3267  0.0639  0.5440
    5MOL   C543 4391   6.708   0.848   2.722 -0.4665  0.1252 -0.0614
    5MOL   C544 4392   6.632   0.715   2.733  0.0627 -0.3339  0.0293
    5MOL   C545 4393   6.644   0.634   2.604  0.6765 -0.2772 -0.3349
    5MOL   C546 4394   6.570   0.498   2.603 -0.1816  0.3905 -0.1855
    5MOL   C547 4395   6.584   0.431   2.462  0.4650 -0.3642  0.3010
    5MOL   C548 4396   6.504   0.301   2.449 -0.1570 -0.3982  0.0848
    5MOL   C549 4397   6.544   0.174   2.535 -0.7187  1.0545 -0.7773
    5MOL   C550 4398   6.669   0.117   2.477  0.3491  0.4403 -0.0434
    5MOL   O551 4399   6.779   0.168   2.499 -0.4704  0.5139 -0.5421
    5MOL   H552 4400   6.764   0.916   2.228 -0.9177  1.0513 -0.6408
    5MOL   H553 4401   6.777   0.975   1.957  0.9267  0.2325 -0.4930
    5MOL   H554 4402   6.861   1.086   2.066 -0.7618  0.2672  0.2439
    5MOL   H555 4403   6.569   1.016   1.904 -0.4413  0.5332 -0.2645
    5MOL   H556 4404   6.350   1.120   1.936  1.3706 -0.7491 -1.2871
    5MOL   H557 4405   6.305   1.238   2.159  0.5720  1.1817  0.2056
    5MOL   H558 4406   6.480   1.235   2.336  0.1820  0.3634 -0.0947
    5MOL   H559 4407   6.755   1.268   2.329  1.1027 -1.1459 -0.4894
    5MOL   H560 4408   6.818   1.112   2.298  0.0616 -1.1177 -1.7469
    5MOL   H561 4409   6.634   1.168   2.516  0.7246 -1.3614  1.3254
    5MOL   H562 4410   6.538   0.904   2.612  1.3690 -2.2355  1.1401
    5MOL   H563 4411   6.604   1.047   2.680  0.1199  1.2568 -1.8575
    5MOL   H564 4412   6.718   0.891   2.822  0.7134  1.2310 -0.6415
    5MOL   H565 4413   6.805   0.826   2.678 -0.3482 -2.0578  1.2013
    5MOL   H566 4414   6.672   0.652   2.813  1.6083  1.8200  1.0016
    5MOL   H567 4415   6.527   0.735   2.752  0.0698 -0.2846  0.0125
    5MOL   H568 4416   6.616   0.685   2.512 -1.8674 -0.4234  0.3246
    5MOL   H569 4417   6.751   0.617   2.597  0.7923 -0.0475  0.7637
    5MOL   H570 4418   6.618   0.438   2.681 -0.5654 -0.7288 -0.8015
    5MOL   H571 4419   6.466   0.505   2.632 -0.4490  1.7430 -1.4178
    5MOL   H572 4420   6.689   0.405   2.450  0.6559  1.0123 -1.1605
    5MOL   H573 4421   6.542   0.494   2.383 -0.2618 -0.6012  0.4868
    5MOL   H574 4422   6.399   0.327   2.462 -0.4972 -1.3828 -0.5546
    5MOL   H575 4423   6.514   0.273   2.344  0.3155 -2.3328  0.6170
    5MOL   H576 4424   6.460   0.105   2.527  1.2949 -1.6326  0.7665
    5MOL   H577 4425   6.548   0.196   2.642  0.8553  1.6370 -0.9399
    5MOL   N578 4426   6.644   0.019   2.391 -0.5271  0.0236  0.5935
    5MOL   C579 4427   6.738   7.767   2.296 -0.7968 -0.1106 -0.2677
    5MOL   C580 4428   6.726   0.063   2.173 -0.2451 -0.3108 -0.2576
    5MOL   C581 4429   6.602   0.057   2.104  0.7016  0.6706  0.5316
    5MOL   C582 4430   6.578   0.136   1.989 -0.2494 -0.3294 -0.7609
    5MOL   C583 4431   6.680   0.227   1.943 -0.0727  0.5466  0.2397
    5MOL   C584 4432   6.807   0.224   2.011 -0.0096  0.2933  0.3276
    5MOL   C585 4433   6.831   0.142   2.123  0.2180  0.1097  0.3279
    5MOL   C586 4434   6.974   0.140   2.177  0.7187  0.6948  0.3676
    5MOL   N587 4435   6.975   0.221   2.301  0.1955  0.2948  0.5545
    5MOL   C588 4436   7.046   0.330   2.319  0.3156 -0.2829  0.1032
    5MOL   O589 4437   7.134   0.370   2.238  0.4830 -0.2273  0.1053
    5MOL   C590 4438   7.009   0.408   2.449  0.2030 -0.4079 -0.2371
    5MOL   C591 4439   7.092   0.534   2.466  0.6070  0.8493 -0.2506
    5MOL   C592 4440   7.107   0.577   2.605  0.6925 -0.3620 -0.0579
    5MOL   C593 4441   7.175   0.711   2.625  0.0179  0.1598 -0.6764
    5MOL   C594 4442   7.094   0.834   2.573  0.2217 -0.1428  0.5203
    5MOL   C595 4443   7.117   0.973   2.646 -0.2723  0.0373  0.5271
    5MOL   C596 4444   7.043   1.099   2.593 -0.3551 -0.1573 -0.8474
    5MOL   C597 4445   7.114   1.234   2.609  0.4609 -0.6071 -0.2952
    5MOL   C598 4446   7.023   1.353   2.570  1.0509  0.6175 -0.1899
    5MOL   O599 4447   6.946   1.335   2.478 -0.2670  0.1082 -0.0083
    5MOL   H600 4448   6.546   0.003   2.374 -1.1803  3.1328  1.0852
    5MOL   H601 4449   6.720   7.666   2.260 -0.6919 -0.2781  0.1514
    5MOL   H602 4450   6.841   7.771   2.330 -1.4571  0.7017  1.6787
    5MOL   H603 4451   6.516   0.003   2.142  0.1430  1.1069 -0.0999
    5MOL   H604 4452   6.489   0.119   1.930  0.0960  1.0317 -1.6840
    5MOL   H605 4453   6.677   0.292   1.857 -0.4110  1.6047  1.0425
    5MOL   H606 4454   6.891   0.287   1.987  0.7004 -0.7692 -0.0102
    5MOL   H607 4455   7.034   0.184   2.098  0.2837  0.6774  0.0278
    5MOL   H608 4456   7.002   0.035   2.193  0.7168  0.6399  0.0127
    5MOL   H609 4457   6.904   0.203   2.370 -1.0078 -1.7422 -1.1717
    5MOL   H610 4458   7.007   0.349   2.541 -1.8668 -0.7444 -0.4708
    5MOL   H611 4459   6.902   0.430   2.441 -0.2605 -0.7987  3.7037
    5MOL   H612 4460   7.047   0.622   2.420  1.9705  1.9503  0.4912
    5MOL   H613 4461   7.187   0.510   2.418  1.2111 -2.3034  2.3399
    5MOL   H614 4462   7.006   0.572   2.644  0.1217 -3.0131 -1.7395
    5MOL   H615 4463   7.160   0.493   2.650  0.2063 -1.0177 -0.7063
    5MOL   H616 4464   7.176   0.716   2.734 -1.2797 -0.9679 -0.5869
    5MOL   H617 4465   7.279   0.712   2.594 -0.1431  2.6833 -1.2235
    5MOL   H618 4466   7.116   0.850   2.468 -1.6050 -4.7750 -0.6863
    5MOL   H619 4467   6.987   0.813   2.562  0.6037 -1.4633 -0.9355
    5MOL   H620 4468   7.225   0.987   2.647 -0.5140  2.1151  1.1218
    5MOL   H621 4469   7.086   0.960   2.750 -3.3407 -0.3972 -0.3835
    5MOL   H622 4470   7.030   1.084   2.486 -1.5629  2.1189 -1.0599
    5MOL   H623 4471   6.943   1.104   2.635  0.0709  2.3497 -0.0058
    5MOL   H624 4472   7.133   1.248   2.716 -0.3350 -1.5465 -0.0235
    5MOL   H625 4473   7.209   1.231   2.555  0.8910  3.0513  0.1225
    5MOL   N626 4474   7.040   1.468   2.643  0.0399 -0.0818  0.3006
    5MOL   C627 4475   6.976   1.595   2.620 -0.1399 -0.0870  0.1184
    5MOL   C628 4476   6.885   1.641   2.729  0.5600 -0.3645 -0.1048
    5MOL   C629 4477   6.942   1.733   2.818  0.5823  0.6127 -0.0959
    5MOL   C630 4478   6.871   1.778   2.930  0.5200  0.3335 -1.0018
    5MOL   C631 4479   6.756   1.708   2.961 -0.0584  0.3914 -0.0363
    5MOL   C632 4480   6.698   1.612   2.875  0.0886  0.5621  0.0744
    5MOL   C633 4481   6.757   1.583   2.752  0.0628 -0.4078  0.2015
    5MOL   C634 4482   6.693   1.479   2.660  0.3010  0.1047  0.4704
    5MOL   N635 4483   6.555   1.505   2.635  0.0472  0.5217  0.1575
    5MOL   C636 4484   6.477   1.411   2.577  0.4909 -0.5590 -0.9567
    5MOL   O637 4485   6.518   1.299   2.553 -0.1569 -0.0691 -0.9832
    5MOL   C638 4486   6.332   1.448   2.540 -0.1679 -0.2082  0.0679
    5MOL   C639 4487   6.261   1.353   2.438 -0.0719  0.1174  0.3280
    5MOL   C640 4488   6.113   1.388   2.413  0.6783  0.4463 -0.6345
    5MOL   C641 4489   6.043   1.279   2.329  0.1305  0.0827  0.4778
    5MOL   C642 4490   5.896   1.309   2.295 -0.0199 -0.4771  0.4292
    5MOL   C643 4491   5.836   1.219   2.186  0.1907  0.0366 -0.0188
    5MOL   C644 4492   5.703   1.263   2.141  0.0952  0.2879 -0.3190
    5MOL   C645 4493   5.622   1.175   2.043 -0.3286  0.3189  0.4822
    5MOL   C646 4494   5.560   1.049   2.110  0.0217  0.1989  0.3619
    5MOL   O647 4495   5.510   1.051   2.219  0.1692  0.1310  0.4633
    5MOL   H648 4496   7.114   1.483   2.710  1.4490  1.0726 -1.4647
    5MOL   H649 4497   6.913   1.591   2.531  0.9164 -2.2033 -0.6038
    5MOL   H650 4498   7.057   1.664   2.598 -0.0824 -0.0800  0.3522
    5MOL   H651 4499   7.033   1.786   2.794  2.2732 -0.6337  3.3078
    5MOL   H652 4500   6.917   1.848   2.998  1.6942  0.1522 -1.5878
    5MOL   H653 4501   6.715   1.734   3.058 -1.7283 -0.1553 -0.5821
    5MOL   H654 4502   6.608   1.557   2.900  0.7615 -0.3835  0.4492
    5MOL   H655 4503   6.705   1.383   2.709  0.0425  0.0351  0.3952
    5MOL   H656 4504   6.746   1.475   2.565  1.8553 -0.2640  1.3403
    5MOL   H657 4505   6.527   1.601   2.646  0.4375  0.7402 -0.7928
    5MOL   H658 4506   6.334   1.546   2.491 -0.7846 -1.4908 -2.6522
    5MOL   H659 4507   6.276   1.460   2.632  0.0613  1.0191  0.0554
    5MOL   H660 4508   6.281   1.254   2.480 -0.0306  0.3549  0.8699
    5MOL   H661 4509   6.313   1.359   2.342  1.7211  0.9472  1.3381
    5MOL   H662 4510   6.065   1.416   2.507  0.8925 -1.3742  0.0472
    5MOL   H663 4511   6.108   1.477   2.351 -1.6414 -0.3957 -1.7433
    5MOL   H664 4512   6.102   1.256   2.240  1.8664 -1.3935  1.9774
    5MOL   H665 4513   6.041   1.182   2.379 -0.4243  0.0416  0.3838
    5MOL   H666 4514   5.835   1.298   2.385 -0.2330  0.6933  0.4439
    5MOL   H667 4515   5.881   1.412   2.262 -0.2441  0.0296  2.0674
    5MOL   H668 4516   5.826   1.118   2.225  1.4133 -0.8380 -1.9129
    5MOL   H669 4517   5.908   1.217   2.104  0.7440 -0.1678  0.4669
    5MOL   H670 4518   5.630   1.289   2.219  0.0314  1.2147 -0.6780
    5MOL   H671 4519   5.721   1.365   2.107 -0.6044  0.9428  1.2132
    5MOL   H672 4520   5.691   1.161   1.960 -1.3227  1.3668 -0.5276
    5MOL   H673 4521   5.539   1.227   1.996  0.7293  2.5426  0.9984
    5MOL   N674 4522   5.577   0.935   2.037  0.2354 -0.1675  0.1289
    5MOL   C675 4523   5.569   0.792   2.076  0.3292  0.1295 -0.0658
    5MOL   C676 4524   5.460   0.706   2.012 -0.0528  0.3003  0.2283
    5MOL   C677 4525   5.501   0.612   1.915  0.5337  0.4477 -0.7685
    5MOL   C678 4526   5.407   0.520   1.857 -0.4865 -0.2006 -0.0503
    5MOL   C679 4527   5.276   0.519   1.890 -0.0029  0.1789  0.8642
    5MOL   C680 4528   5.233   0.609   1.989 -0.1422  0.7322  0.0122
    5MOL   C681 4529   5.321   0.707   2.042  0.7639 -0.6600 -0.2604
    5MOL   C682 4530   5.260   0.796   2.148 -0.2148 -0.4372 -0.1414
    5MOL   N683 4531   5.297   0.756   2.282  0.3678 -0.3755 -0.1922
    5MOL   C684 4532   5.231   0.671   2.361  0.0024  0.5290 -0.4626
    5MOL   O685 4533   5.111   0.636   2.348 -0.3419  0.6419 -0.4270
    5MOL   C686 4534   5.299   0.635   2.490 -0.5760 -0.3478 -0.3234
    5MOL   C687 4535   5.224   0.663   2.617 -0.7885  0.5668  0.4952
    5MOL   C688 4536   5.311   0.685   2.736 -0.1061  0.6331  0.0578
    5MOL   C689 4537   5.239   0.702   2.871 -0.8491  0.0927 -0.5877
    5MOL   C690 4538   5.333   0.757   2.980 -0.1159 -0.5506 -0.5080
    5MOL   C691 4539   5.257   0.819   3.099 -0.0814  0.2369  0.6228
    5MOL   C692 4540   5.186   0.717   3.190 -0.4022 -0.5644  0.1019
    5MOL   C693 4541   5.267   0.612   3.264  0.1723 -0.6858  0.6400
    5MOL   C694 4542   5.188   0.523   3.355  0.2855 -0.4822 -0.2503
    5MOL   O695 4543   5.082   0.476   3.313  0.4384  0.1273 -0.3627
    5MOL   H696 4544   5.595   0.961   1.941  0.5450 -1.8145 -0.2871
    5MOL   H697 4545   5.566   0.782   2.185 -0.7559  0.8261 -0.0244
    5MOL   H698 4546   5.669   0.752   2.064  0.2448 -0.8425  2.1477
    5MOL   H699 4547   5.607   0.596   1.895  0.7097  1.2444 -0.4790
    5MOL   H700 4548   5.454   0.446   1.795 -0.8378  0.5902 -1.2780
    5MOL   H701 4549   5.205   0.457   1.839  0.5617  0.6191 -0.4776
    5MOL   H702 4550   5.129   0.604   2.018 -0.7221 -2.1621 -2.2419
    5MOL   H703 4551   5.152   0.790   2.138 -0.0740 -0.2352 -1.9183
    5MOL   H704 4552   5.301   0.897   2.137  1.1723 -0.7058  2.2687
    5MOL   H705 4553   5.390   0.787   2.307 -0.4222  0.3481  1.9282
    5MOL   H706 4554   5.399   0.679   2.488 -0.1665 -1.2342  0.3999
    5MOL   H707 4555   5.315   0.527   2.486 -2.2871 -0.6133 -0.2679
    5MOL   H708 4556   5.147   0.589   2.639  1.0250 -0.8623  2.1327
    5MOL   H709 4557   5.162   0.751   2.598 -1.4716  0.1108  0.5791
    5MOL   H710 4558   5.387   0.607   2.740  0.5743  1.2370 -0.7174
    5MOL   H711 4559   5.365   0.775   2.704 -1.0678  0.4435 -2.2474
    5MOL   H712 4560   5.162   0.775   2.847 -1.1090 -0.4766 -1.5118
    5MOL   H713 4561   5.191   0.610   2.906 -1.6662  1.5336  2.2237
    5MOL   H714 4562   5.397   0.674   3.010 -1.0614 -1.0630  0.1468
    5MOL   H715 4563   5.404   0.833   2.948  1.8686 -0.8190  3.0029
    5MOL   H716 4564   5.190   0.895   3.057 -0.9737  0.0255  1.6321
    5MOL   H717 4565   5.327   0.863   3.169 -0.5699 -0.5011  1.5946
    5MOL   H718 4566   5.122   0.654   3.127 -0.1531 -2.2389  1.4803
    5MOL   H719 4567   5.130   0.770   3.268  2.0234 -0.5134  1.8514
    5MOL   H720 4568   5.339   0.669   3.322  0.1220  0.0755 -0.0303
    5MOL   H721 4569   5.309   0.540   3.193  0.7339 -1.0269  1.3105
    5MOL   N722 4570   5.228   0.511   3.481  0.3910 -0.0053  0.4266
    5MOL   C723 4571   5.135   0.465   3.587 -0.6022 -0.7229 -0.5033
    5MOL   C724 4572   5.151   0.310   3.607  0.1815  1.3903  0.2323
    5MOL   C725 4573   5.275   0.252   3.647 -0.1040  0.2777  0.1963
    5MOL   C726 4574   5.288   0.109   3.642 -0.3377  0.7752  0.1718
    5MOL   C727 4575   5.179   0.027   3.599  0.8962  0.6317  0.2091
    5MOL   C728 4576   5.054   0.085   3.565  0.4625 -0.2089 -0.8403
    5MOL   C729 4577   5.042   0.225   3.575  0.4092  0.0064  0.0490
    5MOL   C730 4578   4.895   0.281   3.551  0.4325  0.3107  0.1965
    5MOL   N731 4579   4.877   0.348   3.422 -0.3492 -0.3596 -0.0152
    5MOL   C732 4580   4.757   0.351   3.366  0.0233 -0.3306 -0.6512
    5MOL   O733 4581   4.655   0.305   3.416  0.3285 -0.0992 -0.1094
    5MOL   C734 4582   4.748   0.426   3.233  1.2396  0.5384 -0.2362
    5MOL   C735 4583   4.712   0.571   3.254  0.4633  0.3209  0.1574
    5MOL   C736 4584   4.836   0.659   3.273 -0.2076  0.0885  0.1063
    5MOL   C737 4585   4.798   0.805   3.292  0.5991 -0.3878  0.7127
    5MOL   C738 4586   4.772   0.898   3.168  0.3000  0.0215  0.2092
    5MOL   C739 4587   4.896   0.935   3.085 -0.6456 -0.0113  0.2093
    5MOL   C740 4588   4.863   1.009   2.944 -0.1061 -0.2449  0.3051
    5MOL   C741 4589   4.839   1.162   2.958  0.1952  0.0920 -0.3882
    5MOL   C742 4590   4.974   1.239   2.967  0.0610  0.4571 -0.0219
    5MOL   O743 4591   5.040   1.249   2.867  0.2726 -0.5869  0.5104
    5MOL   H744 4592   5.316   0.546   3.517 -0.7494  1.8131  1.5428
    5MOL   H745 4593   5.030   0.492   3.569 -0.8505 -0.3242  1.3953
    5MOL   H746 4594   5.164   0.525   3.674 -1.9911 -2.5664  1.2882
    5MOL   H747 4595   5.353   0.311   3.693  1.5401 -0.7984 -1.1326
    5MOL   H748 4596   5.380   0.059   3.669 -1.6530 -0.6622  2.0603
    5MOL   H749 4597   5.194   7.710   3.609  1.6803  0.9899  3.3843
    5MOL   H750 4598   4.976   0.015   3.538 -0.6914  0.0579  1.6181
    5MOL   H751 4599   4.880   0.344   3.640 -0.0712  0.4330  0.0282
    5MOL   H752 4600   4.825   0.198   3.558 -0.6057  1.1942  0.5336
    5MOL   H753 4601   4.952   0.394   3.375 -1.5635  1.1318 -0.5277
    5MOL   H754 4602   4.666   0.377   3.179  1.9747  0.1164 -0.9742
    5MOL   H755 4603   4.846   0.408   3.190  1.1157 -1.8804  0.4268
    5MOL   H756 4604   4.640   0.582   3.335 -1.4769 -2.6454 -1.0885
    5MOL   H757 4605   4.663   0.604   3.163  0.7584  0.8749  0.1964
    5MOL   H758 4606   4.888   0.626   3.363 -0.6593  0.8547  0.6526
    5MOL   H759 4607   4.901   0.647   3.186 -0.7826  0.9397 -0.4444
    5MOL   H760 4608   4.714   0.816   3.361  0.5099  1.4228  0.3335
    5MOL   H761 4609   4.878   0.850   3.350 -0.6175 -0.2011  2.2716
    5MOL   H762 4610   4.699   0.846   3.107 -1.3170  1.8239  0.5582
    5MOL   H763 4611   4.724   0.990   3.202  2.4706  1.5803 -0.8433
    5MOL   H764 4612   4.962   0.849   3.072  2.3689  2.2829 -0.3681
    5MOL   H765 4613   4.956   1.002   3.146 -1.7080 -0.5002  1.8085
    5MOL   H766 4614   4.943   0.976   2.879 -1.6930 -1.3053 -1.1496
    5MOL   H767 4615   4.771   0.961   2.909 -0.4286 -0.1952  1.0528
    5MOL   H768 4616   4.796   1.194   2.863  3.2246  3.2467 -0.8195
    5MOL   H769 4617   4.775   1.196   3.040  1.2865 -0.0860  0.5528
    5MOL   N770 4618   5.010   1.301   3.077 -1.0882  0.1028  0.0742
    5MOL   C771 4619   5.140   1.365   3.098  0.3365 -0.3257 -0.2759
    5MOL   C772 4620   5.185   1.387   3.237  0.0790  0.3504 -0.7871
    5MOL   C773 4621   5.225   1.519   3.278  0.4160 -0.4555  0.3429
    5MOL   C774 4622   5.313   1.533   3.392  0.0458  0.4430 -0.4192
    5MOL   C775 4623   5.342   1.427   3.480  0.2155  1.1428 -0.0242
    5MOL   C776 4624   5.286   1.298   3.456  0.1919  1.0640  0.6108
    5MOL   C777 4625   5.215   1.279   3.332  0.2957  0.5735 -0.3389
    5MOL   C778 4626   5.173   1.135   3.305 -0.3290  0.1862 -0.2766
    5MOL   N779 4627   5.073   1.088   3.400 -0.1015 -0.1326 -0.3597
    5MOL   C780 4628   5.084   0.985   3.485 -1.2047 -0.2521  0.8497
    5MOL   O781 4629   5.186   0.909   3.485  0.0201 -0.2508  0.2503
    5MOL   C782 4630   4.973   0.954   3.584 -0.6732  0.2073 -0.4096
    5MOL   C783 4631   4.971   0.801   3.622  0.1772 -0.4272  0.3213
    5MOL   C784 4632   4.827   0.757   3.673 -0.0727  0.3635 -0.2756
    5MOL   C785 4633   4.813   0.614   3.714  0.2360  0.5848 -0.1330
    5MOL   C786 4634   4.684   0.590   3.782  0.6678 -0.4794  0.0614
    5MOL   C787 4635   4.688   0.465   3.868 -0.0256 -0.3458  0.2309
    5MOL   C788 4636   4.559   0.427   3.940 -0.1172  1.1400  0.1454
    5MOL   C789 4637   4.457   0.363   3.847 -0.9705  0.1011 -0.5266
    5MOL   C790 4638   4.332   0.312   3.917  0.0526  0.8100 -0.0014
    5MOL   O791 4639   4.343   0.271   4.035  0.3187  0.7370  0.1094
    5MOL   H792 4640   4.955   1.288   3.161 -1.1189  1.7187  0.3236
    5MOL   H793 4641   5.218   1.316   3.040  0.7501  0.0679 -0.0545
    5MOL   H794 4642   5.138   1.464   3.051  0.3842  0.1279  0.6706
    5MOL   H795 4643   5.195   1.609   3.228  1.8631 -1.2130 -1.9683
    5MOL   H796 4644   5.351   1.633   3.410  0.6502  0.7320 -3.1581
    5MOL   H797 4645   5.404   1.442   3.567 -0.9957 -0.6301  1.1571
    5MOL   H798 4646   5.318   1.218   3.522 -0.2186  1.0521  0.7959
    5MOL   H799 4647   5.254   1.063   3.302 -3.1253 -3.0648 -1.8092
    5MOL   H800 4648   5.128   1.134   3.205 -0.9618 -2.2302  0.0085
    5MOL   H801 4649   5.001   1.159   3.415  0.8000  0.5688  0.7277
    5MOL   H802 4650   4.876   0.975   3.540 -0.9848  0.6850  0.4856
    5MOL   H803 4651   4.981   1.019   3.671 -2.5140  0.3962 -0.3673
    5MOL   H804 4652   5.053   0.783   3.692  0.4129  3.3454  1.1281
    5MOL   H805 4653   5.010   0.751   3.533  2.0326  1.5458 -0.0143
    5MOL   H806 4654   4.749   0.782   3.602 -1.5733 -0.6637  0.9732
    5MOL   H807 4655   4.788   0.811   3.760 -0.7466  1.8988 -1.5017
    5MOL   H808 4656   4.820   0.555   3.622  1.6458 -0.7818  0.8179
    5MOL   H809 4657   4.893   0.589   3.784  0.6113 -0.7548 -1.0151
    5MOL   H810 4658   4.653   0.674   3.844 -1.3609 -1.6378  0.6745
    5MOL   H811 4659   4.616   0.580   3.698  2.3820 -0.0512 -1.4137
    5MOL   H812 4660   4.762   0.485   3.945  2.8000 -0.7631 -2.2671
    5MOL   H813 4661   4.737   0.389   3.806 -0.4778 -0.8486  0.4887
    5MOL   H814 4662   4.503   0.510   3.983  0.5062  1.5240  0.2175
    5MOL   H815 4663   4.588   0.357   4.018 -1.4200  1.4456  0.9133
    5MOL   H816 4664   4.500   0.276   3.797  0.9637 -0.1746  1.5471
    5MOL   H817 4665   4.414   0.437   3.779 -3.9634 -2.4331 -1.5489
    5MOL   N818 4666   4.222   0.322   3.844  0.4487 -0.3063  0.5266
    5MOL   C819 4667   4.092   0.295   3.902  0.3687  0.3887  0.4849
    5MOL   C820 4668   4.026   0.168   3.848 -0.3980 -0.1186  0.1996
    5MOL   C821 4669   4.100   0.052   3.813 -0.5896 -0.1681  0.0923
    5MOL   C822 4670   4.048   7.735   3.740 -0.4029 -0.3755 -0.1786
    5MOL   C823 4671   3.914   7.746   3.696 -0.4534  0.0813 -0.0878
    5MOL   C824 4672   3.834   0.065   3.739 -0.9335  0.2032 -0.1170
    5MOL   C825 4673   3.888   0.168   3.822  0.6900  0.2145  0.0218
    5MOL   C826 4674   3.795   0.278   3.886 -0.0860  0.6084 -0.4567
    5MOL   N827 4675   3.757   0.382   3.789 -0.3739 -0.2774  0.1898
    5MOL   C828 4676   3.678   0.488   3.809 -0.0580 -0.3904 -0.1412
    5MOL   O829 4677   3.627   0.494   3.923  0.0477 -0.4493 -0.0296
    5MOL   C830 4678   3.659   0.589   3.698  0.5312 -0.4514 -0.4623
    5MOL   C831 4679   3.617   0.722   3.752  0.3732  0.2783  0.4568
    5MOL   C832 4680   3.478   0.742   3.807 -0.5298  0.5940 -0.3938
    5MOL   C833 4681   3.454   0.891   3.831 -0.1733 -0.3377 -0.1070
    5MOL   C834 4682   3.313   0.944   3.856  0.3831  0.6071 -0.6160
    5MOL   C835 4683   3.288   1.094   3.881  0.2991 -0.0016 -0.0200
    5MOL   C836 4684   3.132   1.112   3.898  0.0146 -0.1164 -0.5076
    5MOL   C837 4685   3.075   1.259   3.890  0.2874  0.5387 -0.8514
    5MOL   C838 4686   3.042   1.313   3.756  0.6541  0.1905  0.5595
    5MOL   O839 4687   3.059   1.252   3.647  0.3988 -0.0301  0.3451
    5MOL   H840 4688   4.225   0.361   3.751  3.0979 -1.2230  0.1803
    5MOL   H841 4689   4.094   0.280   4.010  0.8160 -0.5738  0.3416
    5MOL   H842 4690   4.030   0.382   3.878 -0.2588 -0.2925 -0.4059
    5MOL   H843 4691   4.205   0.051   3.838  0.1333  0.0709 -2.7696
    5MOL   H844 4692   4.107   7.648   3.718 -0.1514 -0.1791 -0.2783
    5MOL   H845 4693   3.871   7.664   3.640 -0.9900  1.0656 -1.1281
    5MOL   H846 4694   3.733   0.077   3.705 -1.3208 -1.5572  0.3988
    5MOL   H847 4695   3.824   0.315   3.984  1.0456  2.5528 -1.5086
    5MOL   H848 4696   3.704   0.225   3.913  0.9988  0.0743  2.2405
    5MOL   H849 4697   3.775   0.360   3.692  1.5177  1.1990  0.1650
    5MOL   H850 4698   3.594   0.557   3.616  0.2122  1.1812 -0.8546
    5MOL   H851 4699   3.759   0.601   3.656  0.3494 -1.0842 -1.0870
    5MOL   H852 4700   3.635   0.791   3.669  2.7992 -3.7843 -2.6247
    5MOL   H853 4701   3.679   0.742   3.839  0.4849 -0.3265  0.5173
    5MOL   H854 4702   3.463   0.690   3.902 -0.0348 -1.7144 -1.5433
    5MOL   H855 4703   3.404   0.712   3.733  0.8967 -0.6048 -1.3656
    5MOL   H856 4704   3.515   0.934   3.911 -1.9114  2.1309 -0.0291
    5MOL   H857 4705   3.479   0.942   3.738  0.6995  1.9861  1.3656
    5MOL   H858 4706   3.256   0.918   3.767 -0.3736  1.3043 -0.3380
    5MOL   H859 4707   3.279   0.884   3.941 -0.7645  0.8366 -0.9036
    5MOL   H860 4708   3.319   1.157   3.797 -0.0131  0.1963  0.0113
    5MOL   H861 4709   3.340   1.117   3.974  2.2122 -2.0137 -0.5697
    5MOL   H862 4710   3.110   1.078   3.999  0.9570  0.9396  0.0574
    5MOL   H863 4711   3.081   1.041   3.832  0.1466 -0.7770  0.0888
    5MOL   H864 4712   2.985   1.277   3.949 -0.9529  0.4063 -2.6809
    5MOL   H865 4713   3.151   1.318   3.941 -0.8244 -0.2594  1.7935
    5MOL   N866 4714   2.986   1.442   3.756 -0.5274 -0.6320  0.3891
    5MOL   C867 4715   2.902   1.493   3.661  0.0522 -0.3224 -0.7373
    5MOL   C868 4716   2.858   1.635   3.697  0.5680  0.1007 -0.1340
    5MOL   C869 4717   2.859   1.736   3.593  0.7912  0.4332  0.5096
    5MOL   C870 4718   2.810   1.864   3.613 -0.0163  0.0931  1.0404
    5MOL   C871 4719   2.754   1.900   3.737 -0.1728 -0.4002  0.1046
    5MOL   C872 4720   2.743   1.805   3.840 -0.4028 -0.5373 -0.3250
    5MOL   C873 4721   2.797   1.676   3.819 -0.2363 -0.2942 -0.2636
    5MOL   C874 4722   2.787   1.576   3.937  0.2083 -0.4374 -0.1037
    5MOL   N875 4723   2.877   1.605   4.055 -0.1799  0.0789 -0.6937
    5MOL   C876 4724   3.010   1.611   4.048  0.0802  0.0219 -0.0777
    5MOL   O877 4725   3.075   1.591   3.941  0.0703  0.2561 -0.5124
    5MOL   C878 4726   3.085   1.626   4.178 -0.0028  0.3914  0.1816
    5MOL   C879 4727   3.118   1.766   4.215 -0.0098 -0.2743 -0.3635
    5MOL   C880 4728   3.002   1.849   4.270 -0.0956  0.2278  0.5090
    5MOL   C881 4729   3.032   1.997   4.290  0.7171 -0.4810 -0.1369
    5MOL   C882 4730   2.915   2.083   4.326 -0.2799 -0.4221  0.2436
    5MOL   C883 4731   2.815   2.031   4.427  0.5451 -0.1836  0.0518
    5MOL   C884 4732   2.708   2.136   4.462 -0.3561 -0.3305 -0.2783
    5MOL   C885 4733   2.622   2.104   4.590  0.3786  0.2223 -0.1287
    5MOL   C886 4734   2.517   2.202   4.633  0.0878  0.5619 -0.0683
    5MOL   O887 4735   2.559   2.307   4.687  0.4014  0.4804  0.1154
    5MOL   H888 4736   3.021   1.499   3.832 -0.1134  0.1930 -0.4236
    5MOL   H889 4737   2.949   1.497   3.563 -1.9848  2.0129 -1.6796
    5MOL   H890 4738   2.819   1.426   3.638  1.8464 -2.7039 -0.3872
    5MOL   H891 4739   2.895   1.710   3.495 -0.5346  1.4455 -0.2649
    5MOL   H892 4740   2.813   1.933   3.530  1.4043 -0.4593  0.6061
    5MOL   H893 4741   2.712   1.999   3.742  2.4656  0.7223  0.8807
    5MOL   H894 4742   2.710   1.823   3.941  4.0176 -0.4529  1.2501
    5MOL   H895 4743   2.814   1.473   3.911  0.4395 -0.5121  0.4214
    5MOL   H896 4744   2.680   1.580   3.958 -0.0395 -1.3136 -1.1702
    5MOL   H897 4745   2.841   1.603   4.150  2.0501 -1.7696  0.1949
    5MOL   H898 4746   3.180   1.573   4.172 -0.4184 -0.3901  0.3949
    5MOL   H899 4747   3.042   1.564   4.257  1.2125 -1.3843 -0.5019
    5MOL   H900 4748   3.164   1.819   4.132  0.8794 -1.2071 -0.4749
    5MOL   H901 4749   3.192   1.753   4.294  1.2291  0.0129 -1.4536
    5MOL   H902 4750   2.917   1.848   4.201  1.2577  1.2867 -1.2264
    5MOL   H903 4751   2.966   1.810   4.365  0.9261 -1.0245  0.4008
    5MOL   H904 4752   3.096   2.004   4.378  0.7825  2.2743 -0.3587
    5MOL   H905 4753   3.064   2.038   4.194 -0.8611  2.7072  0.6268
    5MOL   H906 4754   2.952   2.177   4.367 -0.5720 -0.1052 -0.2133
    5MOL   H907 4755   2.866   2.109   4.232  0.0190 -0.0082  0.1978
    5MOL   H908 4756   2.865   1.988   4.513  0.4955 -1.8081 -0.7219
    5MOL   H909 4757   2.760   1.952   4.378  0.0787 -0.2278  0.6448
    5MOL   H910 4758   2.761   2.230   4.479  1.4885 -1.7814  2.4442
    5MOL   H911 4759   2.644   2.154   4.376  0.5913  1.2010 -0.6854
    5MOL   H912 4760   2.573   2.007   4.584 -0.6884  0.7735 -0.6780
    5MOL   H913 4761   2.679   2.090   4.682  1.2197  2.7038 -0.2289
    5MOL   N914 4762   2.392   2.193   4.581 -0.0283  0.1350 -0.2916
    5MOL   C915 4763   2.286   2.296   4.568 -0.7661  0.2313  0.1239
    5MOL   C916 4764   2.255   2.354   4.425 -0.2540  0.0765  0.2121
    5MOL   C917 4765   2.315   2.298   4.308  0.5092 -0.0514  0.7486
    5MOL   C918 4766   2.287   2.331   4.177 -0.4410 -0.2429  0.3098
    5MOL   C919 4767   2.195   2.438   4.157 -0.3580 -0.2207  0.0301
    5MOL   C920 4768   2.128   2.497   4.266  0.1536 -0.5709 -0.0425
    5MOL   C921 4769   2.153   2.449   4.400  0.1258 -0.7035  0.1906
    5MOL   C922 4770   2.083   2.512   4.516 -0.0261  0.1836 -1.2791
    5MOL   N923 4771   1.971   2.593   4.472  0.7511 -0.3376 -0.1106
    5MOL   C924 4772   1.847   2.556   4.427 -0.3451 -0.3509 -1.2128
    5MOL   O925 4773   1.826   2.440   4.394  0.2590  0.0493  0.1254
    5MOL   C926 4774   1.736   2.666   4.426  0.0093 -0.2615 -0.4371
    5MOL   C927 4775   1.634   2.669   4.318 -0.3753  0.6769 -0.1696
    5MOL   C928 4776   1.525   2.769   4.337  0.3806 -0.4039 -0.7700
    5MOL   C929 4777   1.421   2.770   4.221  1.0853  0.4207 -0.3833
    5MOL   C930 4778   1.301   2.862   4.248 -0.2644 -0.0129 -0.1349
    5MOL   C931 4779   1.186   2.800   4.327  0.2914  0.4036 -0.7294
    5MOL   C932 4780   1.096   2.914   4.392 -0.0520 -0.0770 -0.6999
    5MOL   C933 4781   0.947   2.890   4.435  0.1466 -0.4230 -0.0696
    5MOL   C934 4782   0.861   3.018   4.465  0.1081  0.0377  0.0755
    5MOL   O935 4783   0.916   3.128   4.469  0.5052 -0.4275  0.3540
    5MOL   H936 4784   2.367   2.117   4.520  2.7542  0.1574 -1.5390
    5MOL   H937 4785   2.195   2.258   4.614  0.3120 -0.9322  1.3592
    5MOL   H938 4786   2.314   2.385   4.625 -0.4107 -0.6582  1.3688
    5MOL   H939 4787   2.400   2.233   4.325  0.0450 -0.7830  0.3200
    5MOL   H940 4788   2.332   2.278   4.095  0.8408  1.5801 -0.1831
    5MOL   H941 4789   2.172   2.472   4.057 -0.1038  1.5255  0.5439
    5MOL   H942 4790   2.057   2.576   4.248  1.4259 -0.0483 -3.2114
    5MOL   H943 4791   2.145   2.571   4.583 -1.9377 -0.5644  1.2250
    5MOL   H944 4792   2.044   2.426   4.570 -0.5836  0.6091 -0.9886
    5MOL   H945 4793   1.978   2.691   4.495 -0.7491 -0.3389  0.4661
    5MOL   H946 4794   1.776   2.766   4.437 -2.3972  0.4431  2.4837
    5MOL   H947 4795   1.677   2.640   4.514 -0.1368  2.1893  0.2112
    5MOL   H948 4796   1.573   2.579   4.309 -2.5322  2.1261 -0.4011
    5MOL   H949 4797   1.676   2.695   4.221  0.0846  1.8866  0.3523
    5MOL   H950 4798   1.471   2.748   4.430 -2.1046  1.0771 -1.8062
    5MOL   H951 4799   1.560   2.871   4.354  0.3229 -0.6635  1.0000
    5MOL   H952 4800   1.461   2.801   4.125 -1.0080 -3.0774 -2.4840
    5MOL   H953 4801   1.402   2.667   4.190  1.4872  0.3442 -0.3838
    5MOL   H954 4802   1.262   2.897   4.152 -1.8716  2.8822  1.4943
    5MOL   H955 4803   1.341   2.957   4.282 -0.1696  1.0212 -2.9779
    5MOL   H956 4804   1.122   2.739   4.263 -2.2520  0.0828  2.0500
    5MOL   H957 4805   1.227   2.740   4.408 -0.4763 -0.4922 -0.9920
    5MOL   H958 4806   1.106   2.989   4.314 -2.3795 -0.0740 -1.0453
    5MOL   H959 4807   1.138   2.951   4.485  1.4356  1.6427 -2.0232
    5MOL   H960 4808   0.945   2.839   4.531  0.6955  1.1932  0.8262
    5MOL   H961 4809   0.891   2.822   4.371 -0.6946 -1.2697  1.5182
    5MOL   H962 4810   0.753   3.006   4.472  0.0240  0.0390 -1.1863
    6MOL     N1 4811   0.508   7.589   3.053  0.8468 -0.1979 -0.0461
    6MOL     C2 4812   0.587   7.702   3.013  0.3155  0.3438  0.1937
    6MOL     C3 4813   0.524   0.009   2.913  0.4313  0.0937  0.8960
    6MOL     C4 4814   0.415   7.760   2.836  0.2357 -0.3509  0.0308
    6MOL     C5 4815   0.344   0.055   2.744 -0.7701  0.5274 -0.1039
    6MOL     C6 4816   0.383   0.187   2.741 -0.1014  0.6731 -0.3637
    6MOL     C7 4817   0.496   0.229   2.811 -0.0670 -0.5904 -0.0734
    6MOL     C8 4818   0.559   0.144   2.898  0.2808 -0.4374  0.6238
    6MOL     C9 4819   0.668   0.198   2.989 -0.3083  0.1670 -0.0136
    6MOL    N10 4820   0.716   0.339   2.979  0.1672  0.0174  0.3942
    6MOL    C11 4821   0.802   0.366   2.882  0.4176  0.0889 -0.1301
    6MOL    O12 4822   0.849   0.278   2.807 -0.6592  0.7879  0.0670
    6MOL    C13 4823   0.845   0.511   2.878 -0.1622 -0.2808  0.4569
    6MOL    C14 4824   0.969   0.540   2.783  0.0112  0.5073  0.1443
    6MOL    C15 4825   1.037   0.670   2.830  0.3126  0.5057  0.0788
    6MOL    C16 4826   1.122   0.656   2.955 -0.2348  0.2741 -0.3545
    6MOL    C17 4827   1.200   0.782   2.991  0.0602  0.4095 -0.0433
    6MOL    C18 4828   1.278   0.854   2.878  0.6754  0.1942  0.3122
    6MOL    C19 4829   1.343   0.978   2.938 -0.2459 -0.8462 -0.4005
    6MOL    C20 4830   1.468   0.950   3.018  0.0740 -0.5766 -0.1186
    6MOL    C21 4831   1.521   1.073   3.095 -0.0387  0.0659 -1.0419
    6MOL    O22 4832   1.535   1.176   3.031 -0.4566  0.1999 -0.6332
    6MOL    H23 4833   0.558   7.508   3.020 -1.4399 -1.6569 -0.0588
    6MOL    H24 4834   0.595   7.754   3.109  0.1477 -0.2764  0.5433
    6MOL    H25 4835   0.692   7.677   2.998 -0.0581 -0.6452 -0.8536
    6MOL    H26 4836   0.375   7.660   2.846 -2.1452  0.5699 -0.0096
    6MOL    H27 4837   0.272   0.017   2.673  0.1337 -0.3187 -0.5699
    6MOL    H28 4838   0.336   0.248   2.666 -0.2961  0.0907 -0.7136
    6MOL    H29 4839   0.528   0.330   2.787  1.2325 -1.4993 -2.3152
    6MOL    H30 4840   0.753   0.135   2.965 -1.1550 -1.4604  1.2029
    6MOL    H31 4841   0.642   0.188   3.094  1.5633 -0.8323  0.3678
    6MOL    H32 4842   0.684   0.410   3.043 -0.5966 -0.3762  0.4543
    6MOL    H33 4843   0.860   0.547   2.979 -0.9100  1.4833 -0.0491
    6MOL    H34 4844   0.759   0.567   2.843  0.2313  0.8850  1.3423
    6MOL    H35 4845   0.942   0.558   2.679 -1.8444  2.3578  0.9220
    6MOL    H36 4846   1.037   0.455   2.786  2.3908  2.1165 -3.9491
    6MOL    H37 4847   1.090   0.721   2.750 -0.8527  0.2049 -0.8935
    6MOL    H38 4848   0.963   0.746   2.856 -0.4495 -0.1948 -0.0365
    6MOL    H39 4849   1.069   0.617   3.043  1.0490 -0.4877  0.0985
    6MOL    H40 4850   1.189   0.573   2.933 -2.6105 -2.0571  0.8497
    6MOL    H41 4851   1.133   0.856   3.036 -0.1808  0.0301  0.2238
    6MOL    H42 4852   1.271   0.751   3.068 -0.6680  0.5152  0.6746
    6MOL    H43 4853   1.199   0.886   2.811  1.2423  1.9252  0.4629
    6MOL    H44 4854   1.334   0.793   2.806 -0.8088 -0.1255 -0.5846
    6MOL    H45 4855   1.357   1.053   2.860  0.5654 -0.0241  0.5128
    6MOL    H46 4856   1.272   1.024   3.008  0.5914  1.4283 -1.0036
    6MOL    H47 4857   1.560   0.935   2.962 -0.2325 -1.4526 -0.4101
    6MOL    H48 4858   1.462   0.862   3.083 -3.1733 -0.3705 -0.0353
    6MOL    H49 4859   0.433   7.596   2.986  0.7230 -1.5848 -0.0728
    6MOL    N50 4860   1.530   1.063   3.227 -0.0340 -0.6179  0.2820
    6MOL    C51 4861   1.574   1.169   3.319 -0.4619 -0.3812 -0.0186
    6MOL    C52 4862   1.474   1.214   3.428  0.1819  0.2787  0.7453
    6MOL    C53 4863   1.339   1.226   3.395  0.0896 -0.4729  0.8056
    6MOL    C54 4864   1.246   1.288   3.483 -0.5228 -0.4431 -0.2841
    6MOL    C55 4865   1.293   1.325   3.611 -0.2099  0.0889 -0.6811
    6MOL    C56 4866   1.424   1.301   3.653 -0.0455 -0.6768 -0.4829
    6MOL    C57 4867   1.521   1.255   3.558  0.6428  0.2104  0.6184
    6MOL    C58 4868   1.667   1.240   3.602 -0.1209  0.4173  0.0539
    6MOL    N59 4869   1.738   1.350   3.548 -0.0074  0.0642 -0.0061
    6MOL    C60 4870   1.861   1.335   3.491  0.4720  0.3036  0.4711
    6MOL    O61 4871   1.920   1.230   3.482  0.3183 -0.2286  0.2247
    6MOL    C62 4872   1.923   1.465   3.422  0.0029 -0.1067  0.0714
    6MOL    C63 4873   2.057   1.512   3.487  0.7937  0.2958 -0.0862
    6MOL    C64 4874   2.061   1.545   3.644 -0.3328 -0.4433  0.2191
    6MOL    C65 4875   1.950   1.644   3.685 -0.1292  0.0258 -1.0285
    6MOL    C66 4876   1.952   1.787   3.620 -0.1030  0.0584  0.4317
    6MOL    C67 4877   1.853   1.890   3.670 -0.2671 -0.4287  0.1403
    6MOL    C68 4878   1.831   2.018   3.585 -0.0894 -0.8171 -0.1429
    6MOL    C69 4879   1.750   2.125   3.659  0.4087  0.0492  0.1094
    6MOL    C70 4880   1.712   2.243   3.572 -0.0951 -0.1330  1.2118
    6MOL    O71 4881   1.707   2.239   3.448 -0.6438  0.1816 -0.1132
    6MOL    H72 4882   1.474   0.990   3.268  0.8641 -1.6773 -0.3652
    6MOL    H73 4883   1.613   1.258   3.270 -0.3234 -0.1290  0.5416
    6MOL    H74 4884   1.651   1.117   3.376  0.3571 -0.5196 -1.2408
    6MOL    H75 4885   1.309   1.191   3.297  0.3973  0.9477  0.1854
    6MOL    H76 4886   1.142   1.300   3.456 -0.2607 -0.2366 -1.2150
    6MOL    H77 4887   1.220   1.365   3.680 -0.0927  1.3192 -1.2468
    6MOL    H78 4888   1.462   1.324   3.751  1.8234 -1.4093 -1.0147
    6MOL    H79 4889   1.713   1.145   3.578  0.1045  0.1608  1.4453
    6MOL    H80 4890   1.670   1.248   3.711  3.9767 -3.9443  0.4122
    6MOL    H81 4891   1.695   1.440   3.564 -0.8842 -0.1957 -0.7876
    6MOL    H82 4892   1.863   1.556   3.429  0.5217  0.2905 -0.6237
    6MOL    H83 4893   1.936   1.448   3.315  0.8623  1.7511 -0.1355
    6MOL    H84 4894   2.091   1.604   3.438 -1.0284  0.2033 -1.5710
    6MOL    H85 4895   2.138   1.446   3.457  0.1188 -0.3199 -0.5502
    6MOL    H86 4896   2.031   1.461   3.707 -2.1912 -0.9243 -1.2502
    6MOL    H87 4897   2.156   1.583   3.680 -1.7662  1.9440  1.6688
    6MOL    H88 4898   1.854   1.595   3.667 -0.3560  0.4157 -0.8901
    6MOL    H89 4899   1.952   1.651   3.793 -1.8669  2.2884 -1.0905
    6MOL    H90 4900   2.053   1.829   3.617 -1.2228  2.7925 -1.2966
    6MOL    H91 4901   1.924   1.770   3.516 -1.1216  1.6966  0.4162
    6MOL    H92 4902   1.894   1.919   3.767  1.1948  0.4789 -0.7248
    6MOL    H93 4903   1.757   1.841   3.684 -0.3650  0.0700  1.3161
    6MOL    H94 4904   1.787   1.999   3.487 -0.6435 -1.0538  0.1498
    6MOL    H95 4905   1.927   2.061   3.559 -0.1707 -0.3107  0.3825
    6MOL    H96 4906   1.815   2.152   3.742  2.2152 -0.3995 -1.1352
    6MOL    H97 4907   1.661   2.079   3.701  0.3271 -0.8069 -0.9675
    6MOL    N98 4908   1.689   2.356   3.634 -0.0734 -0.1289  0.1164
    6MOL    C99 4909   1.668   2.484   3.558  0.7635  0.8386  0.5385
    6MOL   C100 4910   1.800   2.541   3.506  0.5029  0.1937  0.2185
    6MOL   C101 4911   1.913   2.560   3.595  0.2716  0.0100  0.2786
    6MOL   C102 4912   2.037   2.604   3.545  0.6429 -0.2023 -0.7480
    6MOL   C103 4913   2.059   2.633   3.404  0.0591  0.2521 -0.8160
    6MOL   C104 4914   1.947   2.613   3.318  0.2686 -0.0611  0.2861
    6MOL   C105 4915   1.826   2.565   3.368  0.0601 -0.0668 -0.8739
    6MOL   C106 4916   1.718   2.551   3.268  0.2479 -0.3768  0.4679
    6MOL   N107 4917   1.685   2.414   3.235  0.0080 -0.2949  0.2162
    6MOL   C108 4918   1.603   2.370   3.134  0.1487  0.4210 -0.2672
    6MOL   O109 4919   1.567   2.447   3.046 -0.7342  0.2172 -0.1628
    6MOL   C110 4920   1.574   2.221   3.122  0.8005  0.2758 -0.0093
    6MOL   C111 4921   1.478   2.188   3.006 -0.3014  0.1428 -0.2729
    6MOL   C112 4922   1.548   2.191   2.865 -0.2445  0.0077 -0.1104
    6MOL   C113 4923   1.464   2.123   2.758  0.6304 -0.3332 -0.5392
    6MOL   C114 4924   1.533   2.143   2.627 -0.0641 -0.2481 -0.3322
    6MOL   C115 4925   1.452   2.099   2.511  0.6349  0.2783  0.5171
    6MOL   C116 4926   1.524   2.110   2.381  0.2082  0.0769  0.0422
    6MOL   C117 4927   1.584   2.249   2.327 -0.2196  0.3627 -0.4104
    6MOL   C118 4928   1.475   2.352   2.320  0.5377  0.2907  0.3325
    6MOL   O119 4929   1.420   2.374   2.211 -0.4284 -0.1944 -0.1283
    6MOL   H120 4930   1.692   2.367   3.735 -2.0126 -0.0348  0.1725
    6MOL   H121 4931   1.598   2.464   3.477 -0.2391  0.5174  1.4631
    6MOL   H122 4932   1.623   2.563   3.617 -0.3526 -1.2087  2.5261
    6MOL   H123 4933   1.898   2.535   3.699 -1.6555  0.4805  0.1466
    6MOL   H124 4934   2.122   2.622   3.609 -0.2789  3.7183 -0.5035
    6MOL   H125 4935   2.156   2.661   3.368  1.2861  1.0661  2.8894
    6MOL   H126 4936   1.965   2.632   3.213  1.9833  1.0103  0.7539
    6MOL   H127 4937   1.744   2.606   3.177  2.1440 -2.5731 -0.3486
    6MOL   H128 4938   1.631   2.607   3.304  1.0242  1.5281 -0.5058
    6MOL   H129 4939   1.724   2.346   3.298 -0.7638  1.8223  3.1548
    6MOL   H130 4940   1.521   2.188   3.212 -0.6251 -0.5615 -1.1355
    6MOL   H131 4941   1.672   2.176   3.111  0.6061  0.7596 -4.3444
    6MOL   H132 4942   1.390   2.251   2.988  0.3681  0.8403 -1.1683
    6MOL   H133 4943   1.444   2.088   3.031  2.1581 -0.5068  0.5501
    6MOL   H134 4944   1.564   2.293   2.832  1.9000  0.0057  0.7976
    6MOL   H135 4945   1.645   2.140   2.869 -0.0318  0.3786 -0.4943
    6MOL   H136 4946   1.449   2.017   2.777  1.1924 -0.4070 -0.5068
    6MOL   H137 4947   1.366   2.170   2.760  0.3989 -0.8370  0.2542
    6MOL   H138 4948   1.583   2.238   2.609  0.8964 -0.8840 -1.0241
    6MOL   H139 4949   1.620   2.077   2.626 -0.6160 -0.9832 -0.4179
    6MOL   H140 4950   1.358   2.153   2.496  0.3913 -0.0005  1.0126
    6MOL   H141 4951   1.442   1.993   2.534  5.0666 -0.0874  1.0920
    6MOL   H142 4952   1.607   2.040   2.395  1.0138  0.5752 -2.0825
    6MOL   H143 4953   1.467   2.067   2.299 -0.5502  1.5421 -0.2165
    6MOL   H144 4954   1.612   2.233   2.223 -1.3615  1.5704 -0.9008
    6MOL   H145 4955   1.670   2.282   2.386  0.5567  3.2218 -3.0217
    6MOL   N146 4956   1.453   2.423   2.433 -0.1209  0.3489 -0.1503
    6MOL   C147 4957   1.357   2.532   2.442 -0.1532 -0.1673  0.5736
    6MOL   C148 4958   1.237   2.508   2.537 -0.2136 -0.3430 -0.6235
    6MOL   C149 4959   1.251   2.408   2.637 -0.2025 -0.2522 -0.0429
    6MOL   C150 4960   1.141   2.373   2.722  0.0461  0.1124 -0.5502
    6MOL   C151 4961   1.017   2.436   2.711 -0.2781 -0.1976  0.2360
    6MOL   C152 4962   1.001   2.535   2.609  0.0998  0.2069  0.6254
    6MOL   C153 4963   1.108   2.571   2.522  0.5321 -0.6927  0.0234
    6MOL   C154 4964   1.091   2.684   2.425  0.3243 -0.3521 -0.3404
    6MOL   N155 4965   1.066   2.647   2.292 -0.2005 -0.4223  0.0518
    6MOL   C156 4966   1.127   2.705   2.183 -0.0379 -1.0954  0.3420
    6MOL   O157 4967   1.181   2.812   2.192  0.2325 -0.3288  0.4972
    6MOL   C158 4968   1.119   2.632   2.049 -0.4214  0.1047  0.1537
    6MOL   C159 4969   1.025   2.699   1.952  0.0225 -0.3146 -0.4098
    6MOL   C160 4970   1.085   2.809   1.862  0.1167 -0.2214  0.2611
    6MOL   C161 4971   0.980   2.844   1.754  1.2856  0.3948 -0.0568
    6MOL   C162 4972   1.036   2.940   1.649  0.4991 -0.2897  0.6545
    6MOL   C163 4973   1.129   2.871   1.553 -0.7199 -0.2053  0.9339
    6MOL   C164 4974   1.188   2.962   1.444  0.1051  0.2894  0.3698
    6MOL   C165 4975   1.096   2.999   1.326  0.2275 -0.4414 -0.2115
    6MOL   C166 4976   1.162   3.100   1.229 -0.3141 -0.9800 -0.7046
    6MOL   O167 4977   1.152   3.225   1.251  1.0111 -0.7755 -0.4956
    6MOL   H168 4978   1.515   2.411   2.512 -0.4287  1.3143  0.2455
    6MOL   H169 4979   1.309   2.546   2.345 -1.6862  2.3303  1.6340
    6MOL   H170 4980   1.421   2.614   2.474 -2.5799  1.8430  0.4155
    6MOL   H171 4981   1.344   2.354   2.638 -0.8908 -1.5030 -1.1560
    6MOL   H172 4982   1.163   2.288   2.784  0.7276  0.3131 -0.5056
    6MOL   H173 4983   0.932   2.421   2.774  0.1506  0.7881  1.0662
    6MOL   H174 4984   0.911   2.594   2.605  0.1175  0.1037 -2.1697
    6MOL   H175 4985   1.173   2.755   2.436  0.8016 -1.0706  0.7748
    6MOL   H176 4986   1.001   2.737   2.456 -0.4251 -0.7690 -1.7279
    6MOL   H177 4987   1.058   2.547   2.289 -0.2825 -0.4010 -0.4081
    6MOL   H178 4988   1.074   2.532   2.058 -1.1448  0.2286 -1.8201
    6MOL   H179 4989   1.220   2.621   2.010 -0.5155  0.9409 -0.3303
    6MOL   H180 4990   0.931   2.719   2.002  1.0181 -0.2335  1.4604
    6MOL   H181 4991   1.001   2.614   1.887  0.3281  0.1425 -1.1223
    6MOL   H182 4992   1.130   2.890   1.919  0.9167 -0.5121  0.0477
    6MOL   H183 4993   1.169   2.757   1.816 -0.6557 -1.2921  0.0442
    6MOL   H184 4994   0.952   2.748   1.711 -0.0524  0.0289  1.5815
    6MOL   H185 4995   0.885   2.890   1.782  0.8738 -0.4506 -0.0469
    6MOL   H186 4996   0.952   2.996   1.608 -1.1916 -0.8681  3.2146
    6MOL   H187 4997   1.094   3.018   1.698 -1.0269  1.3967 -0.1846
    6MOL   H188 4998   1.091   2.782   1.501 -3.3557  1.8429 -0.8268
    6MOL   H189 4999   1.210   2.830   1.612 -0.1007 -1.1799 -0.5632
    6MOL   H190 5000   1.240   3.042   1.496 -1.0039  1.2277  0.0572
    6MOL   H191 5001   1.272   2.909   1.398 -0.3689  0.5062 -0.7600
    6MOL   H192 5002   1.006   3.053   1.356  1.3801  1.3381  0.1057
    6MOL   H193 5003   1.065   2.904   1.283 -1.6057  0.6422 -1.3327
    6MOL   N194 5004   1.223   3.048   1.126  0.2923  0.0301 -0.0148
    6MOL   C195 5005   1.296   3.125   1.022  0.1967 -0.4138 -0.2229
    6MOL   C196 5006   1.447   3.104   1.031 -0.3323 -0.2786 -0.3529
    6MOL   C197 5007   1.505   3.072   1.152  0.0152 -0.2385  0.1689
    6MOL   C198 5008   1.644   3.052   1.164  0.8243  0.1942 -0.7250
    6MOL   C199 5009   1.720   3.066   1.048 -1.0007 -0.4355 -0.6024
    6MOL   C200 5010   1.668   3.116   0.930 -0.4155 -0.2622  0.3514
    6MOL   C201 5011   1.531   3.127   0.916  0.4122 -0.5155 -0.1157
    6MOL   C202 5012   1.463   3.155   0.779  0.5846  0.4000  0.3414
    6MOL   N203 5013   1.402   3.029   0.734 -0.7213  0.1623 -0.0270
    6MOL   C204 5014   1.277   3.023   0.679 -0.3305 -1.0298 -0.1173
    6MOL   O205 5015   1.195   3.117   0.687  0.5057 -0.3031  0.0127
    6MOL   C206 5016   1.238   2.891   0.618 -0.6770  0.0194 -0.5724
    6MOL   C207 5017   1.193   2.884   0.471  0.0616  0.5843  0.2466
    6MOL   C208 5018   1.069   2.968   0.434 -0.0434  0.5506  0.3139
    6MOL   C209 5019   1.031   2.961   0.284 -0.0436 -0.0931  0.4526
    6MOL   C210 5020   0.897   3.021   0.254  0.0051  0.2347  0.2071
    6MOL   C211 5021   0.851   3.003   0.110  0.1135 -0.6329  0.9229
    6MOL   C212 5022   0.719   3.077   0.080 -0.0949  0.0797 -0.4591
    6MOL   C213 5023   0.591   3.006   0.130  1.1639 -0.1816 -0.3675
    6MOL   C214 5024   0.558   2.872   0.078  0.1357  0.1374  0.1521
    6MOL   O215 5025   0.551   2.776   0.155  0.0759 -0.0438  0.0537
    6MOL   H216 5026   1.237   2.948   1.119  0.5575  0.1776 -1.7318
    6MOL   H217 5027   1.253   3.092   0.927  0.9807  0.7382 -0.9838
    6MOL   H218 5028   1.266   3.229   1.008 -1.1472 -0.9590 -1.5694
    6MOL   H219 5029   1.433   3.060   1.232 -0.3995  1.0023 -0.0047
    6MOL   H220 5030   1.684   3.036   1.263  0.4079 -1.8620 -0.8789
    6MOL   H221 5031   1.828   3.054   1.051 -0.7969  0.4726 -3.0874
    6MOL   H222 5032   1.728   3.128   0.841 -0.8358  2.0431  0.3667
    6MOL   H223 5033   1.539   3.186   0.708  1.7771  0.3406  1.5746
    6MOL   H224 5034   1.390   3.236   0.786 -0.1688 -0.2488  0.0695
    6MOL   H225 5035   1.455   2.944   0.735 -0.9831 -0.0301 -1.1742
    6MOL   H226 5036   1.154   2.854   0.676  0.0127 -0.0636  0.3841
    6MOL   H227 5037   1.315   2.814   0.627  0.2936  1.2125  1.4290
    6MOL   H228 5038   1.274   2.919   0.407  0.1499 -1.4933 -0.8466
    6MOL   H229 5039   1.190   2.778   0.443  1.5131  0.1264  1.7202
    6MOL   H230 5040   0.985   2.926   0.488  1.1533  0.6568  2.2824
    6MOL   H231 5041   1.072   3.071   0.469  1.2612  0.8203 -0.5264
    6MOL   H232 5042   1.107   3.005   0.220  0.6636 -1.6185  0.2356
    6MOL   H233 5043   1.031   2.859   0.245 -0.7766  0.9492 -2.3458
    6MOL   H234 5044   0.818   2.985   0.319 -0.2964  0.7873  0.1466
    6MOL   H235 5045   0.896   3.123   0.293  2.5132 -0.3772  2.0449
    6MOL   H236 5046   0.839   2.899   0.080  1.0890 -0.4309 -0.2006
    6MOL   H237 5047   0.915   3.046   0.033 -0.6403  0.5947  0.9697
    6MOL   H238 5048   0.708   3.092   7.762 -1.3072 -3.5150 -0.9052
    6MOL   H239 5049   0.718   3.177   0.124 -0.6928  0.5939 -1.6059
    6MOL   H240 5050   0.594   3.003   0.239  2.0342 -2.8214 -0.4414
    6MOL   H241 5051   0.510   3.076   0.110  1.2033  0.0482  0.2743
    6MOL   N242 5052   0.563   2.855   7.731  0.4747  0.0425 -0.6394
    6MOL   C243 5053   0.554   2.724   7.663 -0.3032  0.0694  0.1879
    6MOL   C244 5054   0.418   2.698   7.610  0.3584 -0.3484 -0.1180
    6MOL   C245 5055   0.331   2.809   7.576 -0.0405 -0.2686  1.3426
    6MOL   C246 5056   0.195   2.781   7.538  0.2905 -0.3135  0.0171
    6MOL   C247 5057   0.147   2.652   7.515 -0.0933 -0.0687 -0.2068
    6MOL   C248 5058   0.233   2.541   7.548  0.4435 -0.0786 -0.3756
    6MOL   C249 5059   0.368   2.565   7.590  0.5137  0.0672 -0.5358
    6MOL   C250 5060   0.458   2.452   7.623  1.0200  0.2261 -0.4275
    6MOL   N251 5061   0.416   2.322   7.584  0.2490 -0.0693  0.0575
    6MOL   C252 5062   0.366   2.230   7.661  0.3379 -0.3729 -0.1134
    6MOL   O253 5063   0.350   2.237   7.779 -0.1094  0.1974 -0.1567
    6MOL   C254 5064   0.328   2.100   7.595 -0.2634  0.6075  1.1163
    6MOL   C255 5065   0.169   2.080   7.604 -0.1690  0.0768 -0.7952
    6MOL   C256 5066   0.132   1.934   7.589 -0.0691  0.7462  0.1936
    6MOL   C257 5067   0.178   1.875   7.454 -0.1639 -0.0440 -0.4565
    6MOL   C258 5068   0.129   1.737   7.421  0.1805 -0.3765  0.3513
    6MOL   C259 5069   0.164   1.643   7.531 -0.7833  0.1306  0.1599
    6MOL   C260 5070   0.142   1.504   7.489  0.4766 -0.2141  0.1438
    6MOL   C261 5071   0.199   1.389   7.589  0.5310 -0.0903 -0.7968
    6MOL   C262 5072   0.105   1.357   7.702 -0.1313  0.2240  0.0660
    6MOL   O263 5073   7.788   1.424   7.719 -0.0333 -0.1987  0.6184
    6MOL   H264 5074   0.576   2.934   7.670 -0.1398  0.8831  0.3133
    6MOL   H265 5075   0.625   2.714   7.582 -1.3628 -2.1813 -0.4928
    6MOL   H266 5076   0.592   2.654   7.737  0.9690  1.9251  1.3556
    6MOL   H267 5077   0.360   2.911   7.594 -3.9879  1.1234  0.3051
    6MOL   H268 5078   0.117   2.856   7.531 -0.0230 -0.5063  1.2206
    6MOL   H269 5079   0.044   2.629   7.491 -0.5768  1.6643  0.1757
    6MOL   H270 5080   0.202   2.438   7.538 -1.6981  0.6436 -1.5265
    6MOL   H271 5081   0.472   2.447   7.731  0.3404 -0.4754 -0.3715
    6MOL   H272 5082   0.551   2.487   7.578  1.7957 -0.7498  0.3831
    6MOL   H273 5083   0.420   2.298   7.486 -2.4540  1.2072 -0.4086
    6MOL   H274 5084   0.391   2.025   7.644  1.0382  0.3203 -0.9438
    6MOL   H275 5085   0.347   2.095   7.488 -1.8067  0.8110  0.8152
    6MOL   H276 5086   0.136   2.136   7.516 -1.3453 -0.1182 -0.4945
    6MOL   H277 5087   0.123   2.118   7.696 -1.3402 -1.0641 -0.9003
    6MOL   H278 5088   0.023   1.933   7.588 -0.0796 -2.3384  0.5366
    6MOL   H279 5089   0.155   1.876   7.679 -0.4461  1.0386  0.4815
    6MOL   H280 5090   0.153   1.952   7.381 -1.7657  0.1428  0.2645
    6MOL   H281 5091   0.287   1.873   7.460 -0.2154 -0.2271  0.4871
    6MOL   H282 5092   0.021   1.725   7.409  0.5143 -2.3316 -1.0004
    6MOL   H283 5093   0.178   1.708   7.328 -0.3150 -3.0349  0.8757
    6MOL   H284 5094   0.109   1.663   7.624  0.0087  1.1420  0.4215
    6MOL   H285 5095   0.269   1.644   7.562 -0.4997 -0.0495 -0.7781
    6MOL   H286 5096   0.036   1.487   7.473  0.1911 -0.4524  2.1481
    6MOL   H287 5097   0.189   1.484   7.392 -0.0327 -1.5392  0.1642
    6MOL   H288 5098   0.208   1.298   7.530 -1.5878 -1.0203  0.2331
    6MOL   H289 5099   0.298   1.414   7.625  1.4556 -2.3341 -1.6821
    6MOL   N290 5100   0.143   1.262   7.787  0.3892  0.0140  0.2292
    6MOL   C291 5101   0.080   1.223   0.121  0.1951 -0.4974  0.1086
    6MOL   C292 5102   0.108   1.074   0.149 -0.5636  0.1002 -0.1248
    6MOL   C293 5103   0.193   1.035   0.255  0.2365 -0.6065 -0.2211
    6MOL   C294 5104   0.210   0.901   0.299 -0.2684  0.1862  0.2329
    6MOL   C295 5105   0.154   0.800   0.215  0.2504 -0.1983  0.0390
    6MOL   C296 5106   0.064   0.835   0.108 -0.5291  0.4916  0.6499
    6MOL   C297 5107   0.046   0.968   0.073  0.4280 -0.5319  0.6586
    6MOL   C298 5108   7.736   0.991   7.751 -0.4189  0.8470  0.7271
    6MOL   N299 5109   7.762   0.902   7.639 -0.2654  0.1851  0.0655
    6MOL   C300 5110   0.062   0.921   7.543 -0.1598 -0.0588  1.1996
    6MOL   O301 5111   0.153   1.005   7.558  0.0621 -0.0285  0.4524
    6MOL   C302 5112   0.058   0.848   7.411 -1.1867  0.3325  0.0177
    6MOL   C303 5113   0.176   0.755   7.386  0.3285  0.1975 -0.2337
    6MOL   C304 5114   0.153   0.663   7.260  0.0394 -0.2302  0.8649
    6MOL   C305 5115   0.210   0.733   7.131 -0.7013 -0.1507 -0.1511
    6MOL   C306 5116   0.189   0.633   7.024 -0.5341  0.1757  0.5827
    6MOL   C307 5117   0.236   0.682   6.881 -0.4116 -0.6621 -0.3384
    6MOL   C308 5118   0.170   0.814   6.844  0.1161  0.0662 -0.0901
    6MOL   C309 5119   0.180   0.847   6.700  0.7168  0.7031  0.5250
    6MOL   C310 5120   0.083   0.955   6.635  0.4115  0.4253  0.8186
    6MOL   O311 5121   0.030   1.044   6.701 -0.4866  0.0914 -0.0039
    6MOL   H312 5122   0.226   1.216   7.752  0.1594 -0.7548  0.7062
    6MOL   H313 5123   0.101   1.290   0.204  2.6462  0.3574 -1.1578
    6MOL   H314 5124   7.764   1.237   0.100 -0.0885 -1.2432  0.9934
    6MOL   H315 5125   0.247   1.115   0.305 -1.0248 -0.5763  1.1559
    6MOL   H316 5126   0.284   0.884   0.376 -1.5262  1.9597  1.8984
    6MOL   H317 5127   0.172   0.697   0.243  1.9867  0.5574  1.8200
    6MOL   H318 5128   0.004   0.761   0.059 -0.6992  1.0107  0.0784
    6MOL   H319 5129   7.732   1.095   7.717  2.3296  0.4742 -0.8345
    6MOL   H320 5130   7.643   0.962   0.009 -0.6767 -1.9531 -1.3954
    6MOL   H321 5131   7.703   0.820   7.632 -1.5995  1.1348  0.0585
    6MOL   H322 5132   7.758   0.789   7.398 -1.7988  1.6514 -2.0749
    6MOL   H323 5133   0.065   0.922   7.331  2.3108  0.9170  0.7671
    6MOL   H324 5134   0.183   0.708   7.484  1.4233  1.5821  0.3658
    6MOL   H325 5135   0.266   0.815   7.369  0.5435  0.3773  1.4441
    6MOL   H326 5136   0.051   0.629   7.247  0.1069  0.0978 -0.5753
    6MOL   H327 5137   0.202   0.568   7.282  0.9690 -0.0968 -0.5250
    6MOL   H328 5138   0.147   0.821   7.120 -1.1269 -0.2967  1.0340
    6MOL   H329 5139   0.315   0.760   7.145 -0.7397  0.8139 -1.5738
    6MOL   H330 5140   0.258   0.553   7.050 -0.4789 -0.1448 -0.5527
    6MOL   H331 5141   0.093   0.583   7.022 -0.2215 -0.4082  0.1336
    6MOL   H332 5142   0.216   0.613   6.800 -0.3336  0.4548 -1.3105
    6MOL   H333 5143   0.343   0.699   6.868 -0.8153  1.9694 -0.4669
    6MOL   H334 5144   0.065   0.806   6.871  0.1044  1.5600  0.3334
    6MOL   H335 5145   0.209   0.893   6.908 -1.5517  0.0137  1.0304
    6MOL   H336 5146   0.277   0.891   6.677  0.6068  0.6523 -0.0414
    6MOL   H337 5147   0.158   0.759   6.639 -0.1393  1.2917 -0.0259
    6MOL   N338 5148   0.062   0.952   6.502 -0.0401  0.3721 -0.4573
    6MOL   C339 5149   7.762   1.036   6.425 -0.4308 -0.4600 -0.5944
    6MOL   C340 5150   0.044   1.142   6.342 -0.4571 -0.0648  0.1493
    6MOL   C341 5151   0.180   1.174   6.375 -0.0212 -0.0569 -0.7366
    6MOL   C342 5152   0.241   1.279   6.312 -0.5323  1.0234 -0.8068
    6MOL   C343 5153   0.184   1.339   6.196 -0.9266 -0.3636  0.4907
    6MOL   C344 5154   0.054   1.309   6.163 -0.3737  0.5958 -0.0785
    6MOL   C345 5155   7.771   1.212   6.236  0.1787  0.3484  0.2742
    6MOL   C346 5156   7.629   1.173   6.188  1.0738 -0.0418  0.5050
    6MOL   N347 5157   7.529   1.242   6.270 -0.8101  0.2840  0.3480
    6MOL   C348 5158   7.475   1.361   6.225 -0.2018 -0.0842 -0.2599
    6MOL   O349 5159   7.522   1.421   6.124 -0.2085 -0.1610 -0.2347
    6MOL   C350 5160   7.356   1.421   6.304  0.1992  0.1142 -0.0661
    6MOL   C351 5161   7.298   1.541   6.230 -0.4686 -0.2914 -0.2067
    6MOL   C352 5162   7.152   1.583   6.258 -0.0940  0.7838 -0.3488
    6MOL   C353 5163   7.153   1.689   6.369  0.1675  0.1096 -0.0875
    6MOL   C354 5164   7.022   1.709   6.447  0.1484  0.2051  0.2412
    6MOL   C355 5165   6.968   1.581   6.518  0.4739 -0.0039  0.5895
    6MOL   C356 5166   7.036   1.553   6.652  0.7415 -0.3924 -0.0692
    6MOL   C357 5167   6.958   1.450   6.737 -0.1646 -0.1282  0.4123
    6MOL   C358 5168   6.858   1.521   6.837 -0.4956  0.2440 -0.3171
    6MOL   O359 5169   6.766   1.579   6.790  0.0195 -0.5459  0.4797
    6MOL   H360 5170   0.072   0.858   6.466  0.0679 -0.2696  1.2240
    6MOL   H361 5171   7.707   0.974   6.355  1.3077 -1.9860 -0.6400
    6MOL   H362 5172   7.689   1.090   6.486  2.2077  2.0424  0.5054
    6MOL   H363 5173   0.232   1.127   6.457 -0.4522 -3.2601 -2.2123
    6MOL   H364 5174   0.334   1.318   6.350 -0.9890  2.3507 -1.0136
    6MOL   H365 5175   0.236   1.418   6.144  0.2710  1.7853  4.7174
    6MOL   H366 5176   0.005   1.365   6.084 -1.9606  0.8308  1.0472
    6MOL   H367 5177   7.616   1.065   6.178 -0.5007  0.2078 -0.2569
    6MOL   H368 5178   7.620   1.202   6.084 -0.3552  1.0821  0.9184
    6MOL   H369 5179   7.493   1.204   6.356  1.4898 -0.3195  1.0858
    6MOL   H370 5180   7.391   1.449   6.403 -0.4073  2.8385 -0.5830
    6MOL   H371 5181   7.276   1.351   6.329  1.4632 -1.1385  0.4858
    6MOL   H372 5182   7.278   1.504   6.130 -0.8844 -1.1918  0.2001
    6MOL   H373 5183   7.364   1.626   6.215  0.3595 -1.1872 -1.7169
    6MOL   H374 5184   7.109   1.628   6.168 -1.0438  1.9433  0.6708
    6MOL   H375 5185   7.090   1.497   6.284  0.3312  0.1639 -1.3788
    6MOL   H376 5186   7.181   1.783   6.323  2.0173 -1.7792 -2.9790
    6MOL   H377 5187   7.226   1.668   6.447 -0.4722 -0.5802  0.3342
    6MOL   H378 5188   7.032   1.777   6.531 -2.2730 -0.2051  0.8845
    6MOL   H379 5189   6.946   1.741   6.376 -0.0735 -1.5164 -0.3299
    6MOL   H380 5190   6.990   1.493   6.458 -0.4100 -1.1900  1.9618
    6MOL   H381 5191   6.860   1.592   6.527  0.1620 -1.8129 -0.6488
    6MOL   H382 5192   7.132   1.507   6.625  0.4684 -1.5474  0.8850
    6MOL   H383 5193   7.050   1.641   6.714 -4.4220  0.1702  0.4493
    6MOL   H384 5194   7.022   1.385   6.796  0.3779 -0.1763 -0.2310
    6MOL   H385 5195   6.906   1.384   6.668  1.8509 -1.1987 -0.1051
    6MOL   N386 5196   6.898   1.521   6.963 -0.2955 -0.0691 -0.1687
    6MOL   C387 5197   6.818   1.574   7.073 -0.5160  0.1947  0.0161
    6MOL   C388 5198   6.840   1.723   7.083  0.3663 -0.2595 -0.7952
    6MOL   C389 5199   6.972   1.763   7.119  0.1397  0.3480  0.3681
    6MOL   C390 5200   6.995   1.894   7.133 -0.1376 -0.4738  0.3750
    6MOL   C391 5201   6.895   1.989   7.115  0.1936  0.2317 -0.5158
    6MOL   C392 5202   6.767   1.951   7.074 -0.6103  0.2683 -0.6442
    6MOL   C393 5203   6.738   1.814   7.061  0.7469  0.7828  0.3084
    6MOL   C394 5204   6.599   1.785   7.006  0.9771 -0.0361  0.1606
    6MOL   N395 5205   6.488   1.864   7.048 -0.3086  0.0784 -0.0161
    6MOL   C396 5206   6.362   1.821   7.038 -0.2482  0.4156  0.3290
    6MOL   O397 5207   6.332   1.710   6.997  0.5463  0.1020  0.5730
    6MOL   C398 5208   6.248   1.921   7.070  0.0870 -0.0916 -0.4675
    6MOL   C399 5209   6.154   1.862   7.175 -0.1308 -0.2427 -0.4732
    6MOL   C400 5210   6.056   1.745   7.130  0.0962 -0.0822  1.0782
    6MOL   C401 5211   5.925   1.741   7.211 -0.4512  0.0979  0.5108
    6MOL   C402 5212   5.845   1.612   7.199  0.5013  0.4271  0.0803
    6MOL   C403 5213   5.703   1.626   7.251 -0.2053 -0.2144 -0.7000
    6MOL   C404 5214   5.609   1.504   7.218 -0.1151  0.1930  0.1374
    6MOL   C405 5215   5.584   1.472   7.070 -0.2687 -0.2321 -0.3012
    6MOL   C406 5216   5.505   1.341   7.062  0.0984 -0.4419 -0.1296
    6MOL   O407 5217   5.417   1.311   7.137 -0.5141 -0.0911  0.0653
    6MOL   H408 5218   6.988   1.478   6.979  0.3293  0.9631 -0.8429
    6MOL   H409 5219   6.719   1.528   7.066 -0.5000  0.1131  0.3471
    6MOL   H410 5220   6.854   1.521   7.161 -2.1588 -1.5575 -0.3177
    6MOL   H411 5221   7.052   1.692   7.134  0.0819  0.7395  2.7530
    6MOL   H412 5222   7.099   1.917   7.151 -0.3978  0.8544  0.2502
    6MOL   H413 5223   6.928   2.091   7.129 -0.8014  0.1764  2.7578
    6MOL   H414 5224   6.692   2.023   7.045 -0.9549  0.3043  0.3185
    6MOL   H415 5225   6.581   1.685   7.044  2.0704  0.3518  1.7264
    6MOL   H416 5226   6.592   1.788   6.897  1.0160 -0.1328  0.1553
    6MOL   H417 5227   6.512   1.953   7.089  2.2584 -1.4094  1.8167
    6MOL   H418 5228   6.294   2.015   7.102  1.3482 -1.1609  0.9176
    6MOL   H419 5229   6.197   1.953   6.979 -0.5470 -2.2531 -0.9058
    6MOL   H420 5230   6.102   1.951   7.208 -0.4498 -0.2141 -1.0329
    6MOL   H421 5231   6.213   1.826   7.259 -0.7012 -1.5173 -0.6114
    6MOL   H422 5232   6.107   1.650   7.146 -1.1543 -0.9365  0.0912
    6MOL   H423 5233   6.027   1.752   7.025  0.2922  1.0402  1.0928
    6MOL   H424 5234   5.950   1.749   7.316  0.0815 -0.3318  0.4172
    6MOL   H425 5235   5.864   1.829   7.190 -0.4476  0.4094  1.7715
    6MOL   H426 5236   5.849   1.589   7.092  1.4778 -2.2966  0.6654
    6MOL   H427 5237   5.889   1.523   7.244  2.6117  1.0568 -0.6496
    6MOL   H428 5238   5.663   1.717   7.205  0.9864  0.6632 -0.0491
    6MOL   H429 5239   5.695   1.645   7.358 -0.2867 -2.0209 -0.3827
    6MOL   H430 5240   5.515   1.536   7.263 -0.0040 -1.0140  1.2500
    6MOL   H431 5241   5.638   1.411   7.266  1.2772  1.2124  1.2962
    6MOL   H432 5242   5.672   1.453   7.009  0.3233  1.1860  0.0830
    6MOL   H433 5243   5.526   1.556   7.031  0.5624  0.4754 -0.0189
    6MOL   N434 5244   5.554   1.259   6.966 -0.1542  0.2138  0.6698
    6MOL   C435 5245   5.489   1.138   6.932 -0.2651 -0.0223 -0.4684
    6MOL   C436 5246   5.532   1.039   7.032 -0.4421 -0.0524 -0.2337
    6MOL   C437 5247   5.436   0.992   7.133  0.6499 -0.2376  0.5756
    6MOL   C438 5248   5.470   0.884   7.220  0.0243  0.5261  0.5041
    6MOL   C439 5249   5.596   0.823   7.211 -0.0009 -0.5558 -1.0996
    6MOL   C440 5250   5.690   0.864   7.116  0.5439 -0.1112  0.2560
    6MOL   C441 5251   5.657   0.970   7.028 -0.1429  0.1398  0.1395
    6MOL   C442 5252   5.774   1.006   6.941  0.9321  0.0516  0.1767
    6MOL   N443 5253   5.860   1.098   7.011  0.2635  0.3002  0.1494
    6MOL   C444 5254   5.905   1.220   6.978  0.3277  0.3436  0.3979
    6MOL   O445 5255   5.881   1.265   6.866  0.0782  0.0310  0.1711
    6MOL   C446 5256   5.986   1.292   7.083  0.0610  0.0530  0.0291
    6MOL   C447 5257   6.140   1.299   7.060  0.3065 -0.4507  1.0775
    6MOL   C448 5258   6.197   1.379   6.942 -0.1200  0.1202 -0.1064
    6MOL   C449 5259   6.348   1.392   6.938  0.3741 -0.1565  0.6490
    6MOL   C450 5260   6.423   1.267   6.883 -0.0794 -0.1846  0.2430
    6MOL   C451 5261   6.575   1.294   6.875 -0.5639 -0.8780 -0.0356
    6MOL   C452 5262   6.663   1.172   6.819 -0.0072  0.2230 -0.0025
    6MOL   C453 5263   6.699   1.084   6.943  0.6017  0.2781 -0.2234
    6MOL   C454 5264   6.817   1.131   7.028  0.1891  0.1187  0.1227
    6MOL   O455 5265   6.905   1.202   6.980  0.5402  0.4653  0.2308
    6MOL   H456 5266   5.622   1.296   6.902 -0.2677 -1.6875 -0.5759
    6MOL   H457 5267   5.516   1.095   6.836  0.1138 -1.9034  0.4473
    6MOL   H458 5268   5.381   1.149   6.924 -0.2485 -0.2909 -1.1125
    6MOL   H459 5269   5.338   1.036   7.138 -0.2624 -1.8656 -1.9574
    6MOL   H460 5270   5.399   0.844   7.291  0.1982  0.1829  0.4861
    6MOL   H461 5271   5.630   0.757   7.290  4.1780  1.7050 -0.8329
    6MOL   H462 5272   5.792   0.828   7.113  0.5020 -0.2243  0.2114
    6MOL   H463 5273   5.741   1.047   6.846  0.2511 -1.4378 -0.2462
    6MOL   H464 5274   5.835   0.920   6.914  2.4475  1.6833 -1.7274
    6MOL   H465 5275   5.899   1.063   7.097  1.8840 -0.1330 -0.7404
    6MOL   H466 5276   5.960   1.258   7.184  1.7788 -0.0874  0.4491
    6MOL   H467 5277   5.946   1.393   7.088  2.4057  0.9416  1.8793
    6MOL   H468 5278   6.165   1.194   7.042 -0.3426 -0.4692  0.2473
    6MOL   H469 5279   6.186   1.324   7.155  0.1780 -1.1245  1.3238
    6MOL   H470 5280   6.169   1.333   6.847 -3.1126  0.0008  0.7693
    6MOL   H471 5281   6.155   1.480   6.944  0.8091  0.5508 -1.3749
    6MOL   H472 5282   6.384   1.482   6.887 -0.2171 -0.4879 -0.3702
    6MOL   H473 5283   6.381   1.408   7.041  1.0168  2.1976  0.1187
    6MOL   H474 5284   6.390   1.183   6.944 -0.3875  0.4207  0.9207
    6MOL   H475 5285   6.391   1.234   6.785 -0.7869 -0.5740  0.6003
    6MOL   H476 5286   6.617   1.345   6.962 -0.6010 -0.9053 -0.0023
    6MOL   H477 5287   6.572   1.370   6.797  0.2366 -1.9283 -1.1281
    6MOL   H478 5288   6.609   1.103   6.754 -0.1898  0.1041  0.2727
    6MOL   H479 5289   6.752   1.204   6.766  0.7751 -0.0407  1.1264
    6MOL   H480 5290   6.610   1.083   7.005  0.8156  1.1961  0.0912
    6MOL   H481 5291   6.717   0.978   6.921  0.7214 -0.3856  2.8024
    6MOL   N482 5292   6.825   1.077   7.147  0.2643 -0.1340  0.3400
    6MOL   C483 5293   6.937   1.101   7.243  0.0564  0.3710  0.1799
    6MOL   C484 5294   6.933   1.236   7.307 -0.8930 -0.2364  0.0642
    6MOL   C485 5295   6.830   1.256   7.401 -0.6047  0.9740 -0.3444
    6MOL   C486 5296   6.829   1.372   7.482  0.1037 -0.0654  0.7813
    6MOL   C487 5297   6.917   1.474   7.459  0.0243 -0.4552  0.0398
    6MOL   C488 5298   7.030   1.457   7.378 -1.0801  0.5889  0.0458
    6MOL   C489 5299   7.047   1.329   7.307  0.5018 -0.0163  0.3339
    6MOL   C490 5300   7.173   1.291   7.225 -0.4594  0.4628  0.9057
    6MOL   N491 5301   7.290   1.376   7.231  0.2034 -0.3793  0.1672
    6MOL   C492 5302   7.379   1.399   7.135 -0.3351  0.1326 -0.5751
    6MOL   O493 5303   7.376   1.343   7.026 -0.6974  0.2191  0.2771
    6MOL   C494 5304   7.493   1.501   7.172  0.1878  0.6794  0.9842
    6MOL   C495 5305   7.625   1.433   7.217  0.1412 -0.4175 -0.1464
    6MOL   C496 5306   7.708   1.351   7.126 -0.2419  0.1133  0.1865
    6MOL   C497 5307   0.053   1.301   7.176  0.6881  0.6699  0.6047
    6MOL   C498 5308   0.114   1.178   7.106 -0.2323  0.3744  0.0289
    6MOL   C499 5309   0.135   1.209   6.955  0.6477  0.4447 -0.5651
    6MOL   C500 5310   0.219   1.332   6.925 -0.9334 -0.6492 -0.3266
    6MOL   C501 5311   0.250   1.342   6.774 -0.2971  0.0330 -0.0724
    6MOL   C502 5312   0.149   1.421   6.685  0.2664  0.1913  0.0254
    6MOL   O503 5313   0.157   1.540   6.665  0.1626 -0.1894  0.1078
    6MOL   H504 5314   6.769   0.994   7.163 -1.6903  1.1713  0.3342
    6MOL   H505 5315   6.923   1.026   7.321  0.2068 -0.1190 -0.2644
    6MOL   H506 5316   7.027   1.086   7.183 -0.1604 -0.0047 -0.0532
    6MOL   H507 5317   6.753   1.182   7.419  1.7912 -1.9311 -1.5185
    6MOL   H508 5318   6.743   1.385   7.545 -0.6873  0.3650 -0.3843
    6MOL   H509 5319   6.902   1.568   7.508 -2.3746 -0.6176 -0.3244
    6MOL   H510 5320   7.107   1.532   7.368 -0.3381  0.2054  2.5728
    6MOL   H511 5321   7.140   1.274   7.122  0.7751 -0.1687  0.6096
    6MOL   H512 5322   7.214   1.195   7.254 -0.8833  0.0559  0.1809
    6MOL   H513 5323   7.301   1.417   7.322 -1.4246 -1.6590  0.9738
    6MOL   H514 5324   7.463   1.575   7.246 -1.5222  0.8926  0.1196
    6MOL   H515 5325   7.497   1.561   7.080 -0.5701  1.1986  1.2763
    6MOL   H516 5326   7.616   1.370   7.305  0.0947 -0.6073 -0.2883
    6MOL   H517 5327   7.691   1.510   7.256  2.6859 -2.1409 -0.9314
    6MOL   H518 5328   7.654   1.257   7.116 -0.3678  0.2172 -0.1050
    6MOL   H519 5329   7.707   1.391   7.024  1.6470  1.0480  0.5179
    6MOL   H520 5330   0.121   1.386   7.187 -0.3923  1.4298  1.5228
    6MOL   H521 5331   0.050   1.263   7.279 -0.5436  0.6787  0.5731
    6MOL   H522 5332   0.209   1.160   7.156 -0.7234 -3.3610 -0.1959
    6MOL   H523 5333   0.049   1.093   7.125 -0.9743  0.7439 -0.8379
    6MOL   H524 5334   0.039   1.243   6.916  0.6262  0.2720 -0.6609
    6MOL   H525 5335   0.174   1.125   6.898 -1.6624 -1.0440 -0.0338
    6MOL   H526 5336   0.175   1.426   6.958 -0.8733  0.0706 -2.2546
    6MOL   H527 5337   0.317   1.328   6.972 -2.3068 -1.0048  2.6273
    6MOL   H528 5338   0.266   1.248   6.721  0.4715  1.3715 -2.2667
    6MOL   H529 5339   0.342   1.399   6.759  0.0452 -0.5884 -0.3656
    6MOL   N530 5340   0.047   1.360   6.634  0.2416 -0.4088 -0.2972
    6MOL   C531 5341   7.727   1.422   6.552 -0.1406 -0.0290 -0.6904
    6MOL   C532 5342   7.626   1.502   6.625 -0.3390 -0.1188 -0.3241
    6MOL   C533 5343   7.622   1.641   6.608  0.2092  0.2053  0.4346
    6MOL   C534 5344   7.525   1.721   6.672 -0.0196  0.1591 -1.5569
    6MOL   C535 5345   7.429   1.651   6.747 -0.2074 -0.0110 -0.1669
    6MOL   C536 5346   7.429   1.509   6.758  0.2620  0.3747  0.3739
    6MOL   C537 5347   7.535   1.434   6.704  0.9582 -0.6908 -0.6780
    6MOL   C538 5348   7.538   1.286   6.724 -0.6771 -0.0847  0.2082
    6MOL   N539 5349   7.409   1.225   6.741  0.4957 -0.1005  0.4213
    6MOL   C540 5350   7.348   1.158   6.638  0.1474 -0.4590  1.3490
    6MOL   O541 5351   7.412   1.146   6.528  0.1111  0.5893  0.1797
    6MOL   C542 5352   7.209   1.102   6.659  0.3751 -0.6187  0.4051
    6MOL   C543 5353   7.120   1.143   6.535  0.0787 -0.2308  0.2249
    6MOL   C544 5354   6.975   1.115   6.567  0.0086 -0.7829  0.2100
    6MOL   C545 5355   6.879   1.121   6.451  0.1277 -0.0635  0.3137
    6MOL   C546 5356   6.740   1.071   6.472 -0.4109  0.1449 -0.2102
    6MOL   C547 5357   6.646   1.077   6.354 -0.5878  0.3516 -0.0637
    6MOL   C548 5358   6.671   0.963   6.262  0.1120  0.7913  0.2975
    6MOL   C549 5359   6.548   0.945   6.167  0.2794  0.2929 -0.5779
    6MOL   C550 5360   6.424   0.875   6.212 -0.1112 -0.1245 -0.2295
    6MOL   O551 5361   6.401   0.836   6.329  0.5343  0.2532 -0.1670
    6MOL   H552 5362   0.036   1.266   6.667  0.8818 -0.7134 -0.9287
    6MOL   H553 5363   7.673   1.343   6.499 -0.2483  0.4507 -1.3097
    6MOL   H554 5364   7.772   1.479   6.470  0.1821  0.0560 -0.4556
    6MOL   H555 5365   7.697   1.697   6.555 -1.4736  1.1550 -0.9672
    6MOL   H556 5366   7.528   1.827   6.651  0.6859  0.7884  1.5355
    6MOL   H557 5367   7.360   1.718   6.796 -0.1587  0.9304 -1.3788
    6MOL   H558 5368   7.349   1.469   6.818 -1.0057 -0.3889 -1.7932
    6MOL   H559 5369   7.584   1.283   6.823 -1.3559  2.1683  0.6164
    6MOL   H560 5370   7.605   1.222   6.667  0.4380  1.6203 -0.4522
    6MOL   H561 5371   7.361   1.223   6.830  2.6367 -2.5781  1.5982
    6MOL   H562 5372   7.169   1.145   6.751 -0.9574  0.3628 -0.6129
    6MOL   H563 5373   7.210   0.993   6.664 -2.4394 -0.8024 -1.8785
    6MOL   H564 5374   7.151   1.098   6.441 -1.3544  1.9468 -1.3347
    6MOL   H565 5375   7.129   1.250   6.513 -0.2647 -0.1540  0.4532
    6MOL   H566 5376   6.969   1.012   6.601  0.3569 -1.2581 -1.1211
    6MOL   H567 5377   6.946   1.164   6.660  0.2918  1.0294 -0.6283
    6MOL   H568 5378   6.865   1.222   6.413  1.8312  0.0348 -0.0883
    6MOL   H569 5379   6.926   1.086   6.359 -2.5854  0.5518 -1.3583
    6MOL   H570 5380   6.744   0.978   6.529 -0.3296  2.6603  4.1193
    6MOL   H571 5381   6.702   1.137   6.550  1.5308  1.0997 -0.0490
    6MOL   H572 5382   6.622   1.171   6.304  1.6517  0.7609 -0.4313
    6MOL   H573 5383   6.552   1.062   6.406 -1.2335  0.1318 -1.2785
    6MOL   H574 5384   6.762   0.985   6.206 -0.8063 -0.1025 -1.5953
    6MOL   H575 5385   6.697   0.873   6.317  1.5108  0.3077 -1.1173
    6MOL   H576 5386   6.587   0.879   6.089 -2.0162  0.3537 -1.8387
    6MOL   H577 5387   6.516   1.039   6.120  1.4249 -0.2745 -2.5628
    6MOL   N578 5388   6.346   0.861   6.106  0.5187  0.2637  0.2408
    6MOL   C579 5389   6.235   0.772   6.094  0.4264  0.0604 -0.0086
    6MOL   C580 5390   6.224   0.703   5.964 -0.8068 -0.3811  0.3038
    6MOL   C581 5391   6.131   0.749   5.878  0.1796  0.3665  0.0723
    6MOL   C582 5392   6.109   0.687   5.752 -0.7144 -0.0220  0.8177
    6MOL   C583 5393   6.201   0.584   5.706  0.2001  0.4549  0.2623
    6MOL   C584 5394   6.309   0.549   5.790  0.3047 -1.0212  0.3011
    6MOL   C585 5395   6.321   0.606   5.920  0.7118 -0.5887  0.1960
    6MOL   C586 5396   6.440   0.552   6.001 -0.4013  0.2538  0.3328
    6MOL   N587 5397   6.568   0.580   5.936  0.5429 -0.1761 -0.5633
    6MOL   C588 5398   6.684   0.616   5.995 -0.1950  0.1115 -0.0606
    6MOL   O589 5399   6.692   0.646   6.116 -0.1128 -0.0144 -0.0361
    6MOL   C590 5400   6.802   0.617   5.904 -0.4140  0.0342  0.7815
    6MOL   C591 5401   6.936   0.568   5.976 -0.3558  0.4790 -0.3756
    6MOL   C592 5402   6.933   0.428   6.031 -0.0576  0.2247  0.3572
    6MOL   C593 5403   7.051   0.395   6.115  0.0743  0.4522 -0.3501
    6MOL   C594 5404   7.059   0.248   6.154  0.5866  0.3879 -0.1095
    6MOL   C595 5405   7.157   0.224   6.272  0.0850 -0.4258  0.0206
    6MOL   C596 5406   7.179   0.082   6.305 -0.2526 -0.0520 -0.0608
    6MOL   C597 5407   7.289   0.065   6.414  0.4272  0.0307 -0.6913
    6MOL   C598 5408   7.301   7.716   6.471 -0.3174  0.5630 -0.2842
    6MOL   O599 5409   7.238   7.624   6.422  0.0929  0.1565  0.5701
    6MOL   H600 5410   6.379   0.899   6.018 -0.8298 -0.9104 -0.7995
    6MOL   H601 5411   6.153   0.833   6.130  2.2491  3.0384 -0.7216
    6MOL   H602 5412   6.241   0.690   6.166  1.5043 -0.1365 -0.3076
    6MOL   H603 5413   6.062   0.829   5.900 -0.5833  0.2820 -1.8857
    6MOL   H604 5414   6.023   0.710   5.690 -0.0808 -1.9723 -0.8182
    6MOL   H605 5415   6.176   0.537   5.611 -2.4344  2.6642 -0.1935
    6MOL   H606 5416   6.387   0.486   5.750  1.0680  1.5990 -2.4889
    6MOL   H607 5417   6.422   0.445   5.989 -1.5343  0.2625  1.8711
    6MOL   H608 5418   6.435   0.583   6.105 -1.0409 -0.4549  0.5217
    6MOL   H609 5419   6.564   0.573   5.836 -0.5365  0.4212 -0.5742
    6MOL   H610 5420   6.814   0.720   5.870  0.2368  0.1222  1.2622
    6MOL   H611 5421   6.776   0.557   5.817  1.6874  1.1691 -0.6864
    6MOL   H612 5422   6.955   0.629   6.064  1.3549 -0.0152 -0.3892
    6MOL   H613 5423   7.016   0.594   5.907  0.0620 -0.9954 -0.4619
    6MOL   H614 5424   6.847   0.419   6.098 -0.3454 -1.6394 -0.2306
    6MOL   H615 5425   6.946   0.361   5.946  1.8474  2.0329 -0.8074
    6MOL   H616 5426   7.143   0.434   6.069 -0.1771  0.9740 -0.4163
    6MOL   H617 5427   7.050   0.434   6.216 -0.4367 -0.2038 -0.1046
    6MOL   H618 5428   6.959   0.226   6.192 -0.2415  0.5921 -2.1386
    6MOL   H619 5429   7.077   0.185   6.068  3.6485  0.6657  0.2700
    6MOL   H620 5430   7.124   0.267   6.367  1.9828  0.3020  0.3808
    6MOL   H621 5431   7.255   0.271   6.261 -0.0573  0.8687  3.6063
    6MOL   H622 5432   7.089   0.038   6.347  1.4425 -1.7976  1.8811
    6MOL   H623 5433   7.211   0.026   6.217 -1.6320  1.0082 -1.2599
    6MOL   H624 5434   7.389   0.096   6.388  0.4743 -0.3950 -1.0270
    6MOL   H625 5435   7.264   0.137   6.492  0.9642  1.8180 -2.1336
    6MOL   N626 5436   7.388   7.696   6.573  0.2266 -0.0815  0.3481
    6MOL   C627 5437   7.417   7.571   6.628  0.3405 -0.7249 -1.0561
    6MOL   C628 5438   7.504   7.579   6.749 -0.0193 -0.4502 -0.0576
    6MOL   C629 5439   7.647   7.576   6.723  0.0251 -0.5615  0.0836
    6MOL   C630 5440   7.729   7.603   6.828  0.0216  0.2961  0.4006
    6MOL   C631 5441   7.685   7.618   6.965  0.0918 -0.0812  0.3654
    6MOL   C632 5442   7.549   7.618   6.991  0.1325  0.0286 -0.5260
    6MOL   C633 5443   7.456   7.604   6.882 -0.1849 -0.6943  0.5617
    6MOL   C634 5444   7.309   7.634   6.903 -0.0907  0.4516 -0.5342
    6MOL   N635 5445   7.272   7.767   6.949 -0.5270 -0.1363 -0.7619
    6MOL   C636 5446   7.305   0.095   6.894  0.1742 -0.6414  0.2732
    6MOL   O637 5447   7.389   0.097   6.802  0.3666 -0.1039  0.0226
    6MOL   C638 5448   7.246   0.228   6.944  0.4919 -0.4570  0.1364
    6MOL   C639 5449   7.229   0.329   6.821  0.6525 -0.1341 -0.8803
    6MOL   C640 5450   7.095   0.319   6.747 -0.0096 -0.5976 -0.2362
    6MOL   C641 5451   7.083   0.435   6.647  0.1256  0.4084 -0.6080
    6MOL   C642 5452   6.948   0.447   6.576  0.3318 -0.1184  0.2669
    6MOL   C643 5453   6.941   0.580   6.503  0.2607 -0.2391 -0.6634
    6MOL   C644 5454   6.814   0.587   6.414  0.4450  0.1036  0.3851
    6MOL   C645 5455   6.674   0.574   6.484  0.1344 -0.9309 -0.2238
    6MOL   C646 5456   6.646   0.678   6.590  0.3104 -0.4917  0.8957
    6MOL   O647 5457   6.696   0.665   6.702 -0.3398 -0.7248  0.1863
    6MOL   H648 5458   7.409   7.782   6.622 -2.6790  0.7912  0.2198
    6MOL   H649 5459   7.467   7.522   6.544  3.4954 -0.2846  0.5089
    6MOL   H650 5460   7.324   7.519   6.651  0.3509  0.2596  1.3404
    6MOL   H651 5461   7.689   7.576   6.623 -0.8007  2.2812 -0.3082
    6MOL   H652 5462   0.046   7.596   6.810 -0.3098 -2.2024 -0.8441
    6MOL   H653 5463   7.755   7.629   7.047  0.4496  0.4744 -0.0165
    6MOL   H654 5464   7.509   7.635   7.090 -0.1268 -1.6725 -0.3134
    6MOL   H655 5465   7.274   7.574   6.987  0.8791  0.9001  0.2064
    6MOL   H656 5466   7.248   7.589   6.825 -0.4140  0.8348 -0.5070
    6MOL   H657 5467   7.210   7.764   7.028 -0.1269  0.0134 -0.4365
    6MOL   H658 5468   7.314   0.268   7.020 -1.4328  2.5203  0.3463
    6MOL   H659 5469   7.148   0.201   6.984  1.3297 -0.4965  2.2501
    6MOL   H660 5470   7.312   0.330   6.751  0.9891  2.7314 -0.5099
    6MOL   H661 5471   7.237   0.431   6.859 -3.9185 -0.9864  2.9367
    6MOL   H662 5472   7.096   0.222   6.698  2.2327 -0.4443 -0.5318
    6MOL   H663 5473   7.009   0.313   6.814  0.8977 -2.7975  0.7674
    6MOL   H664 5474   7.100   0.529   6.700 -2.2080  0.4242  0.1749
    6MOL   H665 5475   7.162   0.434   6.572  0.0821 -2.1375 -0.6692
    6MOL   H666 5476   6.930   0.361   6.511  3.2267 -0.5237 -0.0973
    6MOL   H667 5477   6.873   0.432   6.653  2.5434 -0.5887  2.4027
    6MOL   H668 5478   7.022   0.582   6.431 -1.1491 -0.1573 -2.2889
    6MOL   H669 5479   6.962   0.657   6.576  0.9756 -3.9722  3.2687
    6MOL   H670 5480   6.810   0.657   6.331 -1.1579 -0.8570 -0.3787
    6MOL   H671 5481   6.817   0.494   6.357 -1.4219  0.8039 -0.8877
    6MOL   H672 5482   6.665   0.481   6.540 -1.0882 -0.5474  0.2095
    6MOL   H673 5483   6.594   0.580   6.410  0.4453 -0.2358 -0.5034
    6MOL   N674 5484   6.563   0.775   6.560 -0.1313 -0.1294 -0.1328
    6MOL   C675 5485   6.493   0.849   6.659  0.1704 -0.0267 -0.3577
    6MOL   C676 5486   6.373   0.777   6.728 -0.7281 -0.1642 -0.3990
    6MOL   C677 5487   6.257   0.739   6.652 -0.6937 -0.1216  0.1303
    6MOL   C678 5488   6.139   0.688   6.708  0.5741 -0.2737 -0.4360
    6MOL   C679 5489   6.134   0.662   6.848  0.1263  0.7878 -0.2160
    6MOL   C680 5490   6.253   0.688   6.926 -0.0003 -0.2797 -0.1011
    6MOL   C681 5491   6.363   0.752   6.871 -0.4269 -0.1465  0.0995
    6MOL   C682 5492   6.470   0.798   6.967 -0.3261 -0.4956 -0.0822
    6MOL   N683 5493   6.591   0.712   6.969  0.6559  0.0581 -0.0364
    6MOL   C684 5494   6.695   0.723   7.057 -0.3338  0.3309 -0.4982
    6MOL   O685 5495   6.695   0.799   7.152  0.1551 -0.0249 -0.2257
    6MOL   C686 5496   6.822   0.641   7.034  0.1686 -0.1196 -0.3426
    6MOL   C687 5497   6.844   0.546   7.152 -1.0318 -1.7280 -0.6984
    6MOL   C688 5498   6.976   0.466   7.149  0.9107 -0.6081  0.1096
    6MOL   C689 5499   7.110   0.540   7.134  0.3570 -0.1325  0.5682
    6MOL   C690 5500   7.145   0.622   7.262  0.4596  0.1794  0.5740
    6MOL   C691 5501   7.289   0.689   7.239 -0.5051 -0.0481  0.1624
    6MOL   C692 5502   7.341   0.766   7.364  0.6126  0.3602  0.3644
    6MOL   C693 5503   7.479   0.832   7.325  0.5224  0.4133  0.2145
    6MOL   C694 5504   7.463   0.949   7.240  0.3375 -0.1206  0.2263
    6MOL   O695 5505   7.401   1.049   7.273  0.7039 -0.2071 -0.3160
    6MOL   H696 5506   6.534   0.789   6.464  0.4594  4.3854  0.2405
    6MOL   H697 5507   6.465   0.941   6.608  3.6462  1.5444  0.3944
    6MOL   H698 5508   6.568   0.883   6.730  0.9169 -0.1164 -1.0958
    6MOL   H699 5509   6.262   0.751   6.545 -0.3951 -1.0393  0.0379
    6MOL   H700 5510   6.057   0.651   6.648 -0.8697 -0.5515  1.6740
    6MOL   H701 5511   6.052   0.611   6.897  0.2257  0.5564 -0.2892
    6MOL   H702 5512   6.249   0.658   7.029 -0.2528 -1.2061 -0.3770
    6MOL   H703 5513   6.440   0.802   7.071 -2.6316  0.2240 -0.7406
    6MOL   H704 5514   6.504   0.896   6.932  0.5075 -1.0098 -0.7408
    6MOL   H705 5515   6.609   0.656   6.887 -0.3017  0.4197 -0.4914
    6MOL   H706 5516   6.910   0.706   7.022 -0.9660  1.4358 -0.4167
    6MOL   H707 5517   6.818   0.589   6.938  1.4505  2.5254 -1.9092
    6MOL   H708 5518   6.763   0.474   7.162  0.5933 -3.4689  0.3883
    6MOL   H709 5519   6.842   0.606   7.243  0.6599 -0.9555 -1.1393
    6MOL   H710 5520   6.988   0.394   7.229  0.7197 -0.5500  0.1902
    6MOL   H711 5521   6.970   0.402   7.061 -0.3966 -1.0429  0.5195
    6MOL   H712 5522   7.195   0.475   7.112  0.7574  1.4229 -2.7514
    6MOL   H713 5523   7.111   0.609   7.050  0.5021 -3.0936 -1.9675
    6MOL   H714 5524   7.066   0.689   7.297  0.7146  0.3206  0.8827
    6MOL   H715 5525   7.156   0.554   7.347 -0.6601 -0.5521  0.1462
    6MOL   H716 5526   7.272   0.747   7.148 -1.0417 -1.3909 -0.6169
    6MOL   H717 5527   7.358   0.605   7.232  0.4554  0.7989 -0.6641
    6MOL   H718 5528   7.345   0.695   7.446  0.9386  2.2351  1.9922
    6MOL   H719 5529   7.272   0.841   7.400  1.0161  0.6090  0.6150
    6MOL   H720 5530   7.544   0.753   7.289  2.3805  0.4824  3.2287
    6MOL   H721 5531   7.536   0.879   7.405  2.8539  1.6811 -2.1504
    6MOL   N722 5532   7.516   0.930   7.117 -0.0254 -0.4109  0.1507
    6MOL   C723 5533   7.470   1.009   7.005 -0.6457  0.6990 -0.3972
    6MOL   C724 5534   7.348   0.940   6.940  0.4972  0.0921 -0.3739
    6MOL   C725 5535   7.218   0.994   6.967 -0.2631  1.0937  0.5277
    6MOL   C726 5536   7.100   0.916   6.934 -0.7678 -0.3656 -0.1517
    6MOL   C727 5537   7.117   0.791   6.865  0.8322 -0.3429 -0.4610
    6MOL   C728 5538   7.244   0.761   6.812  0.6706 -0.2990  0.3547
    6MOL   C729 5539   7.357   0.827   6.858 -0.0980 -0.4604 -0.0983
    6MOL   C730 5540   7.490   0.762   6.814  0.9442  0.1839  0.4164
    6MOL   N731 5541   7.507   0.619   6.848  0.5161 -0.6730 -0.6681
    6MOL   C732 5542   7.552   0.572   6.965 -0.0837 -0.1837 -0.3821
    6MOL   O733 5543   7.587   0.639   7.060  0.4293  0.4223  0.7928
    6MOL   C734 5544   7.554   0.426   6.972  0.1313  0.1707  0.1207
    6MOL   C735 5545   7.698   0.369   6.966  0.1115 -0.2554 -0.1523
    6MOL   C736 5546   7.705   0.224   6.912  0.4173  0.3172 -0.0946
    6MOL   C737 5547   0.057   0.161   6.914  0.4416 -0.6436  0.4106
    6MOL   C738 5548   0.133   0.164   6.784 -0.8118  0.1749  0.3510
    6MOL   C739 5549   0.187   0.307   6.747 -0.4361  0.3311  0.6961
    6MOL   C740 5550   0.309   0.312   6.653  0.1421 -0.5388  0.0177
    6MOL   C741 5551   0.350   0.446   6.600  0.3736  0.3698 -0.0069
    6MOL   C742 5552   0.460   0.429   6.493  0.6318  0.1307 -0.1708
    6MOL   O743 5553   0.451   0.353   6.398 -0.2053 -0.2568  0.2380
    6MOL   H744 5554   7.525   0.831   7.101 -0.2561 -0.4756  0.4003
    6MOL   H745 5555   7.547   1.026   6.930  1.0616 -0.7459  0.9596
    6MOL   H746 5556   7.435   1.106   7.040 -0.7887  0.1204  1.0921
    6MOL   H747 5557   7.207   1.088   7.018  1.4557  1.7603 -0.2933
    6MOL   H748 5558   6.999   0.946   6.958 -0.6222  0.5298 -0.6622
    6MOL   H749 5559   7.022   0.752   6.833  0.2807  0.2996  0.3822
    6MOL   H750 5560   7.257   0.679   6.743  0.3832  0.6547 -0.8573
    6MOL   H751 5561   7.573   0.823   6.851  1.8469 -1.2066  0.6992
    6MOL   H752 5562   7.495   0.772   6.706  0.8092 -4.3940 -0.1160
    6MOL   H753 5563   7.486   0.561   6.768 -0.4465  1.0279 -1.6805
    6MOL   H754 5564   7.503   0.377   6.888 -2.9630  2.1434  0.7593
    6MOL   H755 5565   7.519   0.394   7.070  0.8312  1.1529  0.6937
    6MOL   H756 5566   7.737   0.374   7.067  0.1983  1.0684 -0.2449
    6MOL   H757 5567   7.746   0.440   6.898  0.7269 -2.0371 -1.6425
    6MOL   H758 5568   7.650   0.156   6.976 -2.2126  2.0960 -0.3858
    6MOL   H759 5569   7.657   0.216   6.814  0.0220  0.9996  0.0405
    6MOL   H760 5570   0.106   0.222   6.990  2.9830  0.5144 -2.0505
    6MOL   H761 5571   0.054   0.058   6.947 -0.4220 -0.3570  1.2369
    6MOL   H762 5572   0.218   0.099   6.802 -1.6088 -0.6095  1.3088
    6MOL   H763 5573   0.080   0.126   6.696  0.7199 -0.8476 -0.1393
    6MOL   H764 5574   0.206   0.361   6.839  1.9383 -1.9247  1.5866
    6MOL   H765 5575   0.118   0.370   6.689  1.4145  0.3106 -1.6299
    6MOL   H766 5576   0.393   0.266   6.706 -0.2356 -0.7547  0.4389
    6MOL   H767 5577   0.275   0.251   6.569  0.8844  1.0353 -1.4502
    6MOL   H768 5578   0.266   0.504   6.560 -0.0197 -0.9089 -1.0524
    6MOL   H769 5579   0.386   0.505   6.685  0.7735 -2.6383  1.9974
    6MOL   N770 5580   0.572   0.497   6.521  0.0861  0.0026 -0.6340
    6MOL   C771 5581   0.705   0.482   6.458  0.1945 -0.3950  0.4444
    6MOL   C772 5582   0.737   0.598   6.360  0.5508  0.4133 -0.2202
    6MOL   C773 5583   0.672   0.601   6.233 -0.7354 -0.0791 -0.2905
    6MOL   C774 5584   0.693   0.712   6.145 -0.2584 -0.2083  0.8329
    6MOL   C775 5585   0.777   0.813   6.192  0.5017  0.5500  0.6802
    6MOL   C776 5586   0.848   0.814   6.314  1.1538  0.1817 -0.3137
    6MOL   C777 5587   0.831   0.706   6.396 -0.1208  0.0883  0.0715
    6MOL   C778 5588   0.909   0.718   6.529 -0.3975 -0.2328  0.3953
    6MOL   N779 5589   1.050   0.705   6.507 -0.6567 -0.3632 -0.0007
    6MOL   C780 5590   1.108   0.584   6.499  0.4724  0.4015  0.0796
    6MOL   O781 5591   1.044   0.479   6.496  0.0733  0.5431 -0.0345
    6MOL   C782 5592   1.258   0.576   6.493 -0.4234  0.1533  0.3015
    6MOL   C783 5593   1.324   0.436   6.452 -0.5601 -0.2114 -0.1059
    6MOL   C784 5594   1.470   0.447   6.467 -0.2333  0.1946 -0.3147
    6MOL   C785 5595   1.536   0.321   6.412  0.2920 -0.3547 -0.4147
    6MOL   C786 5596   1.690   0.329   6.414  0.5697 -0.5760 -0.4131
    6MOL   C787 5597   1.742   0.464   6.357 -0.0578 -0.9199  0.5747
    6MOL   C788 5598   1.893   0.464   6.323 -0.0472 -0.8871  0.1923
    6MOL   C789 5599   1.953   0.593   6.259  0.0163 -0.5585  0.0371
    6MOL   C790 5600   1.902   0.614   6.114 -0.3084 -0.8195 -0.0491
    6MOL   O791 5601   1.802   0.680   6.100  0.1337  0.2704 -0.0237
    6MOL   H792 5602   0.578   0.557   6.602  0.7744 -1.0069  0.0822
    6MOL   H793 5603   0.790   0.469   6.525 -0.5815  1.3884  1.8156
    6MOL   H794 5604   0.695   0.395   6.394  0.7702 -1.4193  1.7169
    6MOL   H795 5605   0.607   0.519   6.205 -1.1966 -0.0207  0.6146
    6MOL   H796 5606   0.641   0.716   6.051 -1.3476  0.4645  1.4587
    6MOL   H797 5607   0.803   0.890   6.121  0.1506  1.7107  1.8126
    6MOL   H798 5608   0.921   0.890   6.338  1.0001  0.2214  0.0193
    6MOL   H799 5609   0.874   0.656   6.612  0.5169  0.5381  1.3740
    6MOL   H800 5610   0.886   0.817   6.568 -0.6938 -1.0317  2.3056
    6MOL   H801 5611   1.103   0.791   6.504 -2.1866  0.6864  1.6840
    6MOL   H802 5612   1.306   0.612   6.584 -0.8077 -0.6544  0.8314
    6MOL   H803 5613   1.286   0.655   6.423  3.6686 -1.5753 -0.1206
    6MOL   H804 5614   1.292   0.418   6.349 -0.2606  0.4722 -0.3167
    6MOL   H805 5615   1.286   0.351   6.510  0.2111 -0.4153  0.1107
    6MOL   H806 5616   1.493   0.462   6.573 -0.2553 -0.0574 -0.2753
    6MOL   H807 5617   1.493   0.539   6.413  1.3477  1.1756  1.9702
    6MOL   H808 5618   1.494   0.230   6.454  0.7607  1.0903  3.3831
    6MOL   H809 5619   1.514   0.325   6.305  1.5773 -0.7383 -0.6998
    6MOL   H810 5620   1.717   0.316   6.519 -0.2409 -2.8880 -0.4651
    6MOL   H811 5621   1.729   0.239   6.367 -0.3449 -1.9612  1.3953
    6MOL   H812 5622   1.727   0.541   6.433  0.1251  2.1180 -2.3511
    6MOL   H813 5623   1.688   0.498   6.269  2.6616 -1.1450 -1.2422
    6MOL   H814 5624   1.895   0.387   6.246  2.8130  0.0623 -0.7620
    6MOL   H815 5625   1.968   0.428   6.394  0.2454 -1.2999 -0.3208
    6MOL   H816 5626   2.062   0.593   6.262 -0.0016 -2.5397  1.3242
    6MOL   H817 5627   1.942   0.682   6.321  1.4740 -2.1012  2.5750
    6MOL   N818 5628   1.972   0.554   6.011 -0.2246 -0.0730 -0.8122
    6MOL   C819 5629   2.085   0.472   6.025 -0.1240  0.0128  0.3280
    6MOL   C820 5630   2.217   0.539   5.981 -0.0022  0.1573 -0.3897
    6MOL   C821 5631   2.217   0.666   5.918  0.1515 -0.4174  0.2266
    6MOL   C822 5632   2.337   0.730   5.873  0.8589 -0.2343  0.1656
    6MOL   C823 5633   2.457   0.664   5.895  0.7646  0.2780 -0.6853
    6MOL   C824 5634   2.461   0.538   5.953  0.2055  0.3345  0.3412
    6MOL   C825 5635   2.343   0.470   5.989 -0.0118 -0.0919 -0.5718
    6MOL   C826 5636   2.355   0.329   6.046 -0.4434  0.3441  0.1001
    6MOL   N827 5637   2.356   0.319   6.195  0.2677 -0.8843 -0.0338
    6MOL   C828 5638   2.263   0.261   6.271 -0.3292  0.7934 -0.3926
    6MOL   O829 5639   2.174   0.191   6.226  0.0832  0.1276  0.5057
    6MOL   C830 5640   2.288   0.270   6.427  0.5260 -0.4620  0.2151
    6MOL   C831 5641   2.246   0.142   6.506  0.5760 -0.1384  0.1698
    6MOL   C832 5642   2.339   0.020   6.486  0.8288 -0.7649  0.4869
    6MOL   C833 5643   2.476   0.055   6.550 -0.1572 -0.2372 -0.7313
    6MOL   C834 5644   2.572   7.727   6.567 -0.0246 -0.2080 -0.1661
    6MOL   C835 5645   2.642   7.678   6.435  0.1240  0.1816  0.6540
    6MOL   C836 5646   2.738   7.565   6.466  0.2382  0.5616  0.7354
    6MOL   C837 5647   2.798   7.498   6.340 -0.0455 -0.4852  0.1612
    6MOL   C838 5648   2.914   7.572   6.272 -0.2580 -0.0659  0.5456
    6MOL   O839 5649   2.963   7.671   6.323 -0.5481 -0.1887  0.5153
    6MOL   H840 5650   1.935   0.572   5.919 -0.5741  0.0544 -0.6484
    6MOL   H841 5651   2.093   0.427   6.124 -0.2817 -0.7218  0.0089
    6MOL   H842 5652   2.072   0.390   5.954 -3.0900  0.4474  0.2916
    6MOL   H843 5653   2.124   0.720   5.907  0.1270 -0.4850  0.0980
    6MOL   H844 5654   2.333   0.830   5.833 -1.3800 -0.6289 -0.6398
    6MOL   H845 5655   2.548   0.713   5.861  2.5941 -1.2792  1.7884
    6MOL   H846 5656   2.559   0.496   5.969  0.5875  0.8783 -0.5557
    6MOL   H847 5657   2.434   0.266   6.007  0.3844  1.1404  0.4630
    6MOL   H848 5658   2.256   0.288   6.024  0.9039 -1.7082 -2.3017
    6MOL   H849 5659   2.422   0.372   6.250  0.2742 -2.4767  1.5420
    6MOL   H850 5660   2.250   0.354   6.484 -0.7213 -0.1075 -1.0906
    6MOL   H851 5661   2.393   0.293   6.442 -0.2336  2.4814  1.2947
    6MOL   H852 5662   2.139   0.134   6.489  0.8398 -0.2462 -1.4783
    6MOL   H853 5663   2.240   0.175   6.610  0.7834  2.1221 -0.5015
    6MOL   H854 5664   2.359   7.776   6.384  1.0208  0.6337  0.0465
    6MOL   H855 5665   2.294   7.723   6.534 -1.2597 -0.6694 -1.2536
    6MOL   H856 5666   2.525   0.135   6.493  0.7010 -0.0498  0.2548
    6MOL   H857 5667   2.468   0.097   6.650 -0.8923  0.1814 -0.9648
    6MOL   H858 5668   2.662   7.768   6.614  0.5646  0.1842 -1.5965
    6MOL   H859 5669   2.534   7.652   6.635  1.4082 -1.7874 -1.0619
    6MOL   H860 5670   2.692   7.764   6.389  0.3445 -1.0836 -1.5521
    6MOL   H861 5671   2.559   7.644   6.373 -0.8701  1.4623  1.2647
    6MOL   H862 5672   2.686   7.485   6.518 -2.1809 -0.3933 -2.9149
    6MOL   H863 5673   2.812   7.610   6.532 -1.5767  1.4366  2.2080
    6MOL   H864 5674   2.843   7.405   6.374  0.7986  0.1295  0.7583
    6MOL   H865 5675   2.721   7.477   6.265 -0.2569 -1.0002  0.5156
    6MOL   N866 5676   2.945   7.513   6.156  0.5126 -0.0891 -0.7879
    6MOL   C867 5677   3.057   7.558   6.069  0.8833 -0.2349 -0.1592
    6MOL   C868 5678   3.198   7.560   6.137  0.1815  0.3560 -0.1427
    6MOL   C869 5679   3.219   7.474   6.246  0.2214  0.3276  0.1582
    6MOL   C870 5680   3.350   7.455   6.292  0.0393  0.4287  0.7117
    6MOL   C871 5681   3.463   7.516   6.233 -0.7845 -0.4490 -0.3483
    6MOL   C872 5682   3.437   7.614   6.135 -0.0438 -0.6489  0.4927
    6MOL   C873 5683   3.304   7.636   6.082  0.3953 -0.2799  0.7886
    6MOL   C874 5684   3.271   7.731   5.957 -0.4838  0.9096 -0.2761
    6MOL   N875 5685   3.388   7.786   5.901 -0.6030  0.4950  0.1320
    6MOL   C876 5686   3.419   0.014   5.772 -0.1661  0.1253  0.1620
    6MOL   O877 5687   3.339   7.784   5.682 -0.4876 -0.4210 -0.1359
    6MOL   C878 5688   3.564   0.008   5.732 -0.0648  0.1424 -0.2892
    6MOL   C879 5689   3.614   7.679   5.642 -0.0695 -0.4897 -0.2792
    6MOL   C880 5690   3.616   7.552   5.732  0.3873  0.5163 -0.1907
    6MOL   C881 5691   3.692   7.435   5.668 -0.2243  0.0288  0.3691
    6MOL   C882 5692   3.639   7.380   5.536 -0.2510 -0.8294  0.1191
    6MOL   C883 5693   3.746   7.294   5.465  0.1254  0.1966 -0.0349
    6MOL   C884 5694   3.690   7.210   5.338  0.4902  0.1296  0.5403
    6MOL   C885 5695   3.798   7.132   5.259 -0.2962  0.4247 -0.4102
    6MOL   C886 5696   3.888   7.048   5.352 -0.1652 -0.1836 -0.2323
    6MOL   O887 5697   3.839   6.943   5.398  0.4354 -0.3418 -0.1009
    6MOL   H888 5698   2.886   7.434   6.135 -0.7360 -0.1695  2.7577
    6MOL   H889 5699   3.061   7.485   5.988 -0.0470 -0.4759  0.0069
    6MOL   H890 5700   3.023   7.654   6.028  2.6933  0.2650 -0.5481
    6MOL   H891 5701   3.141   7.422   6.298  0.4462  0.6769  0.8573
    6MOL   H892 5702   3.369   7.380   6.367  1.1635  1.8387  1.8478
    6MOL   H893 5703   3.562   7.491   6.268 -1.0826 -2.3233 -0.7531
    6MOL   H894 5704   3.525   7.651   6.085  1.0846 -0.7179  2.3883
    6MOL   H895 5705   3.207   0.026   5.984 -1.3331  0.1119  0.2425
    6MOL   H896 5706   3.210   7.672   5.888 -0.6342 -0.2605  0.8409
    6MOL   H897 5707   3.465   0.016   5.964 -1.5369  1.9361  0.8464
    6MOL   H898 5708   3.632   0.022   5.817  1.6333  1.4986 -1.8080
    6MOL   H899 5709   3.580   0.107   5.687 -0.4993  0.8249  1.0277
    6MOL   H900 5710   3.708   7.698   5.591  0.0283 -2.3662 -0.8024
    6MOL   H901 5711   3.540   7.663   5.565 -0.4119 -3.2335  0.5839
    6MOL   H902 5712   3.642   7.573   5.835 -0.0140  0.4810 -0.0787
    6MOL   H903 5713   3.512   7.524   5.750  0.7156 -0.4098  0.3208
    6MOL   H904 5714   3.791   7.478   5.650 -0.7233  0.6804 -0.8798
    6MOL   H905 5715   3.720   7.357   5.739  0.5785  0.6628  0.7590
    6MOL   H906 5716   3.555   7.315   5.558 -0.9352 -0.0272 -0.1008
    6MOL   H907 5717   3.589   7.459   5.480  0.6008  0.3025  0.9270
    6MOL   H908 5718   3.800   7.234   5.537  1.6946  1.3353 -0.2325
    6MOL   H909 5719   3.823   7.365   5.434  0.4111 -0.2853 -0.4510
    6MOL   H910 5720   3.614   7.140   5.373 -0.0319 -0.3942 -1.5472
    6MOL   H911 5721   3.651   7.288   5.273  0.3127 -0.3899  0.0161
    6MOL   H912 5722   3.760   7.052   5.195  1.5929  0.2326 -1.3110
    6MOL   H913 5723   3.860   7.205   5.207  1.1401  1.5273  2.7546
    6MOL   N914 5724   4.003   7.102   5.389  0.3009  0.3866  0.3894
    6MOL   C915 5725   4.101   7.041   5.476 -0.8351 -0.6888 -0.6474
    6MOL   C916 5726   4.249   7.038   5.424 -0.3992 -0.2352  0.3700
    6MOL   C917 5727   4.272   7.089   5.292 -0.1509  0.1514  0.4151
    6MOL   C918 5728   4.399   7.099   5.238  0.4327 -0.1062  0.0595
    6MOL   C919 5729   4.507   7.063   5.319 -0.3384  0.2259 -0.4281
    6MOL   C920 5730   4.499   7.022   5.453  1.1685  0.6356  0.5981
    6MOL   C921 5731   4.367   7.016   5.508  0.5094  0.5612  0.2289
    6MOL   C922 5732   4.350   7.020   5.661 -0.9321 -0.0953 -0.7659
    6MOL   N923 5733   4.433   6.930   5.738 -0.0102 -0.1794 -0.2921
    6MOL   C924 5734   4.396   6.804   5.770 -0.3342  0.3283 -0.1737
    6MOL   O925 5735   4.287   6.752   5.728  0.3863 -0.0861  0.5518
    6MOL   C926 5736   4.493   6.721   5.860  0.1842  0.2559  1.1030
    6MOL   C927 5737   4.448   6.690   6.002 -0.1001 -0.1262 -0.0963
    6MOL   C928 5738   4.394   6.808   6.083  0.1104  0.3123 -0.1912
    6MOL   C929 5739   4.355   6.766   6.226  0.0794  0.2563  0.5640
    6MOL   C930 5740   4.297   6.883   6.306  0.1256  0.5017 -0.0384
    6MOL   C931 5741   4.373   6.922   6.425  0.6912  0.3495  0.2105
    6MOL   C932 5742   4.508   6.985   6.400 -0.5109 -0.5560 -0.6850
    6MOL   C933 5743   4.590   7.015   6.519 -0.3252 -0.0043  0.3502
    6MOL   C934 5744   4.720   7.075   6.465  0.2167  0.4512 -0.9596
    6MOL   O935 5745   4.728   7.192   6.420  0.4683 -0.3648 -0.2372
    6MOL   H936 5746   4.025   7.187   5.339 -0.1572 -0.9869 -2.2482
    6MOL   H937 5747   4.098   7.103   5.566  0.1625 -1.4540 -0.0849
    6MOL   H938 5748   4.062   6.944   5.505  1.5843 -1.5187 -0.1049
    6MOL   H939 5749   4.194   7.131   5.229 -0.2603 -1.2282 -0.3836
    6MOL   H940 5750   4.405   7.136   5.137  0.4300  0.4901  0.2796
    6MOL   H941 5751   4.608   7.071   5.281 -0.2068  3.1231  0.3545
    6MOL   H942 5752   4.580   7.001   5.521 -0.0911  2.0376  2.5900
    6MOL   H943 5753   4.248   7.003   5.697 -0.0005 -0.0136  2.0051
    6MOL   H944 5754   4.371   7.119   5.699 -0.9212  0.2304 -1.6196
    6MOL   H945 5755   4.513   6.970   5.785 -0.9497 -1.0510  2.1092
    6MOL   H946 5756   4.581   6.783   5.876 -0.3956  1.1053  0.9979
    6MOL   H947 5757   4.527   6.628   5.815 -1.2737  0.5693 -0.6960
    6MOL   H948 5758   4.527   6.632   6.051 -0.3517 -1.4524 -1.1998
    6MOL   H949 5759   4.369   6.615   5.997 -1.5100  1.3540 -0.4167
    6MOL   H950 5760   4.469   6.886   6.098 -0.7798  0.9525  1.0558
    6MOL   H951 5761   4.303   6.852   6.043  0.0165  1.2530  1.0300
    6MOL   H952 5762   4.280   6.687   6.220 -0.2041  0.4591  1.4216
    6MOL   H953 5763   4.445   6.725   6.272  0.0078 -1.2939 -0.6251
    6MOL   H954 5764   4.198   6.851   6.339  0.8820 -0.8207  0.9651
    6MOL   H955 5765   4.275   6.968   6.241 -1.7409 -1.0348 -1.5096
    6MOL   H956 5766   4.312   7.001   6.469  0.3310  1.7383 -2.6857
    6MOL   H957 5767   4.372   6.840   6.497 -2.6305 -0.5063 -0.7299
    6MOL   H958 5768   4.499   7.078   6.345  1.2858  1.4333  2.2381
    6MOL   H959 5769   4.557   6.911   6.337  2.6233 -0.3819  1.4160
    6MOL   H960 5770   4.607   6.929   6.583 -0.6088  0.5273  1.1438
    6MOL   H961 5771   4.539   7.095   6.572 -0.9808  0.0034 -0.2780
    6MOL   H962 5772   4.805   7.006   6.466  1.3523  1.7842  1.4387
    7MOL     N1 5773   6.491   5.278   1.930 -0.3044  0.1631 -0.4894
    7MOL     C2 5774   6.626   5.319   1.911 -0.0660 -0.2149 -0.2338
    7MOL     C3 5775   6.658   5.338   1.757 -0.1798  0.2960  0.1835
    7MOL     C4 5776   6.748   5.235   1.707  0.3697  0.4218 -0.5243
    7MOL     C5 5777   6.762   5.216   1.567  1.1023  0.1556  0.2004
    7MOL     C6 5778   6.702   5.319   1.484 -0.3987  0.4701  0.3525
    7MOL     C7 5779   6.624   5.431   1.534 -0.2666  0.3467 -0.1497
    7MOL     C8 5780   6.606   5.440   1.677 -0.4051 -0.1258  0.1875
    7MOL     C9 5781   6.520   5.551   1.733 -0.5286 -0.7571  0.0599
    7MOL    N10 5782   6.486   5.654   1.642 -0.9429  0.5047  0.2946
    7MOL    C11 5783   6.497   5.784   1.667 -0.1911  0.4420  0.5937
    7MOL    O12 5784   6.535   5.827   1.777  0.3108  0.0030  0.8189
    7MOL    C13 5785   6.478   5.887   1.553 -0.3157 -0.1268 -0.8140
    7MOL    C14 5786   6.581   5.995   1.561 -0.1043 -0.7444  0.0033
    7MOL    C15 5787   6.587   6.073   1.430  0.1592  0.1589  0.5525
    7MOL    C16 5788   6.700   6.177   1.436 -0.6129 -0.6538 -0.3186
    7MOL    C17 5789   6.734   6.244   1.301 -0.0389 -0.8275 -0.0118
    7MOL    C18 5790   6.609   6.310   1.236  0.0423 -0.2214 -0.2457
    7MOL    C19 5791   6.635   6.427   1.152 -0.0425  0.2443 -0.1542
    7MOL    C20 5792   6.716   6.404   1.026 -0.3660 -1.0121 -0.0255
    7MOL    C21 5793   6.867   6.378   1.041 -0.3029 -0.3993  0.6812
    7MOL    O22 5794   6.930   6.442   1.128 -0.0059 -0.3503 -0.2230
    7MOL    H23 5795   6.485   5.210   2.004 -0.8037  2.9687  2.1395
    7MOL    H24 5796   6.642   5.412   1.965  1.0009  0.7718 -2.1680
    7MOL    H25 5797   6.695   5.246   1.951 -0.3110  0.4584  1.4470
    7MOL    H26 5798   6.791   5.155   1.764 -1.4472 -0.7292 -0.7351
    7MOL    H27 5799   6.819   5.134   1.524  3.1026  1.8894 -0.5222
    7MOL    H28 5800   6.713   5.298   1.379  3.3384 -1.2224  0.9936
    7MOL    H29 5801   6.579   5.497   1.461 -0.0500 -0.3135 -0.8955
    7MOL    H30 5802   6.584   5.597   1.808  0.9482 -3.0816  0.2877
    7MOL    H31 5803   6.427   5.511   1.775 -1.3075 -1.3044 -2.1082
    7MOL    H32 5804   6.470   5.626   1.546  2.1617 -0.9108  0.1316
    7MOL    H33 5805   6.378   5.927   1.537 -0.0151  1.1500  0.4023
    7MOL    H34 5806   6.512   5.838   1.462  2.6987 -1.7143  1.0647
    7MOL    H35 5807   6.680   5.962   1.592 -0.7505 -0.9857  1.8481
    7MOL    H36 5808   6.554   6.066   1.639  1.3503  0.8443 -0.9167
    7MOL    H37 5809   6.593   6.008   1.343  2.8365  0.1157  0.6984
    7MOL    H38 5810   6.494   6.126   1.412  0.3530  0.5458  0.6700
    7MOL    H39 5811   6.661   6.250   1.508 -0.3392  0.3099 -1.1465
    7MOL    H40 5812   6.794   6.146   1.482 -0.0440 -0.2435 -1.1940
    7MOL    H41 5813   6.795   6.332   1.319 -0.1192 -0.0670 -3.2404
    7MOL    H42 5814   6.783   6.185   1.223 -1.5413 -0.7844 -1.0161
    7MOL    H43 5815   6.536   6.344   1.309 -1.0408  0.4563 -1.6211
    7MOL    H44 5816   6.555   6.242   1.170 -0.6701  1.8004 -1.7746
    7MOL    H45 5817   6.534   6.459   1.123 -0.3310 -1.0882 -0.6656
    7MOL    H46 5818   6.682   6.515   1.196  1.2188 -0.1600 -0.6718
    7MOL    H47 5819   6.707   6.492   0.964  1.4420 -0.2359  0.7746
    7MOL    H48 5820   6.681   6.319   0.967  0.9751 -1.4127 -0.2594
    7MOL    H49 5821   6.433   5.348   1.973  0.9924 -0.3969  2.2588
    7MOL    N50 5822   6.941   6.314   0.952  0.1013 -0.0870  0.3238
    7MOL    C51 5823   7.079   6.276   0.960 -0.2571  0.5873  0.3508
    7MOL    C52 5824   7.106   6.157   0.876  0.2265 -0.0844 -0.7483
    7MOL    C53 5825   7.113   6.026   0.939  1.1196 -0.2466  0.6546
    7MOL    C54 5826   7.123   5.909   0.860 -0.2917 -0.0913 -0.6521
    7MOL    C55 5827   7.125   5.924   0.719  0.6812 -0.2967 -0.1458
    7MOL    C56 5828   7.117   6.050   0.654 -0.8254  0.1433  0.2663
    7MOL    C57 5829   7.109   6.167   0.731 -0.1394  0.7510  0.4027
    7MOL    C58 5830   7.113   6.298   0.657  0.0206 -0.4339 -0.1676
    7MOL    N59 5831   7.004   6.301   0.563  0.1891 -0.4602 -0.4605
    7MOL    C60 5832   6.961   6.401   0.485  0.2127 -0.5225  0.0362
    7MOL    O61 5833   7.035   6.497   0.451  0.0129  0.4228 -0.1194
    7MOL    C62 5834   6.819   6.388   0.427 -0.7972 -0.0266  0.5021
    7MOL    C63 5835   6.811   6.417   0.275 -0.2944 -0.4861  0.7063
    7MOL    C64 5836   6.885   6.320   0.180 -0.4333 -0.4132 -0.2310
    7MOL    C65 5837   6.864   6.336   0.027 -0.4067  0.4125 -0.0667
    7MOL    C66 5838   6.881   6.476   7.767 -0.2878 -0.2094  1.0711
    7MOL    C67 5839   7.021   6.523   0.003  0.4205  0.5141 -0.2300
    7MOL    C68 5840   7.033   6.657   7.721  0.0007 -0.0818 -0.2839
    7MOL    C69 5841   7.176   6.704   7.700  0.7407 -0.0254  0.0019
    7MOL    C70 5842   7.232   6.618   7.586 -0.8079  0.1795 -0.1875
    7MOL    O71 5843   7.190   6.628   7.473 -0.5603  0.0768  0.0699
    7MOL    H72 5844   6.882   6.274   0.881  0.1095 -0.8402  0.7335
    7MOL    H73 5845   7.094   6.258   1.067  1.6243 -1.3609 -0.2167
    7MOL    H74 5846   7.152   6.349   0.926  1.2208 -0.0024  2.1399
    7MOL    H75 5847   7.098   6.013   1.045  1.8080  0.9059  0.8989
    7MOL    H76 5848   7.135   5.814   0.909  0.7011  0.4287  0.1530
    7MOL    H77 5849   7.127   5.835   0.657  0.7036 -1.0068  0.8727
    7MOL    H78 5850   7.124   6.062   0.547  0.7314  1.5899  0.5027
    7MOL    H79 5851   7.199   6.315   0.592  0.2879  0.1597  0.3326
    7MOL    H80 5852   7.111   6.396   0.705 -1.6441 -1.0073  0.9549
    7MOL    H81 5853   6.922   6.244   0.580 -0.6136  0.2348 -1.8735
    7MOL    H82 5854   6.755   6.462   0.474  1.6767  2.7273 -0.3000
    7MOL    H83 5855   6.788   6.288   0.457 -1.7286  0.3379  0.7800
    7MOL    H84 5856   6.850   6.517   0.256 -0.0327 -0.4995  1.1766
    7MOL    H85 5857   6.709   6.422   0.235 -0.2852  1.6912  0.8892
    7MOL    H86 5858   6.991   6.330   0.202  0.1883 -2.2395 -2.2115
    7MOL    H87 5859   6.859   6.217   0.207 -3.3169  0.3675  0.1049
    7MOL    H88 5860   6.934   6.272   7.763 -0.5591 -1.3509  1.7769
    7MOL    H89 5861   6.767   6.294   7.790 -2.0691  2.8653  1.8925
    7MOL    H90 5862   6.841   6.486   7.666  0.4002 -1.7940  0.6164
    7MOL    H91 5863   6.815   6.540   0.035 -0.6181  2.2104 -1.9038
    7MOL    H92 5864   7.091   6.446   7.760 -0.6368 -0.0533 -1.1755
    7MOL    H93 5865   7.038   6.532   0.110  0.0055 -0.7500 -0.0550
    7MOL    H94 5866   6.982   6.741   7.766  0.3300  0.6932 -1.3363
    7MOL    H95 5867   6.988   6.653   7.622  0.1013  1.6092 -0.4110
    7MOL    H96 5868   7.236   6.719   7.789 -1.0198 -0.7944  1.3465
    7MOL    H97 5869   7.167   6.807   7.664  1.6491  0.4173  1.0123
    7MOL    N98 5870   7.325   6.521   7.617  0.0806  0.2741 -0.1511
    7MOL    C99 5871   7.400   6.450   7.514  0.4365  0.1650 -0.3319
    7MOL   C100 5872   7.350   6.305   7.500 -0.3000  0.4815  0.0982
    7MOL   C101 5873   7.211   6.281   7.483 -0.0108  0.2034  0.3403
    7MOL   C102 5874   7.171   6.153   7.450 -0.1265 -0.4041 -0.1867
    7MOL   C103 5875   7.260   6.049   7.435  0.2722  0.1003  0.3630
    7MOL   C104 5876   7.401   6.073   7.449  0.1744 -0.0983  0.3477
    7MOL   C105 5877   7.450   6.200   7.483  0.0198 -0.0978  0.4227
    7MOL   C106 5878   7.600   6.214   7.498  0.5959  0.1975  0.7299
    7MOL   N107 5879   7.624   6.229   7.634 -0.3099 -0.0761  0.2213
    7MOL   C108 5880   7.746   6.229   7.690 -0.1656  0.2494  0.0517
    7MOL   O109 5881   0.062   6.237   7.628  0.2645  0.1166  0.1634
    7MOL   C110 5882   7.738   6.224   0.055  0.5690 -0.6531 -0.5611
    7MOL   C111 5883   0.045   6.116   0.113  0.4235  0.0169  0.3548
    7MOL   C112 5884   0.034   6.110   0.265  0.6040 -0.2763  0.4141
    7MOL   C113 5885   0.093   5.993   0.338 -0.4410  0.9639  0.5078
    7MOL   C114 5886   0.242   5.984   0.324 -0.2178 -0.2185 -0.1724
    7MOL   C115 5887   0.294   5.845   0.348  0.2977  0.3686  0.4779
    7MOL   C116 5888   0.444   5.862   0.391  0.3225 -0.4180  0.1124
    7MOL   C117 5889   0.512   5.727   0.438 -0.5435  0.6936  0.5155
    7MOL   C118 5890   0.531   5.611   0.341  0.0737 -0.3716  0.2627
    7MOL   O119 5891   0.463   5.599   0.238  0.2608  0.3511 -0.6058
    7MOL   H120 5892   7.358   6.508   7.712  0.0473 -0.4645 -0.2412
    7MOL   H121 5893   7.393   6.486   7.411 -2.8461  0.5690 -0.0401
    7MOL   H122 5894   7.504   6.455   7.544  0.0884 -0.6652  1.0444
    7MOL   H123 5895   7.141   6.363   7.485 -0.2701 -0.0128  0.2313
    7MOL   H124 5896   7.067   6.135   7.428 -0.0629 -1.9457  0.6690
    7MOL   H125 5897   7.227   5.951   7.402 -0.0358 -0.0374  1.0720
    7MOL   H126 5898   7.461   5.983   7.436 -0.4885 -0.5496  0.3787
    7MOL   H127 5899   7.650   6.302   7.456  0.8093 -1.0903 -1.8333
    7MOL   H128 5900   7.658   6.130   7.460  1.7099  0.3015  2.1681
    7MOL   H129 5901   7.541   6.241   7.691 -0.2079 -1.5333  0.6931
    7MOL   H130 5902   7.635   6.210   0.087  0.8976  0.3959  1.0231
    7MOL   H131 5903   7.763   6.327   0.079  0.3314 -0.7498  0.1401
    7MOL   H132 5904   0.148   6.143   0.087  0.8565 -1.4806  0.4836
    7MOL   H133 5905   0.013   6.019   0.076  0.1418  0.1296  0.2999
    7MOL   H134 5906   0.082   6.199   0.306 -1.3024  0.7889  0.3962
    7MOL   H135 5907   7.718   6.114   0.289  0.5049 -0.7138  0.0502
    7MOL   H136 5908   0.065   5.982   0.443 -0.3068 -0.1342  0.4368
    7MOL   H137 5909   0.048   5.905   0.291  1.4758  1.1400 -1.7644
    7MOL   H138 5910   0.284   6.019   0.229 -1.4427  2.4967  0.2458
    7MOL   H139 5911   0.278   6.049   0.404 -0.1262  1.3898 -1.4974
    7MOL   H140 5912   0.285   5.789   0.255 -0.9438  0.4231  0.5613
    7MOL   H141 5913   0.234   5.799   0.427 -3.1350  3.9355  0.0687
    7MOL   H142 5914   0.502   5.907   0.311 -2.5280  0.8657 -1.3015
    7MOL   H143 5915   0.450   5.932   0.475 -1.8479  0.1481 -0.1749
    7MOL   H144 5916   0.463   5.687   0.526 -0.2395 -1.6307 -0.3489
    7MOL   H145 5917   0.613   5.757   0.468 -0.6612  1.3487  0.2886
    7MOL   N146 5918   0.630   5.528   0.375 -0.4385  0.2925  0.3005
    7MOL   C147 5919   0.650   5.397   0.314  0.2878  0.0714  0.5053
    7MOL   C148 5920   0.585   5.281   0.378  0.4335 -0.2583 -0.3430
    7MOL   C149 5921   0.471   5.303   0.468 -0.1860  0.0485 -0.3687
    7MOL   C150 5922   0.420   5.200   0.539 -0.2479  0.2075  0.2305
    7MOL   C151 5923   0.456   5.068   0.517 -0.0897  0.1543 -0.4474
    7MOL   C152 5924   0.563   5.040   0.428 -0.6979  0.0110  0.1398
    7MOL   C153 5925   0.630   5.147   0.365 -0.2925  0.0768  0.1216
    7MOL   C154 5926   0.758   5.123   0.279 -0.1527  0.0959  0.3881
    7MOL   N155 5927   0.819   4.990   0.285 -0.1642  0.3390 -0.0662
    7MOL   C156 5928   0.781   4.898   0.201  0.0365  0.1851  0.0998
    7MOL   O157 5929   0.728   4.924   0.093  1.1055  0.0207  0.4328
    7MOL   C158 5930   0.813   4.757   0.236 -0.4514  0.5356 -0.3650
    7MOL   C159 5931   0.692   4.669   0.203 -0.0059 -0.3210 -0.5253
    7MOL   C160 5932   0.716   4.533   0.254 -0.5533 -0.5961 -0.4605
    7MOL   C161 5933   0.594   4.444   0.221  0.1156 -0.0281  0.1323
    7MOL   C162 5934   0.601   4.306   0.295 -0.5576  0.1115  0.1560
    7MOL   C163 5935   0.488   4.219   0.249  0.1591  0.1439  0.3376
    7MOL   C164 5936   0.514   4.067   0.270 -0.9428 -0.6241 -0.4765
    7MOL   C165 5937   0.521   4.035   0.420 -0.0568  1.4891 -0.9654
    7MOL   C166 5938   0.529   3.885   0.449 -0.0212 -0.8150 -0.1248
    7MOL   O167 5939   0.476   3.803   0.376 -0.0141  0.1476 -0.4934
    7MOL   H168 5940   0.682   5.549   0.459 -0.7698  1.7029  0.1772
    7MOL   H169 5941   0.759   5.386   0.314  0.2654 -0.3561 -1.8063
    7MOL   H170 5942   0.605   5.406   0.215  0.6530 -2.7600  0.0243
    7MOL   H171 5943   0.431   5.402   0.484  2.4491  1.0048  0.5641
    7MOL   H172 5944   0.344   5.239   0.605  0.2042  2.8012 -0.7582
    7MOL   H173 5945   0.411   4.981   0.562 -0.2280 -0.4951 -1.8216
    7MOL   H174 5946   0.594   4.937   0.420 -0.8535  0.0730 -1.2699
    7MOL   H175 5947   0.824   5.205   0.307 -2.4291  1.4986  1.8514
    7MOL   H176 5948   0.713   5.157   0.186  0.7752 -0.3923 -0.2450
    7MOL   H177 5949   0.879   4.971   0.363 -1.9904  1.8070  1.7406
    7MOL   H178 5950   0.853   4.746   0.337 -2.5751 -0.9075  0.3480
    7MOL   H179 5951   0.897   4.720   0.176 -1.5011 -1.7770 -0.4681
    7MOL   H180 5952   0.673   4.665   0.096  0.0452 -1.0509 -0.5097
    7MOL   H181 5953   0.603   4.708   0.252 -1.6590 -2.8657 -1.4435
    7MOL   H182 5954   0.808   4.492   0.215 -0.5207 -0.9778  0.0084
    7MOL   H183 5955   0.729   4.556   0.360  2.1044 -0.4321 -0.7841
    7MOL   H184 5956   0.512   4.505   0.259 -0.8352 -0.8132 -0.6609
    7MOL   H185 5957   0.578   4.438   0.114  1.3851  0.1535 -0.0813
    7MOL   H186 5958   0.699   4.263   0.274 -1.7809 -1.1087 -3.3038
    7MOL   H187 5959   0.601   4.326   0.403  0.6322  0.7940  0.0400
    7MOL   H188 5960   0.472   4.235   0.143 -1.4707 -1.6192  0.2859
    7MOL   H189 5961   0.403   4.250   0.311  0.0754 -2.2334  1.4691
    7MOL   H190 5962   0.437   4.023   0.207 -1.3302  0.6848 -0.9364
    7MOL   H191 5963   0.609   4.044   0.223 -0.9950 -0.2278 -0.7788
    7MOL   H192 5964   0.429   4.070   0.465  0.5883 -1.5880  3.0022
    7MOL   H193 5965   0.598   4.084   0.479  1.9287 -2.8483  0.3231
    7MOL   N194 5966   0.593   3.851   0.564  0.2936 -0.2380 -0.7060
    7MOL   C195 5967   0.611   3.713   0.610 -0.5707  0.6848  0.4485
    7MOL   C196 5968   0.500   3.668   0.707 -0.6184  1.3793 -0.2394
    7MOL   C197 5969   0.438   3.765   0.790  0.3940  0.0955  0.2466
    7MOL   C198 5970   0.339   3.736   0.882  0.1111 -0.0159 -0.2860
    7MOL   C199 5971   0.312   3.605   0.911  0.4133 -0.2462  0.1531
    7MOL   C200 5972   0.379   3.498   0.846  0.0097 -0.4275  0.6344
    7MOL   C201 5973   0.474   3.529   0.742  0.5920  0.6895  0.1838
    7MOL   C202 5974   0.544   3.415   0.665 -0.2452  0.1719  0.7410
    7MOL   N203 5975   0.510   3.422   0.527 -0.3654 -0.5934 -0.2996
    7MOL   C204 5976   0.523   3.326   0.432 -0.0893  0.3724  0.3499
    7MOL   O205 5977   0.591   3.226   0.454 -0.2773 -0.0426 -0.3984
    7MOL   C206 5978   0.465   3.354   0.295  0.3998 -0.2466  1.0438
    7MOL   C207 5979   0.330   3.277   0.261 -0.3518 -0.0934 -0.2308
    7MOL   C208 5980   0.274   3.296   0.117 -0.0855 -0.1265  0.4411
    7MOL   C209 5981   0.375   3.305   0.004 -0.7539 -0.5190  0.9119
    7MOL   C210 5982   0.301   3.327   7.669 -0.7515 -0.2210 -0.3120
    7MOL   C211 5983   0.253   3.212   7.591  0.5120 -0.7424  0.1193
    7MOL   C212 5984   0.164   3.247   7.473 -0.1531  0.3074  0.2814
    7MOL   C213 5985   0.134   3.138   7.369  0.5413  0.4063  0.5057
    7MOL   C214 5986   0.240   3.112   7.256  0.0815 -0.1799 -0.2793
    7MOL   O215 5987   0.218   3.160   7.147  0.0989 -0.5143 -0.0754
    7MOL   H216 5988   0.629   3.920   0.628  0.6533 -0.5210 -0.5996
    7MOL   H217 5989   0.647   3.651   0.527  0.2296  1.5231  0.1532
    7MOL   H218 5990   0.701   3.722   0.671  1.2797 -0.5312 -1.9920
    7MOL   H219 5991   0.456   3.871   0.780  0.5455 -0.0638 -1.3171
    7MOL   H220 5992   0.285   3.809   0.942  1.3148  1.5838 -1.1127
    7MOL   H221 5993   0.239   3.577   0.986  2.3089 -2.4461  1.2284
    7MOL   H222 5994   0.352   3.396   0.869  1.6628 -1.1493 -0.5378
    7MOL   H223 5995   0.528   3.314   0.703 -0.9554 -0.6764 -1.7131
    7MOL   H224 5996   0.652   3.430   0.670 -0.2235 -0.4080  2.5968
    7MOL   H225 5997   0.454   3.503   0.503  2.2693  0.1984 -4.2725
    7MOL   H226 5998   0.550   3.328   0.233 -1.6675 -0.2052 -1.9286
    7MOL   H227 5999   0.447   3.461   0.280 -0.1237 -0.6241 -1.0915
    7MOL   H228 6000   0.348   3.171   0.281 -2.4820 -0.3188  0.6027
    7MOL   H229 6001   0.248   3.300   0.329 -0.4690  0.7469 -0.6570
    7MOL   H230 6002   0.196   3.220   0.103  0.5454 -1.0278  1.7543
    7MOL   H231 6003   0.213   3.386   0.125 -0.7228 -0.6425  1.4897
    7MOL   H232 6004   0.438   3.393   0.016  0.5704 -1.6782  2.7719
    7MOL   H233 6005   0.439   3.218   7.784 -0.4799 -0.1729 -0.5247
    7MOL   H234 6006   0.221   3.397   7.694 -0.0746  0.1765  0.7585
    7MOL   H235 6007   0.359   3.388   7.600  0.6062 -0.9155  0.2067
    7MOL   H236 6008   0.212   3.128   7.648  1.1768 -2.9397 -2.5201
    7MOL   H237 6009   0.350   3.180   7.553  1.3515  2.2584 -0.3294
    7MOL   H238 6010   0.208   3.328   7.415 -1.4507  1.3243  0.7067
    7MOL   H239 6011   0.076   3.292   7.520 -0.1676  0.5254  0.0471
    7MOL   H240 6012   0.116   3.046   7.424 -2.3805  0.2628 -0.6037
    7MOL   H241 6013   0.048   3.168   7.308  0.5512  0.0316  0.3092
    7MOL   N242 6014   0.338   3.025   7.273  0.3471  0.3715 -0.3143
    7MOL   C243 6015   0.421   2.969   7.172  0.0197  0.4778  0.2016
    7MOL   C244 6016   0.362   2.869   7.068 -0.3250 -0.6472 -0.1810
    7MOL   C245 6017   0.334   2.918   6.937 -0.3721  0.1829 -0.2443
    7MOL   C246 6018   0.282   2.836   6.837 -1.0658 -0.6623  0.2732
    7MOL   C247 6019   0.269   2.699   6.861  0.0797 -0.0880  0.1556
    7MOL   C248 6020   0.284   2.649   6.990  0.0679  0.2171  0.2048
    7MOL   C249 6021   0.329   2.733   7.097 -0.1058  0.1168 -0.2624
    7MOL   C250 6022   0.357   2.672   7.231  0.0886 -0.0953  0.0926
    7MOL   N251 6023   0.455   2.561   7.235  0.4785 -0.2418 -0.0993
    7MOL   C252 6024   0.586   2.581   7.247 -0.5650  0.2552  0.3060
    7MOL   O253 6025   0.636   2.687   7.278 -0.3779 -0.1872 -0.1562
    7MOL   C254 6026   0.685   2.462   7.208  0.0682  0.2161  0.0533
    7MOL   C255 6027   0.714   2.377   7.335  0.3722 -0.3624 -0.0038
    7MOL   C256 6028   0.860   2.327   7.339 -0.0446  0.5510 -0.0458
    7MOL   C257 6029   0.888   2.230   7.457 -0.0881 -0.2302  0.5093
    7MOL   C258 6030   1.038   2.230   7.496 -0.6660  0.1788  0.5323
    7MOL   C259 6031   1.134   2.164   7.386  1.1420  0.2617  0.5866
    7MOL   C260 6032   1.281   2.197   7.421 -0.3668  0.6335  0.1077
    7MOL   C261 6033   1.380   2.172   7.302 -0.0312  1.1127 -0.7137
    7MOL   C262 6034   1.416   2.022   7.277  0.9044  0.0228 -0.5324
    7MOL   O263 6035   1.335   1.940   7.234  0.5122 -0.0165  0.1701
    7MOL   H264 6036   0.354   2.979   7.362 -1.7478 -0.3600 -0.2798
    7MOL   H265 6037   0.458   3.060   7.124  0.0380  0.3515 -0.0271
    7MOL   H266 6038   0.492   2.911   7.231  1.6402  2.3597  0.1559
    7MOL   H267 6039   0.351   3.022   6.916  0.1734 -0.4475 -3.0973
    7MOL   H268 6040   0.266   2.868   6.735  1.1127 -3.2005 -0.9584
    7MOL   H269 6041   0.231   2.637   6.780  1.4564 -0.8841  0.0942
    7MOL   H270 6042   0.257   2.549   7.021 -1.4952  0.7280  0.5471
    7MOL   H271 6043   0.264   2.632   7.273  0.5848 -0.9800  0.3742
    7MOL   H272 6044   0.390   2.744   7.305  3.4195  0.4179 -1.8040
    7MOL   H273 6045   0.433   2.465   7.213  0.9045 -0.1817 -0.8063
    7MOL   H274 6046   0.778   2.505   7.170 -0.4955  0.8261 -0.6432
    7MOL   H275 6047   0.638   2.393   7.138 -1.3135 -0.3359  1.4886
    7MOL   H276 6048   0.641   2.296   7.334  2.7431 -2.5870 -1.7075
    7MOL   H277 6049   0.707   2.438   7.425  1.2343  0.0657 -0.2235
    7MOL   H278 6050   0.923   2.415   7.353  0.8533 -0.1956  0.7083
    7MOL   H279 6051   0.901   2.286   7.247 -2.1894 -1.4325 -0.1649
    7MOL   H280 6052   0.833   2.267   7.544 -0.0465 -1.5900  1.1207
    7MOL   H281 6053   0.855   2.128   7.441  2.3705 -1.2313  1.5873
    7MOL   H282 6054   1.071   2.332   7.513 -0.2167 -0.1093  1.4258
    7MOL   H283 6055   1.056   2.182   7.592  1.9646  0.1573  0.0561
    7MOL   H284 6056   1.112   2.217   7.293  1.2147  1.1843  1.0856
    7MOL   H285 6057   1.120   2.059   7.363  2.0008  0.5217 -1.3135
    7MOL   H286 6058   1.282   2.303   7.448 -0.5688  0.9406 -1.0604
    7MOL   H287 6059   1.309   2.139   7.509 -1.2209 -1.2406 -0.8341
    7MOL   H288 6060   1.336   2.221   7.215 -0.8917  1.0165 -0.3426
    7MOL   H289 6061   1.467   2.226   7.337 -0.9958  1.1808  1.7061
    7MOL   N290 6062   1.542   1.980   7.293 -0.0445  0.1092 -0.2814
    7MOL   C291 6063   1.588   1.840   7.283 -0.5199  0.2511 -0.3468
    7MOL   C292 6064   1.709   1.836   7.181  0.2293  0.4187 -0.1866
    7MOL   C293 6065   1.847   1.827   7.233  0.5514 -0.0032 -0.2230
    7MOL   C294 6066   1.955   1.827   7.148  0.4921 -0.0126 -0.5968
    7MOL   C295 6067   1.940   1.829   7.012  0.9707 -0.4234 -0.4920
    7MOL   C296 6068   1.808   1.828   6.960 -0.8866  0.0059  0.2649
    7MOL   C297 6069   1.688   1.831   7.042 -0.5542 -0.0216 -0.4201
    7MOL   C298 6070   1.547   1.841   6.977 -0.6120 -0.2406  0.1070
    7MOL   N299 6071   1.538   1.798   6.838 -0.2064  0.1492 -0.2318
    7MOL   C300 6072   1.465   1.697   6.796  0.2073 -0.9420  0.1470
    7MOL   O301 6073   1.392   1.630   6.870  0.9645  0.2132  0.3839
    7MOL   C302 6074   1.479   1.667   6.652  0.1525  0.1461  0.0394
    7MOL   C303 6075   1.457   1.519   6.611  0.0580 -0.4859 -0.2092
    7MOL   C304 6076   1.529   1.494   6.471 -0.1815 -0.1314 -0.1012
    7MOL   C305 6077   1.485   1.359   6.411 -0.6082 -0.0437  0.5951
    7MOL   C306 6078   1.333   1.331   6.410 -0.3395 -0.1195  0.4220
    7MOL   C307 6079   1.296   1.207   6.320 -0.2059 -0.6378  0.0333
    7MOL   C308 6080   1.148   1.181   6.300  0.7597 -0.2935  0.1050
    7MOL   C309 6081   1.068   1.175   6.429 -0.3096 -0.1810  0.4869
    7MOL   C310 6082   1.097   1.073   6.531 -0.9249  0.9855 -0.1436
    7MOL   O311 6083   1.151   0.969   6.487  0.5856  0.0913  0.4745
    7MOL   H312 6084   1.594   2.049   7.345 -0.2551 -0.0602  0.1531
    7MOL   H313 6085   1.642   1.811   7.373  1.2650 -1.3035 -1.8812
    7MOL   H314 6086   1.514   1.770   7.246 -0.0137 -0.8955  0.7880
    7MOL   H315 6087   1.863   1.826   7.340  2.5043  0.8660 -0.4883
    7MOL   H316 6088   2.051   1.815   7.194  0.4633 -0.7468 -0.7170
    7MOL   H317 6089   2.028   1.829   6.949 -0.2735 -2.3159 -2.3092
    7MOL   H318 6090   1.804   1.813   6.853  0.2878  0.4515  0.1503
    7MOL   H319 6091   1.520   1.946   6.981 -0.1761 -0.1390  0.3667
    7MOL   H320 6092   1.466   1.803   7.040 -0.1591 -2.9342 -0.8424
    7MOL   H321 6093   1.585   1.856   6.771 -0.0206 -0.2375 -0.4399
    7MOL   H322 6094   1.407   1.730   6.599 -0.9174 -0.9765  0.1510
    7MOL   H323 6095   1.579   1.693   6.616 -0.3996 -0.2229 -1.8187
    7MOL   H324 6096   1.349   1.502   6.603  0.6654 -3.7147 -3.0557
    7MOL   H325 6097   1.488   1.456   6.694  0.7535  2.1682  1.6169
    7MOL   H326 6098   1.635   1.473   6.487  0.0610 -0.1337 -1.6381
    7MOL   H327 6099   1.519   1.569   6.393  1.5786 -1.6860 -1.8723
    7MOL   H328 6100   1.533   1.358   6.313 -2.1224 -0.8489 -0.1492
    7MOL   H329 6101   1.520   1.275   6.472 -0.1390  0.1673  0.6169
    7MOL   H330 6102   1.305   1.301   6.512  0.2542  0.0802  0.6424
    7MOL   H331 6103   1.281   1.424   6.387  1.3583  1.0472  1.1974
    7MOL   H332 6104   1.346   1.115   6.350 -0.3882 -0.8548 -0.3287
    7MOL   H333 6105   1.339   1.234   6.223 -0.3461  0.2931  0.2296
    7MOL   H334 6106   1.110   1.266   6.243 -0.8141 -0.5559  0.7297
    7MOL   H335 6107   1.124   1.089   6.248  0.9535 -0.5500  0.4638
    7MOL   H336 6108   1.073   1.278   6.466  1.9354 -1.1150  2.9829
    7MOL   H337 6109   0.962   1.157   6.413 -1.2301  3.1117  2.3705
    7MOL   N338 6110   1.062   1.105   6.660  0.4130 -0.6725  1.0566
    7MOL   C339 6111   1.105   1.028   6.775 -0.2398 -0.2178  0.0777
    7MOL   C340 6112   1.089   1.103   6.906  0.2229 -0.1027 -0.3642
    7MOL   C341 6113   0.994   1.045   6.998 -0.4332  0.1255  0.4293
    7MOL   C342 6114   0.970   1.103   7.122  0.6785 -0.6279 -0.2195
    7MOL   C343 6115   1.045   1.224   7.152 -0.2738 -0.2267  0.6493
    7MOL   C344 6116   1.144   1.269   7.063  0.0463  0.3671  0.2647
    7MOL   C345 6117   1.168   1.210   6.940 -0.4331  0.4250 -0.5561
    7MOL   C346 6118   1.269   1.271   6.847  0.0511  0.9339 -0.1118
    7MOL   N347 6119   1.378   1.341   6.902 -1.4860 -0.0139  0.2304
    7MOL   C348 6120   1.493   1.296   6.956  0.1881 -0.7587 -0.0705
    7MOL   O349 6121   1.522   1.177   6.952  0.4595 -0.2997 -0.2037
    7MOL   C350 6122   1.595   1.391   7.026 -0.2361 -0.3012  0.6773
    7MOL   C351 6123   1.743   1.373   6.985  0.7300 -0.2372 -0.2649
    7MOL   C352 6124   1.775   1.416   6.838 -0.4800 -0.3783  0.3511
    7MOL   C353 6125   1.919   1.379   6.796 -0.4426  0.0813 -0.5586
    7MOL   C354 6126   1.959   1.421   6.657  0.3600 -0.3360  0.0046
    7MOL   C355 6127   2.087   1.353   6.609 -0.3074 -0.3205 -0.2464
    7MOL   C356 6128   2.138   1.405   6.477  0.3098  0.0825 -0.2609
    7MOL   C357 6129   2.208   1.300   6.385 -1.0780  0.4623  0.3945
    7MOL   C358 6130   2.119   1.183   6.349  0.1711 -0.8577 -0.3733
    7MOL   O359 6131   2.006   1.208   6.304 -0.3721 -0.6397  0.1348
    7MOL   H360 6132   1.024   1.198   6.667 -0.3594 -0.9938  1.1358
    7MOL   H361 6133   1.044   0.939   6.789  0.9847 -0.6714  2.9426
    7MOL   H362 6134   1.205   0.991   6.752 -0.9246 -1.2636 -1.2580
    7MOL   H363 6135   0.936   0.955   6.987 -0.0574 -0.1569  0.7183
    7MOL   H364 6136   0.898   1.061   7.191 -0.6478 -0.5448 -1.5314
    7MOL   H365 6137   1.038   1.272   7.248  0.9364  1.8512 -0.2679
    7MOL   H366 6138   1.202   1.357   7.086 -0.8813  1.1927 -0.5215
    7MOL   H367 6139   1.214   1.329   6.774 -1.4888  0.1498  0.4149
    7MOL   H368 6140   1.321   1.192   6.792  0.8431  1.4173 -0.0722
    7MOL   H369 6141   1.368   1.441   6.894  2.8375  0.6512  1.6273
    7MOL   H370 6142   1.588   1.392   7.135 -1.2299  0.4750  0.6080
    7MOL   H371 6143   1.574   1.491   6.989  2.3725 -0.3354 -1.0120
    7MOL   H372 6144   1.766   1.267   6.998 -1.5392 -0.4477  2.5350
    7MOL   H373 6145   1.803   1.423   7.062 -1.2067  1.8575 -0.0589
    7MOL   H374 6146   1.705   1.368   6.769 -1.8213 -0.3773  1.6858
    7MOL   H375 6147   1.759   1.523   6.832  1.1425  0.1234  3.7153
    7MOL   H376 6148   1.930   1.272   6.807 -0.5199  0.2239  0.9038
    7MOL   H377 6149   1.992   1.405   6.872 -1.2330  1.3319 -0.2108
    7MOL   H378 6150   1.877   1.396   6.589 -0.8642  1.2762  0.8547
    7MOL   H379 6151   1.976   1.529   6.659  0.7914 -0.3935 -0.4740
    7MOL   H380 6152   2.058   1.250   6.593  0.3150 -0.5730  0.2225
    7MOL   H381 6153   2.167   1.350   6.683 -1.5795  1.0971  1.2215
    7MOL   H382 6154   2.051   1.442   6.422 -0.4111 -0.0861  0.7510
    7MOL   H383 6155   2.199   1.495   6.488  2.1358 -1.0985 -0.4991
    7MOL   H384 6156   2.304   1.260   6.419 -0.4398 -0.1766 -2.0554
    7MOL   H385 6157   2.231   1.351   6.291  1.4586  0.7207  1.1118
    7MOL   N386 6158   2.179   1.067   6.350 -0.1908  0.3074  0.5112
    7MOL   C387 6159   2.108   0.939   6.333 -0.3685 -0.0830  0.4303
    7MOL   C388 6160   2.154   0.847   6.439 -0.8010 -0.0961 -0.1676
    7MOL   C389 6161   2.101   0.863   6.570  0.7530 -0.4203  0.0340
    7MOL   C390 6162   2.135   0.772   6.672  0.3212 -0.1125 -0.8188
    7MOL   C391 6163   2.218   0.661   6.647  0.2063 -0.2316  0.1850
    7MOL   C392 6164   2.273   0.649   6.519 -0.1253  0.8480 -0.6312
    7MOL   C393 6165   2.241   0.738   6.412  0.2737 -0.3476  0.3752
    7MOL   C394 6166   2.322   0.730   6.278 -0.3620 -1.2206  0.4561
    7MOL   N395 6167   2.460   0.776   6.282 -0.0762 -0.3288  0.2448
    7MOL   C396 6168   2.505   0.899   6.249 -0.1391 -0.4393  0.4742
    7MOL   O397 6169   2.427   0.998   6.241 -0.1557  0.0131  0.4038
    7MOL   C398 6170   2.660   0.908   6.233 -0.2163 -0.0143 -0.1528
    7MOL   C399 6171   2.702   1.014   6.133 -0.4545  0.2622  0.6981
    7MOL   C400 6172   2.641   0.970   6.000  0.0091 -0.0756 -0.3853
    7MOL   C401 6173   2.706   1.044   5.876 -0.0711  0.3573  0.6671
    7MOL   C402 6174   2.600   1.068   5.760 -0.2807  0.4851 -0.0864
    7MOL   C403 6175   2.598   0.963   5.650  0.3352 -0.0398  0.1915
    7MOL   C404 6176   2.475   0.981   5.557  0.1213  0.4975 -0.0110
    7MOL   C405 6177   2.449   0.859   5.469  0.8468  0.1067  0.4877
    7MOL   C406 6178   2.540   0.866   5.349 -0.1138  0.3736  0.8872
    7MOL   O407 6179   2.513   0.940   5.252 -0.2474 -0.1377 -0.3065
    7MOL   H408 6180   2.279   1.080   6.343 -0.1634 -0.5911 -1.0162
    7MOL   H409 6181   2.001   0.956   6.349 -0.9134 -0.9062 -2.0973
    7MOL   H410 6182   2.114   0.906   6.229  0.8628  0.4586  0.3227
    7MOL   H411 6183   2.032   0.944   6.588 -1.1362 -2.0026  0.0129
    7MOL   H412 6184   2.083   0.786   6.766  0.2915 -0.2342 -0.8175
    7MOL   H413 6185   2.236   0.582   6.719  1.5843  0.4715  0.6307
    7MOL   H414 6186   2.342   0.568   6.507 -0.5109  0.4211 -0.0017
    7MOL   H415 6187   2.266   0.768   6.193 -0.3616 -3.1912 -0.4613
    7MOL   H416 6188   2.324   0.624   6.252 -0.2946 -1.1933  0.3540
    7MOL   H417 6189   2.532   0.705   6.283  1.7176  1.4309  2.0200
    7MOL   H418 6190   2.699   0.917   6.335  0.4712  0.7701 -0.4758
    7MOL   H419 6191   2.695   0.812   6.197  0.9376  0.4467 -0.2875
    7MOL   H420 6192   2.810   1.025   6.139 -0.1814 -1.5868 -0.4267
    7MOL   H421 6193   2.667   1.113   6.163 -1.3419  0.2646 -0.3091
    7MOL   H422 6194   2.536   0.997   6.004  0.1725  0.6256 -0.8165
    7MOL   H423 6195   2.651   0.863   5.980  1.0335 -0.4353  1.8499
    7MOL   H424 6196   2.727   1.144   5.913 -2.6897  1.0688  0.3124
    7MOL   H425 6197   2.799   0.995   5.848  0.3593  1.9880 -0.8345
    7MOL   H426 6198   2.497   1.071   5.796  0.0207 -3.0261  1.2751
    7MOL   H427 6199   2.622   1.161   5.708 -1.0135  0.8409  0.2364
    7MOL   H428 6200   2.600   0.864   5.696 -3.1504  0.9794  2.7878
    7MOL   H429 6201   2.691   0.982   5.597  1.3015 -0.6947  1.6157
    7MOL   H430 6202   2.474   1.076   5.502  2.3662  2.0000  2.3937
    7MOL   H431 6203   2.392   0.992   5.626 -2.4835 -0.8540 -2.8369
    7MOL   H432 6204   2.347   0.865   5.431  0.0981 -1.1828  2.2235
    7MOL   H433 6205   2.450   0.775   5.538 -2.0332  0.8439  1.4979
    7MOL   N434 6206   2.640   0.772   5.355 -0.8767 -0.9408 -0.2780
    7MOL   C435 6207   2.738   0.755   5.250  0.4755 -0.2694  0.2537
    7MOL   C436 6208   2.871   0.703   5.294  0.2836  0.2085 -0.0297
    7MOL   C437 6209   2.879   0.564   5.320 -0.1693  0.0584  0.4658
    7MOL   C438 6210   3.002   0.505   5.365 -0.3990 -0.1088 -0.2347
    7MOL   C439 6211   3.107   0.588   5.406 -0.2495 -0.1176  0.0643
    7MOL   C440 6212   3.102   0.732   5.376  0.9167  0.6887 -0.3194
    7MOL   C441 6213   2.985   0.785   5.321  0.0654 -0.0114 -0.0153
    7MOL   C442 6214   2.981   0.933   5.295 -0.2625 -0.1557  0.0461
    7MOL   N443 6215   2.990   0.950   5.148  0.3611 -0.1717 -0.7048
    7MOL   C444 6216   3.024   1.064   5.084 -0.3766 -0.0062  0.2766
    7MOL   O445 6217   3.050   1.060   4.966 -0.0888 -0.2779  0.9088
    7MOL   C446 6218   3.028   1.203   5.148  0.4193 -0.3855 -1.1389
    7MOL   C447 6219   2.912   1.303   5.102 -0.3829  0.5256 -0.0786
    7MOL   C448 6220   2.770   1.258   5.138  0.4207 -0.7261  0.0463
    7MOL   C449 6221   2.680   1.374   5.105 -0.0239  0.5961 -0.9248
    7MOL   C450 6222   2.676   1.404   4.949 -0.1192 -0.3641 -0.4014
    7MOL   C451 6223   2.589   1.526   4.914 -0.6796 -0.3345  1.1904
    7MOL   C452 6224   2.446   1.518   4.949 -0.1020  0.4279  0.0993
    7MOL   C453 6225   2.372   1.396   4.886 -0.6700 -0.3531 -0.2199
    7MOL   C454 6226   2.360   1.401   4.734 -0.4726  0.2277 -0.0460
    7MOL   O455 6227   2.458   1.394   4.657  0.9807 -0.3888 -0.9806
    7MOL   H456 6228   2.627   0.705   5.429  0.9956  2.4512  3.3103
    7MOL   H457 6229   2.752   0.841   5.186  2.4207  0.0188  1.0154
    7MOL   H458 6230   2.692   0.690   5.176  2.3147 -0.3862 -0.8333
    7MOL   H459 6231   2.790   0.505   5.302  1.1790 -2.5826  2.1234
    7MOL   H460 6232   3.015   0.399   5.380 -1.0173 -0.3860 -1.6456
    7MOL   H461 6233   3.191   0.536   5.448  0.1570  1.4256  1.2219
    7MOL   H462 6234   3.186   0.794   5.402 -0.8527  2.7076  0.8132
    7MOL   H463 6235   3.060   0.982   5.353  1.4736  0.9483 -3.1285
    7MOL   H464 6236   2.884   0.968   5.329 -0.7108 -2.1470  0.9036
    7MOL   H465 6237   2.967   0.865   5.098 -0.7375  0.1842 -0.8095
    7MOL   H466 6238   3.125   1.246   5.124  0.4738 -0.8368 -1.7403
    7MOL   H467 6239   3.030   1.198   5.257  0.5741  1.4286 -1.0537
    7MOL   H468 6240   2.924   1.307   4.994  0.4761  1.8955  0.0667
    7MOL   H469 6241   2.932   1.398   5.150 -2.3441  0.8810  0.0621
    7MOL   H470 6242   2.739   1.166   5.088  2.6913 -2.1840  1.2621
    7MOL   H471 6243   2.762   1.243   5.245 -2.2172  0.1514  0.0074
    7MOL   H472 6244   2.582   1.332   5.129 -0.1432  0.8808 -0.9197
    7MOL   H473 6245   2.704   1.467   5.155 -0.0869 -0.5840  1.3901
    7MOL   H474 6246   2.770   1.416   4.895 -1.0165  2.8335 -1.3781
    7MOL   H475 6247   2.636   1.312   4.905  0.9386 -0.9145 -0.2224
    7MOL   H476 6248   2.615   1.548   4.810 -0.4672  1.6474  1.6386
    7MOL   H477 6249   2.626   1.619   4.958 -0.8007  0.0102  0.5695
    7MOL   H478 6250   2.433   1.513   5.058  0.9891  2.0390  0.3257
    7MOL   H479 6251   2.396   1.607   4.911  1.6339  1.2541 -0.3235
    7MOL   H480 6252   2.415   1.304   4.926  1.4370  0.5533 -0.3312
    7MOL   H481 6253   2.271   1.394   4.926 -1.1581  0.7269 -1.3719
    7MOL   N482 6254   2.237   1.386   4.681  0.7312  0.4767 -0.1199
    7MOL   C483 6255   2.214   1.364   4.538  0.4838  0.0935  0.2956
    7MOL   C484 6256   2.082   1.428   4.503  0.0148  0.5572 -0.7847
    7MOL   C485 6257   2.090   1.546   4.425 -0.0723 -0.8378 -0.2394
    7MOL   C486 6258   1.975   1.615   4.381  1.3528  0.0371  0.1470
    7MOL   C487 6259   1.846   1.571   4.417  0.2729 -0.0134  0.2483
    7MOL   C488 6260   1.835   1.447   4.490 -0.0023 -0.0851  0.0807
    7MOL   C489 6261   1.952   1.375   4.524 -0.0037 -0.1578 -0.2063
    7MOL   C490 6262   1.923   1.255   4.604  0.0195 -0.3881 -0.7698
    7MOL   N491 6263   1.868   1.295   4.735  0.3100  0.1724 -0.1377
    7MOL   C492 6264   1.934   1.300   4.853 -0.4229 -0.1135  0.4617
    7MOL   O493 6265   2.043   1.245   4.870  0.0684  0.1406 -0.0022
    7MOL   C494 6266   1.878   1.396   4.950 -0.4353 -0.9514  0.5256
    7MOL   C495 6267   1.961   1.526   4.964 -0.3152 -0.2328  1.1123
    7MOL   C496 6268   1.966   1.628   4.849 -0.2903  0.1243 -0.2565
    7MOL   C497 6269   1.838   1.673   4.775 -0.2073 -0.7326 -0.0158
    7MOL   C498 6270   1.770   1.778   4.866 -0.0159 -0.0554  0.4481
    7MOL   C499 6271   1.711   1.723   4.998  0.0966 -0.0485 -0.2750
    7MOL   C500 6272   1.596   1.805   5.068  0.0010  0.7227  0.2907
    7MOL   C501 6273   1.539   1.724   5.193  0.0164  0.3132  0.7714
    7MOL   C502 6274   1.422   1.631   5.144  0.4330  0.0831 -0.3509
    7MOL   O503 6275   1.440   1.573   5.035 -0.0907 -0.1788 -0.2836
    7MOL   H504 6276   2.153   1.387   4.737  0.7424 -0.4764 -0.0836
    7MOL   H505 6277   2.298   1.411   4.487 -0.5251  1.2891 -0.2808
    7MOL   H506 6278   2.218   1.257   4.518 -0.1928  0.3147 -1.0613
    7MOL   H507 6279   2.188   1.584   4.402 -1.3399  1.9687 -1.1441
    7MOL   H508 6280   1.990   1.697   4.312  0.6885  0.3465  0.3720
    7MOL   H509 6281   1.763   1.634   4.388  0.9032  0.8606  0.3129
    7MOL   H510 6282   1.739   1.403   4.513 -1.4144  3.4221  1.1249
    7MOL   H511 6283   2.011   1.194   4.624  0.0714 -0.1154 -0.1763
    7MOL   H512 6284   1.848   1.185   4.567 -1.5179  0.5760  0.4695
    7MOL   H513 6285   1.771   1.323   4.741  0.2933 -0.1248  1.2633
    7MOL   H514 6286   1.860   1.336   5.039  0.1531  0.5377  1.6878
    7MOL   H515 6287   1.774   1.412   4.921  0.3295 -0.9380 -2.3830
    7MOL   H516 6288   2.059   1.482   4.987 -0.3613 -0.3694  1.0465
    7MOL   H517 6289   1.919   1.565   5.057  0.5685  1.5575  0.7968
    7MOL   H518 6290   2.021   1.712   4.890 -0.8612  0.0732  0.6276
    7MOL   H519 6291   2.040   1.589   4.780  0.4726  1.8467 -0.4185
    7MOL   H520 6292   1.871   1.714   4.680  3.3892 -1.4845  0.8662
    7MOL   H521 6293   1.769   1.593   4.749  0.1874 -0.8288 -0.7712
    7MOL   H522 6294   1.833   1.865   4.883  0.9152 -0.6496  0.0787
    7MOL   H523 6295   1.698   1.830   4.803  0.7978 -1.9908 -2.1886
    7MOL   H524 6296   1.792   1.717   5.071  2.9387 -0.4088 -3.3464
    7MOL   H525 6297   1.666   1.625   4.985 -0.8732  0.4932 -1.0407
    7MOL   H526 6298   1.629   1.902   5.105 -0.7408  1.1356 -0.1236
    7MOL   H527 6299   1.527   1.835   4.990  0.9429 -0.5762 -1.0620
    7MOL   H528 6300   1.503   1.797   5.265 -2.3584 -0.1704  0.1243
    7MOL   H529 6301   1.619   1.671   5.244  0.5115  0.8330  0.5318
    7MOL   N530 6302   1.311   1.616   5.210 -0.2711 -0.1398  0.2989
    7MOL   C531 6303   1.188   1.559   5.157  0.5167 -0.3809 -0.0735
    7MOL   C532 6304   1.098   1.500   5.257 -0.6969  0.1228 -0.2486
    7MOL   C533 6305   0.978   1.574   5.287  0.2015 -0.4785  0.1327
    7MOL   C534 6306   0.879   1.517   5.373  0.3172  0.0145 -0.1879
    7MOL   C535 6307   0.905   1.399   5.436 -0.5976  0.1687  0.4561
    7MOL   C536 6308   1.023   1.321   5.413  0.0851 -0.3430 -0.2949
    7MOL   C537 6309   1.118   1.370   5.314 -0.1557  0.2159 -0.6580
    7MOL   C538 6310   1.222   1.279   5.254 -0.2429  0.1940  0.2485
    7MOL   N539 6311   1.259   1.168   5.342 -0.1996 -0.3242 -0.0570
    7MOL   C540 6312   1.227   1.039   5.309 -0.0459  0.5211 -0.1407
    7MOL   O541 6313   1.185   1.014   5.197 -0.3331 -0.0259  0.8324
    7MOL   C542 6314   1.252   0.935   5.412  0.0799  0.5097 -0.2161
    7MOL   C543 6315   1.181   0.804   5.370 -0.3640 -1.1297 -0.2288
    7MOL   C544 6316   1.195   0.693   5.481  0.5785 -0.7174  0.2693
    7MOL   C545 6317   1.102   0.573   5.464 -0.1602  0.8871  0.5542
    7MOL   C546 6318   1.113   0.502   5.326 -0.0262  0.4892  0.2099
    7MOL   C547 6319   1.026   0.371   5.318 -0.3077 -0.0310 -0.0415
    7MOL   C548 6320   1.009   0.317   5.171 -0.0125 -0.4575 -0.4096
    7MOL   C549 6321   1.140   0.261   5.112  0.1951  0.1518 -0.3676
    7MOL   C550 6322   1.195   0.138   5.185  0.2759  0.3147 -0.2344
    7MOL   O551 6323   1.123   0.043   5.224 -0.1128 -0.0562 -0.0218
    7MOL   H552 6324   1.306   1.640   5.308 -0.5048 -3.2190  1.0888
    7MOL   H553 6325   1.209   1.479   5.086  1.4443 -0.7872  0.6541
    7MOL   H554 6326   1.141   1.637   5.097  0.9040  0.3887  0.6054
    7MOL   H555 6327   0.963   1.674   5.249 -0.7375 -0.0662  1.5765
    7MOL   H556 6328   0.786   1.571   5.387 -0.0488 -0.3273 -1.3285
    7MOL   H557 6329   0.823   1.362   5.496 -1.0575 -2.0678 -1.4572
    7MOL   H558 6330   1.024   1.220   5.450 -0.3356  0.2034  1.2613
    7MOL   H559 6331   1.311   1.341   5.253  0.9877 -1.5010  0.7607
    7MOL   H560 6332   1.199   1.246   5.153 -1.2198 -2.7141  1.3559
    7MOL   H561 6333   1.297   1.190   5.432 -4.5412  2.3783  1.2854
    7MOL   H562 6334   1.209   0.949   5.511 -1.8023 -1.7487 -0.6909
    7MOL   H563 6335   1.360   0.919   5.420  0.3450  2.7478  1.2144
    7MOL   H564 6336   1.210   0.776   5.269 -1.6813  1.7926 -1.4658
    7MOL   H565 6337   1.075   0.827   5.358 -0.1675 -0.1586 -0.1146
    7MOL   H566 6338   1.297   0.657   5.473 -0.3892 -3.1260 -1.8898
    7MOL   H567 6339   1.194   0.732   5.583 -0.1425  0.0031 -0.0112
    7MOL   H568 6340   1.144   0.500   5.534  2.1540  0.8276 -0.8400
    7MOL   H569 6341   1.006   0.599   5.509 -0.6761  0.4169 -0.2653
    7MOL   H570 6342   1.062   0.565   5.252  1.7787  2.1958  0.3815
    7MOL   H571 6343   1.214   0.488   5.288 -0.7250 -0.8587 -1.1967
    7MOL   H572 6344   0.926   0.388   5.360 -0.6086 -3.1904  0.6277
    7MOL   H573 6345   1.069   0.288   5.374  1.2345 -0.9775 -2.5676
    7MOL   H574 6346   0.929   0.243   5.170 -0.0193 -0.4374 -1.4703
    7MOL   H575 6347   0.973   0.388   5.096  0.2978  0.5026  0.3250
    7MOL   H576 6348   1.220   0.332   5.090  0.5500  0.7124  2.5622
    7MOL   H577 6349   1.121   0.226   5.011  0.0456 -2.0295  0.3920
    7MOL   N578 6350   1.326   0.151   5.215 -0.0325 -0.1026 -0.0046
    7MOL   C579 6351   1.410   0.045   5.269 -0.3375 -0.8906  0.2562
    7MOL   C580 6352   1.495   7.752   5.173  0.1599  0.2172 -0.8639
    7MOL   C581 6353   1.428   7.648   5.105  0.0188  0.3399  0.2504
    7MOL   C582 6354   1.502   7.567   5.013  0.0726 -0.3298  0.2284
    7MOL   C583 6355   1.638   7.591   4.979 -0.1027 -0.0099  0.1855
    7MOL   C584 6356   1.702   7.692   5.057 -0.1029  0.8151  0.8832
    7MOL   C585 6357   1.629   7.777   5.143 -0.4724 -0.2029  0.2967
    7MOL   C586 6358   1.704   0.099   5.209  0.5562 -0.1920  0.6560
    7MOL   N587 6359   1.755   0.056   5.336  0.6392 -0.1883 -0.0503
    7MOL   C588 6360   1.844   0.124   5.408  0.5201 -0.0614  0.0020
    7MOL   O589 6361   1.908   0.218   5.367  0.4941  0.0469  0.3453
    7MOL   C590 6362   1.856   0.082   5.552  0.2499 -0.7181  0.7365
    7MOL   C591 6363   1.989   0.130   5.616  0.1274 -0.6045  0.4284
    7MOL   C592 6364   2.117   0.109   5.535  0.6436  0.5881 -0.1460
    7MOL   C593 6365   2.243   0.103   5.625  0.7442  0.5662 -0.2409
    7MOL   C594 6366   2.371   0.073   5.550  0.1433  0.4852 -0.2591
    7MOL   C595 6367   2.411   0.166   5.432  0.2004  0.0935  0.5970
    7MOL   C596 6368   2.455   0.310   5.460 -0.4089 -0.0909  0.1393
    7MOL   C597 6369   2.596   0.328   5.515  0.2980 -0.4068 -0.6092
    7MOL   C598 6370   2.635   0.462   5.569 -0.0043 -0.0133  0.1863
    7MOL   O599 6371   2.567   0.562   5.556 -0.2772  0.2089  0.2904
    7MOL   H600 6372   1.378   0.227   5.174 -1.6004 -0.7228 -3.3519
    7MOL   H601 6373   1.342   7.769   5.323 -0.7306  0.4113  1.3680
    7MOL   H602 6374   1.476   0.082   5.348  2.5238 -0.9448 -2.0370
    7MOL   H603 6375   1.322   7.637   5.119  0.0944  0.0605  0.6211
    7MOL   H604 6376   1.453   7.486   4.959 -0.1943 -0.2662  0.3755
    7MOL   H605 6377   1.680   7.525   4.904  1.0036 -0.6843  1.3769
    7MOL   H606 6378   1.809   7.698   5.041 -0.0923 -0.1533  0.5767
    7MOL   H607 6379   1.657   0.197   5.206 -0.1366 -0.5588 -1.5092
    7MOL   H608 6380   1.787   0.113   5.139  0.3559 -2.0809  0.0058
    7MOL   H609 6381   1.717   7.758   5.368 -0.0864  0.5601  1.1565
    7MOL   H610 6382   1.846   7.764   5.564 -2.1811 -0.3769  2.1592
    7MOL   H611 6383   1.767   0.123   5.599 -1.1037 -0.7879 -1.6894
    7MOL   H612 6384   1.989   0.079   5.713  2.9941 -2.5296 -0.5122
    7MOL   H613 6385   1.977   0.237   5.636  0.9136 -0.4971  0.3268
    7MOL   H614 6386   2.108   0.019   5.473 -0.5325  2.2651 -2.4558
    7MOL   H615 6387   2.133   0.190   5.464 -0.0927  2.2431  1.5466
    7MOL   H616 6388   2.268   0.200   5.670 -1.8195  0.4889  1.4703
    7MOL   H617 6389   2.220   0.035   5.707  2.7777  0.0533 -0.0626
    7MOL   H618 6390   2.458   0.071   5.616  0.0214 -2.6238 -0.1161
    7MOL   H619 6391   2.359   7.762   5.510 -2.6377  0.4989  0.4652
    7MOL   H620 6392   2.325   0.168   5.366  0.8310 -1.3391 -0.2855
    7MOL   H621 6393   2.479   0.115   5.364  1.8805  0.3429  2.0167
    7MOL   H622 6394   2.443   0.379   5.376 -0.5229  0.6748  0.7728
    7MOL   H623 6395   2.393   0.356   5.537 -0.3958 -0.6643  0.4939
    7MOL   H624 6396   2.596   0.263   5.603 -1.4460 -0.0535 -0.3145
    7MOL   H625 6397   2.676   0.296   5.448 -0.5728 -0.3210 -1.7221
    7MOL   N626 6398   2.753   0.463   5.623 -0.9878  0.2465  0.6553
    7MOL   C627 6399   2.820   0.587   5.653  0.4986  0.5320  0.3935
    7MOL   C628 6400   2.853   0.616   5.797  0.3063  0.6724  0.0432
    7MOL   C629 6401   2.814   0.530   5.892 -0.3283  0.5130 -0.4554
    7MOL   C630 6402   2.839   0.549   6.029 -0.0127 -0.0574 -0.1714
    7MOL   C631 6403   2.917   0.660   6.061 -0.4478 -0.6511 -0.3654
    7MOL   C632 6404   2.962   0.750   5.963  0.3865  0.8273  0.2517
    7MOL   C633 6405   2.933   0.728   5.828 -1.0721  0.2984  0.0561
    7MOL   C634 6406   2.975   0.823   5.719  0.0405 -0.2500 -0.8428
    7MOL   N635 6407   3.056   0.932   5.770  0.2353  0.2674 -0.3682
    7MOL   C636 6408   3.076   1.042   5.692 -0.0564  0.2278  0.7311
    7MOL   O637 6409   3.023   1.056   5.582  0.9521 -0.6518  0.0031
    7MOL   C638 6410   3.156   1.158   5.749  0.3501 -0.6440  0.2528
    7MOL   C639 6411   3.270   1.212   5.655 -0.2958 -0.1312  0.0729
    7MOL   C640 6412   3.387   1.115   5.661 -0.7594  0.3617  0.7074
    7MOL   C641 6413   3.499   1.134   5.551 -0.4149  0.5862  0.0930
    7MOL   C642 6414   3.588   1.012   5.545 -0.0423 -0.0157  0.9865
    7MOL   C643 6415   3.716   1.013   5.457 -0.3574  0.8149  0.3279
    7MOL   C644 6416   3.802   0.886   5.477  0.3466  0.4451 -0.3854
    7MOL   C645 6417   3.946   0.915   5.431  0.1205  0.0320 -0.6005
    7MOL   C646 6418   4.036   0.797   5.453 -0.3188  0.2565  0.0484
    7MOL   O647 6419   4.092   0.784   5.560 -0.0159 -0.8695 -0.0382
    7MOL   H648 6420   2.793   0.370   5.630 -0.5941  0.2258 -1.5414
    7MOL   H649 6421   2.784   0.676   5.603 -3.0352  0.1985  2.2006
    7MOL   H650 6422   2.918   0.561   5.612  1.2321 -0.0242  2.4330
    7MOL   H651 6423   2.751   0.444   5.872 -0.1375  0.5798 -1.4015
    7MOL   H652 6424   2.805   0.478   6.103 -0.8726  0.1915 -0.3185
    7MOL   H653 6425   2.946   0.693   6.159 -0.6809  1.1954 -0.8853
    7MOL   H654 6426   3.015   0.839   5.992  0.9065 -0.4149  3.2204
    7MOL   H655 6427   2.883   0.863   5.675 -1.0371  1.1047  2.4178
    7MOL   H656 6428   3.033   0.768   5.646 -1.1998 -1.6846 -0.7756
    7MOL   H657 6429   3.091   0.924   5.864  2.5869 -0.7377 -1.2798
    7MOL   H658 6430   3.192   1.131   5.848 -0.7126 -0.4657  0.6883
    7MOL   H659 6431   3.081   1.235   5.767  0.2020 -0.4265 -1.2264
    7MOL   H660 6432   3.293   1.315   5.682  3.5103 -0.7274 -0.5922
    7MOL   H661 6433   3.233   1.206   5.552 -0.1163 -2.0796  0.0988
    7MOL   H662 6434   3.427   1.108   5.763  2.7327 -0.6332 -0.6561
    7MOL   H663 6435   3.348   1.021   5.621  0.1674 -0.1625  1.0122
    7MOL   H664 6436   3.466   1.170   5.454  1.1291  2.1153  0.1159
    7MOL   H665 6437   3.559   1.215   5.591  0.6665 -0.6521  1.0187
    7MOL   H666 6438   3.600   0.996   5.652 -0.3266 -2.5610  0.6799
    7MOL   H667 6439   3.527   0.932   5.502 -0.0371  0.6502 -0.2704
    7MOL   H668 6440   3.778   1.098   5.487  1.1464  0.0646 -0.5587
    7MOL   H669 6441   3.689   1.032   5.354 -1.6784  1.3146  0.7589
    7MOL   H670 6442   3.809   0.844   5.577  1.1914 -2.5160 -1.6461
    7MOL   H671 6443   3.760   0.804   5.419  0.3124  0.3210 -0.1840
    7MOL   H672 6444   3.987   0.985   5.504  1.0162 -2.1688  1.0515
    7MOL   H673 6445   3.946   0.955   5.329  1.2446  0.5991 -0.3802
    7MOL   N674 6446   4.039   0.705   5.358 -0.3820 -0.3643 -0.8156
    7MOL   C675 6447   4.124   0.586   5.357 -0.1570 -0.3804  0.3307
    7MOL   C676 6448   4.056   0.477   5.432 -0.1561  0.5555  1.1987
    7MOL   C677 6449   4.087   0.455   5.565  0.2168  1.1132 -1.1960
    7MOL   C678 6450   4.024   0.356   5.643  0.3884  0.2702  0.2339
    7MOL   C679 6451   3.908   0.296   5.588 -0.4885 -0.2801 -0.2644
    7MOL   C680 6452   3.877   0.322   5.453  0.3811 -0.0763 -0.3201
    7MOL   C681 6453   3.947   0.408   5.370 -0.5971 -0.3626 -0.1339
    7MOL   C682 6454   3.908   0.422   5.222  0.5560 -0.1899 -0.2128
    7MOL   N683 6455   3.767   0.454   5.197  0.1076 -0.0815  0.6259
    7MOL   C684 6456   3.725   0.582   5.188  0.0693 -0.0741  0.3353
    7MOL   O685 6457   3.789   0.685   5.183 -0.0080 -0.2793 -0.0696
    7MOL   C686 6458   3.570   0.601   5.178 -0.2145 -0.9209  0.1098
    7MOL   C687 6459   3.508   0.744   5.230 -0.8856  0.4741  0.2356
    7MOL   C688 6460   3.554   0.859   5.141 -0.5124 -0.5132  0.2004
    7MOL   C689 6461   3.466   0.981   5.164  0.2716 -0.2347 -0.2590
    7MOL   C690 6462   3.502   1.107   5.090  0.1041 -0.2911 -0.5878
    7MOL   C691 6463   3.395   1.211   5.091  0.0652 -0.5268  0.6172
    7MOL   C692 6464   3.456   1.348   5.108 -0.6525 -0.1748  0.4512
    7MOL   C693 6465   3.363   1.460   5.147 -0.0435  0.4571 -0.2769
    7MOL   C694 6466   3.332   1.474   5.302  0.3429  0.2739  0.1932
    7MOL   O695 6467   3.218   1.452   5.345  0.6712  0.1927  0.1206
    7MOL   H696 6468   3.970   0.699   5.285  0.1989  1.4670 -1.5417
    7MOL   H697 6469   4.227   0.607   5.388  0.3440 -0.7457 -1.0576
    7MOL   H698 6470   4.150   0.552   5.257  2.3199  3.2495 -0.3344
    7MOL   H699 6471   4.160   0.515   5.617 -0.6614 -0.6555  2.1938
    7MOL   H700 6472   4.045   0.342   5.748  0.4075  1.0183  0.3346
    7MOL   H701 6473   3.852   0.227   5.649  0.3324  1.7989  2.9184
    7MOL   H702 6474   3.797   0.261   5.413 -0.2493  0.2368  0.4387
    7MOL   H703 6475   3.923   0.321   5.185 -2.7269 -1.0003  0.5428
    7MOL   H704 6476   3.968   0.492   5.164 -0.9424  0.4363 -1.0410
    7MOL   H705 6477   3.708   0.375   5.177 -0.0870  0.5095 -1.2367
    7MOL   H706 6478   3.510   0.523   5.225 -1.0159 -0.1296  0.4111
    7MOL   H707 6479   3.548   0.591   5.071 -0.2869  1.1347 -0.0853
    7MOL   H708 6480   3.544   0.762   5.331  1.2383 -0.9806 -0.2162
    7MOL   H709 6481   3.399   0.743   5.234 -0.9932  1.6347 -1.6426
    7MOL   H710 6482   3.660   0.881   5.151 -0.7642  0.6109  0.4581
    7MOL   H711 6483   3.534   0.823   5.040 -1.0279  0.9934 -0.2514
    7MOL   H712 6484   3.372   0.934   5.133  1.4629 -2.8987  0.0126
    7MOL   H713 6485   3.447   1.002   5.269 -2.9578  2.2711 -1.2373
    7MOL   H714 6486   3.593   1.152   5.131  0.1987 -0.4055 -0.6703
    7MOL   H715 6487   3.521   1.085   4.985  0.5868 -3.1426  0.0466
    7MOL   H716 6488   3.336   1.190   5.180  1.0302  1.7091  1.8247
    7MOL   H717 6489   3.324   1.208   5.008 -2.5156 -1.3295  2.7755
    7MOL   H718 6490   3.511   1.380   5.019 -2.4402 -2.4123 -1.5327
    7MOL   H719 6491   3.535   1.337   5.183 -0.1238 -2.2803 -0.3498
    7MOL   H720 6492   3.275   1.458   5.082 -0.3599  1.8697  0.1008
    7MOL   H721 6493   3.396   1.557   5.109 -1.7197  1.5152  0.9226
    7MOL   N722 6494   3.433   1.509   5.380  0.8459 -0.7787 -0.1402
    7MOL   C723 6495   3.437   1.550   5.519 -0.5306 -0.4269 -0.5507
    7MOL   C724 6496   3.337   1.665   5.556 -0.0223  0.0791  0.4345
    7MOL   C725 6497   3.214   1.627   5.612  0.2079 -0.5664 -0.5779
    7MOL   C726 6498   3.125   1.730   5.659 -0.6222  0.5551  0.4182
    7MOL   C727 6499   3.174   1.861   5.666  0.1411  0.0694 -0.1171
    7MOL   C728 6500   3.289   1.903   5.598 -0.8186 -0.5918  0.5324
    7MOL   C729 6501   3.372   1.803   5.542  0.1544  0.6547 -0.1459
    7MOL   C730 6502   3.507   1.848   5.483  0.1131 -0.2714 -0.3165
    7MOL   N731 6503   3.496   1.986   5.422 -0.0117 -0.2031  0.1776
    7MOL   C732 6504   3.575   2.087   5.458 -0.0982  0.0072 -0.0083
    7MOL   O733 6505   3.673   2.073   5.519 -0.4213 -0.5186 -0.2823
    7MOL   C734 6506   3.536   2.232   5.409  1.0720 -0.1327 -0.2770
    7MOL   C735 6507   3.511   2.324   5.535 -0.2982  0.2169 -0.7490
    7MOL   C736 6508   3.385   2.297   5.624  0.0453 -0.3586 -1.0045
    7MOL   C737 6509   3.250   2.345   5.558 -0.6274 -0.2438  0.3392
    7MOL   C738 6510   3.122   2.315   5.638 -0.0994  0.7103 -0.2962
    7MOL   C739 6511   2.990   2.355   5.573  0.8592 -0.0553  0.6561
    7MOL   C740 6512   2.867   2.292   5.639 -0.6207  0.4662 -0.5569
    7MOL   C741 6513   2.735   2.287   5.552  0.0967 -0.3097 -0.0370
    7MOL   C742 6514   2.670   2.428   5.554  0.0503  0.3468 -0.2658
    7MOL   O743 6515   2.655   2.491   5.656  0.1318 -0.0136 -0.2481
    7MOL   H744 6516   3.520   1.530   5.334  0.2776  0.0401 -0.8555
    7MOL   H745 6517   3.538   1.587   5.532 -0.4874 -1.1546  1.3796
    7MOL   H746 6518   3.409   1.466   5.583 -0.7987 -0.7298 -1.0626
    7MOL   H747 6519   3.163   1.533   5.602 -1.5293  0.5219 -2.2537
    7MOL   H748 6520   3.030   1.708   5.705 -1.9566  3.4611 -0.8077
    7MOL   H749 6521   3.115   1.940   5.711 -1.8431 -1.5317  0.1610
    7MOL   H750 6522   3.313   2.008   5.604  1.6294 -1.1960  2.2421
    7MOL   H751 6523   3.531   1.775   5.406  0.9408  0.5035 -0.7977
    7MOL   H752 6524   3.594   1.833   5.547 -0.0684  1.8096  0.4611
    7MOL   H753 6525   3.430   1.999   5.346  1.0834  2.3894 -0.3930
    7MOL   H754 6526   3.451   2.234   5.342  0.3149 -0.4066  0.6579
    7MOL   H755 6527   3.629   2.266   5.362  3.2544  0.7099  4.2860
    7MOL   H756 6528   3.514   2.428   5.503  2.9343  0.7354  0.9302
    7MOL   H757 6529   3.600   2.320   5.598 -0.4889  1.3380 -0.4101
    7MOL   H758 6530   3.385   2.196   5.666 -1.6879 -0.1753 -0.5428
    7MOL   H759 6531   3.400   2.361   5.711 -0.3013 -1.2249 -0.2930
    7MOL   H760 6532   3.247   2.454   5.550  1.5788 -0.1096  0.9813
    7MOL   H761 6533   3.244   2.290   5.464 -1.0318 -2.6180  1.7302
    7MOL   H762 6534   3.131   2.206   5.643  0.0144  0.6494 -1.5564
    7MOL   H763 6535   3.131   2.339   5.744  0.1630 -0.3687 -0.0628
    7MOL   H764 6536   2.985   2.348   5.464  1.0934 -3.5851  0.8156
    7MOL   H765 6537   2.978   2.462   5.591 -2.1395 -0.8425  3.6861
    7MOL   H766 6538   2.896   2.189   5.661 -1.6084 -0.0245 -1.5100
    7MOL   H767 6539   2.857   2.349   5.732  0.9913 -0.6420  0.3335
    7MOL   H768 6540   2.770   2.245   5.458 -0.5181 -0.2470 -0.2924
    7MOL   H769 6541   2.664   2.229   5.611 -1.5776  1.4532 -0.2844
    7MOL   N770 6542   2.622   2.471   5.439  0.3452 -0.4775 -0.3572
    7MOL   C771 6543   2.550   2.594   5.433  0.7514  0.3626  0.3249
    7MOL   C772 6544   2.548   2.655   5.291  0.2387 -0.2220  0.0715
    7MOL   C773 6545   2.422   2.665   5.223  0.2615  0.0743  0.1728
    7MOL   C774 6546   2.414   2.748   5.108  0.0902  0.0702 -0.4719
    7MOL   C775 6547   2.527   2.800   5.051  0.5660  0.2689 -0.5636
    7MOL   C776 6548   2.654   2.759   5.103  0.5762 -0.0482 -0.3033
    7MOL   C777 6549   2.668   2.695   5.229  1.1949 -0.3843  1.2959
    7MOL   C778 6550   2.813   2.683   5.275  0.8130 -0.0811 -0.2754
    7MOL   N779 6551   2.908   2.619   5.182 -0.4625 -0.5696  0.0304
    7MOL   C780 6552   3.015   2.677   5.133  0.5229 -0.7115  0.1788
    7MOL   O781 6553   3.041   2.802   5.158  0.2080 -0.1468  0.2880
    7MOL   C782 6554   3.104   2.593   5.044 -0.4035  0.0210 -0.8936
    7MOL   C783 6555   3.249   2.562   5.091  0.0559 -0.7044 -0.0230
    7MOL   C784 6556   3.322   2.689   5.118 -0.2517 -0.5764  0.1156
    7MOL   C785 6557   3.470   2.664   5.141 -0.1284 -0.5542  0.2327
    7MOL   C786 6558   3.506   2.568   5.264 -1.2438  0.8824  0.1171
    7MOL   C787 6559   3.655   2.579   5.309  0.4508  0.1201 -0.4983
    7MOL   C788 6560   3.671   2.676   5.415  0.0370  0.0796 -0.9236
    7MOL   C789 6561   3.811   2.683   5.478 -0.2128  0.0611 -0.3561
    7MOL   C790 6562   3.830   2.584   5.592  0.2714  0.4165  0.1753
    7MOL   O791 6563   3.767   2.602   5.695  0.3976  0.2753 -0.0547
    7MOL   H792 6564   2.636   2.412   5.358  1.1773  0.9966 -1.3136
    7MOL   H793 6565   2.446   2.577   5.461  0.4859  0.9018 -0.3287
    7MOL   H794 6566   2.590   2.664   5.507  1.4361  0.4830 -0.1486
    7MOL   H795 6567   2.336   2.605   5.248 -0.2202 -0.0258 -1.6439
    7MOL   H796 6568   2.316   2.766   5.068 -0.4384  0.0483  0.8023
    7MOL   H797 6569   2.503   2.867   4.969  1.6287  0.4534 -0.7260
    7MOL   H798 6570   2.731   2.791   5.033 -0.5378  1.5582 -0.8125
    7MOL   H799 6571   2.816   2.637   5.374 -0.6095  0.6274  0.1043
    7MOL   H800 6572   2.844   2.784   5.299  1.9652 -1.1247  2.8831
    7MOL   H801 6573   2.884   2.524   5.157 -1.1865 -0.3350 -0.1572
    7MOL   H802 6574   3.129   2.646   4.952 -1.1608  0.0331 -1.0985
    7MOL   H803 6575   3.047   2.502   5.023  0.7784 -0.5885 -1.5400
    7MOL   H804 6576   3.295   2.515   5.004 -0.5260  0.6078 -1.0513
    7MOL   H805 6577   3.245   2.495   5.177  1.4288 -0.0479  0.5762
    7MOL   H806 6578   3.274   2.740   5.202  0.8006 -2.5312  1.9297
    7MOL   H807 6579   3.314   2.742   5.023 -0.0395 -0.3574  0.2205
    7MOL   H808 6580   3.516   2.647   5.044 -0.1381  1.7721 -0.2235
    7MOL   H809 6581   3.525   2.755   5.169 -0.6153 -0.6209  1.4678
    7MOL   H810 6582   3.441   2.596   5.346 -3.2477  0.1528 -1.1791
    7MOL   H811 6583   3.467   2.467   5.248 -2.6467  1.5810 -1.0058
    7MOL   H812 6584   3.717   2.613   5.226  0.4478 -0.9887 -0.9625
    7MOL   H813 6585   3.692   2.484   5.346 -0.0990  0.7066  1.6084
    7MOL   H814 6586   3.599   2.650   5.492 -0.8834 -0.3694 -1.9192
    7MOL   H815 6587   3.634   2.775   5.387 -1.1287 -0.2874 -0.7106
    7MOL   H816 6588   3.823   2.775   5.536 -3.1113  1.2977 -1.6161
    7MOL   H817 6589   3.893   2.679   5.407  0.2770 -2.3800  0.3165
    7MOL   N818 6590   3.921   2.485   5.573 -0.1169 -0.4816  0.7788
    7MOL   C819 6591   3.933   2.357   5.650  0.4454 -0.2272 -0.3019
    7MOL   C820 6592   4.077   2.314   5.671  0.8288  0.3632  0.1901
    7MOL   C821 6593   4.152   2.396   5.761  0.1670 -0.6247  0.0518
    7MOL   C822 6594   4.283   2.369   5.788 -0.3769  0.2486 -0.3791
    7MOL   C823 6595   4.348   2.265   5.712 -0.0555  0.4008 -0.2829
    7MOL   C824 6596   4.271   2.186   5.619 -0.0946  0.1871  0.9350
    7MOL   C825 6597   4.135   2.210   5.600  0.0187 -0.1223  0.4232
    7MOL   C826 6598   4.057   2.109   5.501 -0.7333  0.3710 -0.3218
    7MOL   N827 6599   4.014   1.992   5.581 -0.1141  0.2718 -0.0525
    7MOL   C828 6600   4.014   1.866   5.543 -0.7532  0.7063  0.3885
    7MOL   O829 6601   4.065   1.835   5.437  0.1462  0.0356 -0.0771
    7MOL   C830 6602   3.939   1.762   5.630  0.0537  0.1245  0.1424
    7MOL   C831 6603   4.013   1.663   5.711 -0.8869  0.8015  0.0268
    7MOL   C832 6604   4.074   1.714   5.845 -0.6191  0.5352  0.0245
    7MOL   C833 6605   4.168   1.606   5.904  0.0347  0.4560  0.1003
    7MOL   C834 6606   4.204   1.632   6.055 -0.5713  0.5750  0.3023
    7MOL   C835 6607   4.317   1.740   6.084 -0.4262  0.5813  0.1130
    7MOL   C836 6608   4.444   1.722   6.005  0.2880  0.2173  0.7383
    7MOL   C837 6609   4.555   1.826   6.033  0.0744  0.5678 -0.3889
    7MOL   C838 6610   4.517   1.970   6.000  0.1217  0.4984  0.4713
    7MOL   O839 6611   4.438   1.999   5.912 -0.7474  0.0980  0.6673
    7MOL   H840 6612   3.958   2.491   5.479  0.8106  2.7325  1.3135
    7MOL   H841 6613   3.870   2.365   5.739 -3.1915 -0.3863 -2.7781
    7MOL   H842 6614   3.882   2.277   5.596  2.6697 -0.0726 -2.7203
    7MOL   H843 6615   4.103   2.476   5.816  0.7449 -0.0272 -0.2950
    7MOL   H844 6616   4.350   2.428   5.848 -0.2578  0.2112 -0.4751
    7MOL   H845 6617   4.452   2.235   5.717  0.3201  1.7335  0.2488
    7MOL   H846 6618   4.319   2.104   5.568  0.3316  1.5853 -0.9875
    7MOL   H847 6619   4.107   2.081   5.408 -0.3357 -3.3590  0.9391
    7MOL   H848 6620   3.962   2.149   5.467 -1.4275 -0.7036  0.3309
    7MOL   H849 6621   3.992   2.016   5.676 -2.6469 -0.2427 -0.4694
    7MOL   H850 6622   3.885   1.712   5.550  0.5259 -0.1432 -0.0119
    7MOL   H851 6623   3.868   1.811   5.697  0.6616  0.7017  0.3758
    7MOL   H852 6624   4.100   1.625   5.656 -0.4335 -0.4797  1.6042
    7MOL   H853 6625   3.946   1.581   5.734 -1.3986  1.3030  0.3323
    7MOL   H854 6626   3.988   1.724   5.910 -0.8162 -1.5997  0.1347
    7MOL   H855 6627   4.118   1.812   5.829  1.6763 -0.6843 -1.5347
    7MOL   H856 6628   4.108   1.516   5.914  0.8438 -0.2578 -1.2549
    7MOL   H857 6629   4.254   1.585   5.840  0.1238 -0.9374  0.6452
    7MOL   H858 6630   4.114   1.647   6.115  0.3552  2.2553  1.3193
    7MOL   H859 6631   4.250   1.538   6.086 -1.7227  1.0546  3.7028
    7MOL   H860 6632   4.328   1.756   6.192 -1.8150 -0.1454  0.3846
    7MOL   H861 6633   4.263   1.829   6.051 -1.3202 -0.2959 -0.8086
    7MOL   H862 6634   4.421   1.722   5.898  1.5142  0.8072  0.4674
    7MOL   H863 6635   4.477   1.623   6.036  0.3003 -0.3573 -1.0184
    7MOL   H864 6636   4.578   1.821   6.139 -1.2991 -0.2888 -0.1299
    7MOL   H865 6637   4.645   1.807   5.974 -0.0150  0.1634 -0.3938
    7MOL   N866 6638   4.588   2.068   6.058 -0.0002  0.3824  0.2445
    7MOL   C867 6639   4.610   2.199   5.999 -0.2468  0.6126  0.1747
    7MOL   C868 6640   4.706   2.284   6.075  0.3052  0.6130 -0.0820
    7MOL   C869 6641   4.834   2.306   6.013 -0.3439  0.0543 -0.0007
    7MOL   C870 6642   4.926   2.382   6.078  0.0018  1.1031  0.5376
    7MOL   C871 6643   4.889   2.439   6.205 -0.9207  0.2112 -0.2815
    7MOL   C872 6644   4.763   2.426   6.262 -0.0879  0.1118  0.6891
    7MOL   C873 6645   4.672   2.343   6.196 -0.8240  0.6803 -1.0017
    7MOL   C874 6646   4.534   2.320   6.248  0.0596  0.3430 -0.2014
    7MOL   N875 6647   4.486   2.370   6.379  0.1492 -0.1343  0.4576
    7MOL   C876 6648   4.492   2.492   6.427  0.3262  0.1862 -0.6969
    7MOL   O877 6649   4.533   2.584   6.358  0.4209  0.5022  0.1955
    7MOL   C878 6650   4.428   2.524   6.569 -0.4185 -0.4300  0.3729
    7MOL   C879 6651   4.305   2.616   6.568  0.1751 -0.5075 -0.0399
    7MOL   C880 6652   4.172   2.550   6.527  0.0594  1.0524 -0.5072
    7MOL   C881 6653   4.112   2.457   6.627  0.0184  0.2450 -0.0026
    7MOL   C882 6654   3.961   2.444   6.586 -0.4880 -0.2402 -0.7412
    7MOL   C883 6655   3.943   2.336   6.481  0.1668  0.5772  0.0069
    7MOL   C884 6656   3.796   2.315   6.444 -0.9845  0.5096 -0.4109
    7MOL   C885 6657   3.769   2.183   6.371 -0.4840  0.5127  0.8330
    7MOL   C886 6658   3.775   2.053   6.452 -0.3975 -0.7255  0.7086
    7MOL   O887 6659   3.682   2.024   6.522  0.2041 -0.1870  0.3026
    7MOL   H888 6660   4.629   2.044   6.147 -0.7319 -2.3278 -0.0977
    7MOL   H889 6661   4.643   2.186   5.896  1.1640 -0.2174  0.7228
    7MOL   H890 6662   4.515   2.250   5.988 -0.5151  0.0833  0.0297
    7MOL   H891 6663   4.849   2.261   5.916 -2.3152 -0.3303 -0.1575
    7MOL   H892 6664   5.018   2.410   6.029  0.2387 -2.0515 -0.9154
    7MOL   H893 6665   4.959   2.504   6.255  0.3255 -1.6956  0.4783
    7MOL   H894 6666   4.749   2.480   6.354  2.1865  0.0751  1.0953
    7MOL   H895 6667   4.533   2.213   6.266  1.4087  0.2069 -0.9600
    7MOL   H896 6668   4.453   2.350   6.181 -0.7934 -3.0827 -0.8077
    7MOL   H897 6669   4.429   2.320   6.446  1.1480  1.2022  2.3466
    7MOL   H898 6670   4.506   2.577   6.623  0.9778 -0.8482 -1.2042
    7MOL   H899 6671   4.408   2.434   6.627 -1.1341 -0.0082  0.7917
    7MOL   H900 6672   4.324   2.692   6.492  1.0171 -0.1492  0.5201
    7MOL   H901 6673   4.293   2.680   6.655  2.0598  0.1006 -0.2032
    7MOL   H902 6674   4.102   2.630   6.501 -0.2519  0.7796 -0.5038
    7MOL   H903 6675   4.193   2.492   6.437  0.1840  0.6302 -0.2017
    7MOL   H904 6676   4.164   2.361   6.632 -1.5666 -0.6153  0.1895
    7MOL   H905 6677   4.120   2.493   6.730  2.6199 -0.2730  0.0179
    7MOL   H906 6678   3.905   2.409   6.673 -0.0554 -1.3651 -0.9157
    7MOL   H907 6679   3.906   2.535   6.561 -2.1461 -0.6418  1.2374
    7MOL   H908 6680   3.995   2.246   6.514 -0.8779  0.3012  0.9363
    7MOL   H909 6681   3.994   2.356   6.387  2.4262  2.5892  1.5807
    7MOL   H910 6682   3.735   2.315   6.534 -0.9556 -0.6920 -0.3907
    7MOL   H911 6683   3.767   2.404   6.388 -1.4977  2.3986  2.7596
    7MOL   H912 6684   3.670   2.189   6.326 -0.2234  0.4123  0.2510
    7MOL   H913 6685   3.842   2.184   6.290  0.3706  0.8168  1.5932
    7MOL   N914 6686   3.876   1.970   6.425 -0.3797  0.2139  0.0732
    7MOL   C915 6687   3.899   1.830   6.471  0.2753 -0.8212 -0.6530
    7MOL   C916 6688   3.884   1.732   6.360 -0.5957  0.5568  0.2938
    7MOL   C917 6689   3.807   1.761   6.246 -0.3248 -0.5301 -0.7050
    7MOL   C918 6690   3.794   1.666   6.141  0.8903 -0.5173  0.0640
    7MOL   C919 6691   3.843   1.539   6.154 -0.2119 -0.3098  0.0025
    7MOL   C920 6692   3.924   1.508   6.267 -0.1928  0.4960 -0.2901
    7MOL   C921 6693   3.939   1.597   6.379  0.5043 -0.0125  0.5852
    7MOL   C922 6694   4.018   1.550   6.491 -0.6734  0.0217  0.5579
    7MOL   N923 6695   4.162   1.511   6.476 -0.3659 -0.1679  0.1029
    7MOL   C924 6696   4.258   1.604   6.464 -0.4270 -0.4522 -0.1061
    7MOL   O925 6697   4.240   1.718   6.495 -0.0791  0.1087 -0.7793
    7MOL   C926 6698   4.397   1.550   6.423  0.0193  0.3981  0.7421
    7MOL   C927 6699   4.526   1.639   6.446 -0.5455  0.1327 -0.0052
    7MOL   C928 6700   4.545   1.660   6.596  0.3595 -0.1039 -0.1815
    7MOL   C929 6701   4.617   1.551   6.680  0.9896 -0.6093  0.2089
    7MOL   C930 6702   4.651   1.595   6.819  0.4372 -0.6077 -0.0617
    7MOL   C931 6703   4.709   1.505   6.918 -0.9280  0.6285  0.3348
    7MOL   C932 6704   4.613   1.431   7.000 -0.5450 -0.2190  0.5102
    7MOL   C933 6705   4.683   1.340   7.110 -0.7610 -0.7106 -0.1459
    7MOL   C934 6706   4.747   1.224   7.047 -0.0821  1.0789 -0.4789
    7MOL   O935 6707   4.692   1.170   6.953  0.7774  0.2711  0.2336
    7MOL   H936 6708   3.932   1.995   6.345  1.7533  0.3928  1.5829
    7MOL   H937 6709   4.000   1.824   6.511  0.0695  0.3954  0.0630
    7MOL   H938 6710   3.837   1.812   6.559 -1.0763  2.8323 -0.7820
    7MOL   H939 6711   3.750   1.852   6.231 -1.0412 -0.9643 -0.6527
    7MOL   H940 6712   3.731   1.693   6.057  1.0923  1.4630  0.5157
    7MOL   H941 6713   3.834   1.453   6.090 -0.6171 -0.8850  0.8241
    7MOL   H942 6714   3.961   1.409   6.291  1.8833  1.6748  1.6030
    7MOL   H943 6715   3.968   1.462   6.532  0.8341 -0.2498  1.8501
    7MOL   H944 6716   4.013   1.622   6.573  0.5838 -2.2716  2.7109
    7MOL   H945 6717   4.186   1.413   6.472  0.5161  0.0479  0.1647
    7MOL   H946 6718   4.384   1.521   6.318  0.0009  0.9507  0.5908
    7MOL   H947 6719   4.412   1.457   6.477 -1.2507  0.1253  0.6473
    7MOL   H948 6720   4.513   1.732   6.391 -0.9200 -0.3573 -0.7659
    7MOL   H949 6721   4.613   1.606   6.389 -1.4667 -0.2532 -1.2075
    7MOL   H950 6722   4.612   1.747   6.598  2.5069 -1.7287  1.1334
    7MOL   H951 6723   4.452   1.686   6.647  1.1111 -0.4560  1.4012
    7MOL   H952 6724   4.551   1.465   6.664  0.6866 -0.0591 -1.6394
    7MOL   H953 6725   4.707   1.528   6.623 -0.7704 -0.1787 -2.8962
    7MOL   H954 6726   4.558   1.636   6.859  0.6462 -2.4573  2.4774
    7MOL   H955 6727   4.722   1.677   6.819  0.6151 -0.7622 -0.4465
    7MOL   H956 6728   4.778   1.439   6.866  0.7695  0.4593  2.7656
    7MOL   H957 6729   4.790   1.556   6.970 -0.8356  1.6863 -0.8146
    7MOL   H958 6730   4.535   1.391   6.935 -0.5613 -1.4404  1.2673
    7MOL   H959 6731   4.561   1.509   7.057  2.2837  1.6411  0.6385
    7MOL   H960 6732   4.600   1.306   7.171 -0.8825  0.2751  0.2445
    7MOL   H961 6733   4.751   1.396   7.175 -1.5928 -0.1709  0.2627
    7MOL   H962 6734   4.845   1.199   7.088 -0.1895  1.6715  0.1458
    8MOL     N1 6735   5.055   0.504   6.638  0.6245 -0.4934 -0.3548
    8MOL     C2 6736   5.033   0.377   6.709  0.0475 -0.3724 -0.5572
    8MOL     C3 6737   5.123   0.366   6.827 -0.3231  0.1562  0.1796
    8MOL     C4 6738   5.240   0.288   6.815 -0.5093  0.3562 -0.3524
    8MOL     C5 6739   5.331   0.270   6.924 -0.4856 -0.2074 -0.0435
    8MOL     C6 6740   5.310   0.349   7.043  0.3224  0.6759  0.1278
    8MOL     C7 6741   5.188   0.418   7.058 -0.3101  0.0854 -0.3167
    8MOL     C8 6742   5.092   0.429   6.954  0.3322 -0.2225  0.6755
    8MOL     C9 6743   4.966   0.505   6.976 -0.2779  0.6221 -0.2125
    8MOL    N10 6744   4.850   0.419   6.974  0.3230  0.4610 -0.1052
    8MOL    C11 6745   4.751   0.413   7.063 -0.0816 -0.0113  0.0076
    8MOL    O12 6746   4.741   0.490   7.155  0.3809 -0.3949  0.0692
    8MOL    C13 6747   4.650   0.299   7.049  0.0315 -0.9111 -0.0098
    8MOL    C14 6748   4.513   0.319   7.129  0.1309  0.4108  0.5009
    8MOL    C15 6749   4.390   0.235   7.083  0.2309  0.4132 -0.0474
    8MOL    C16 6750   4.270   0.259   7.184 -0.3695 -0.6085 -0.4040
    8MOL    C17 6751   4.171   0.137   7.187  0.2613 -0.6439  0.4098
    8MOL    C18 6752   4.060   0.166   7.293  0.0268  0.2635  0.3737
    8MOL    C19 6753   3.947   0.069   7.267  0.4435 -0.6838 -0.3284
    8MOL    C20 6754   3.850   0.122   7.161 -0.7513  0.9466  0.1394
    8MOL    C21 6755   3.743   0.023   7.110 -0.4031  0.1233 -0.6777
    8MOL    O22 6756   3.756   7.692   7.127 -0.3747 -0.0604  0.5535
    8MOL    H23 6757   4.975   0.563   6.653 -0.1171 -1.0087 -2.0993
    8MOL    H24 6758   4.929   0.366   6.736  0.3611 -0.4820  0.6292
    8MOL    H25 6759   5.049   0.291   6.644  1.7200 -0.7834  0.3652
    8MOL    H26 6760   5.264   0.248   6.718  2.4442 -0.6734  0.7159
    8MOL    H27 6761   5.421   0.210   6.917 -0.9808 -0.9165 -0.3826
    8MOL    H28 6762   5.376   0.345   7.128 -2.9848 -1.7242  2.7102
    8MOL    H29 6763   5.166   0.464   7.154 -1.1426  0.9235 -0.9093
    8MOL    H30 6764   4.971   0.572   6.890 -2.2637  1.6969  0.4961
    8MOL    H31 6765   4.979   0.559   7.070 -0.1969 -0.7740  0.5931
    8MOL    H32 6766   4.848   0.357   6.894  0.2020 -1.4483  1.3437
    8MOL    H33 6767   4.694   0.205   7.080 -0.2755 -1.3046 -0.7383
    8MOL    H34 6768   4.619   0.284   6.945 -0.4366  1.6554 -0.2840
    8MOL    H35 6769   4.481   0.423   7.130 -3.5170 -0.6415  0.5587
    8MOL    H36 6770   4.528   0.295   7.234 -0.1111 -0.8096  0.2682
    8MOL    H37 6771   4.367   0.263   6.980  1.4808  1.7683  0.0223
    8MOL    H38 6772   4.421   0.132   7.102  1.1810  0.4868 -1.0949
    8MOL    H39 6773   4.302   0.282   7.286 -0.5451 -0.9318 -0.2741
    8MOL    H40 6774   4.215   0.350   7.162  1.2228  0.5741  0.3546
    8MOL    H41 6775   4.137   0.122   7.085 -2.5323 -0.4169  1.2488
    8MOL    H42 6776   4.222   0.043   7.204  0.5276 -0.8090 -1.2715
    8MOL    H43 6777   4.030   0.270   7.289 -1.8756 -0.1695  2.5696
    8MOL    H44 6778   4.097   0.147   7.394 -1.3655 -4.9102  0.0846
    8MOL    H45 6779   3.985   7.758   7.252  0.8693 -0.7459  1.0996
    8MOL    H46 6780   3.884   0.056   7.355 -0.3451  1.9249 -0.4623
    8MOL    H47 6781   3.905   0.150   7.071 -1.7903 -1.7527 -1.3965
    8MOL    H48 6782   3.805   0.212   7.204 -0.8942  0.6451  0.6255
    8MOL    H49 6783   5.051   0.480   6.540 -0.9716 -2.5894  0.1751
    8MOL    N50 6784   3.640   0.074   7.043  0.2609 -0.1702  0.2865
    8MOL    C51 6785   3.525   0.003   6.996  0.6681 -1.0021 -0.1872
    8MOL    C52 6786   3.558   7.741   6.857 -0.2874 -0.5566 -0.6117
    8MOL    C53 6787   3.557   7.600   6.829 -0.0780 -0.2698 -0.4455
    8MOL    C54 6788   3.587   7.552   6.699  0.1586  0.0487  0.2693
    8MOL    C55 6789   3.618   7.643   6.597  0.5723 -0.7502  0.7891
    8MOL    C56 6790   3.626   7.781   6.622  0.1239 -0.2373 -0.3466
    8MOL    C57 6791   3.591   0.038   6.750 -0.1041 -0.1423 -0.5471
    8MOL    C58 6792   3.580   0.194   6.766 -0.4680 -0.8130  0.3039
    8MOL    N59 6793   3.447   0.255   6.784  0.2808 -0.1616  0.1179
    8MOL    C60 6794   3.411   0.331   6.889 -0.0429  0.4274 -0.1936
    8MOL    O61 6795   3.479   0.339   6.993  0.5320 -0.0268  0.4945
    8MOL    C62 6796   3.278   0.401   6.889  0.3333  0.1865  0.1951
    8MOL    C63 6797   3.219   0.404   7.035 -0.6058 -0.0945  0.2340
    8MOL    C64 6798   3.066   0.389   7.026  0.1963 -0.0771 -0.4428
    8MOL    C65 6799   3.001   0.371   7.163 -0.0088 -0.1541 -0.3936
    8MOL    C66 6800   2.847   0.359   7.159 -0.5422  0.2466  0.1139
    8MOL    C67 6801   2.780   0.349   7.294 -0.3728  0.0612  0.1522
    8MOL    C68 6802   2.811   0.224   7.369 -0.0592 -0.8032  0.5433
    8MOL    C69 6803   2.720   0.219   7.499 -0.6880 -0.0896 -0.3891
    8MOL    C70 6804   2.748   0.321   7.604 -0.3382 -0.6673  0.6008
    8MOL    O71 6805   2.659   0.398   7.632  0.7596 -0.0377  0.1823
    8MOL    H72 6806   3.650   0.173   7.025 -0.3652 -0.1619 -0.0106
    8MOL    H73 6807   3.435   0.062   7.012  0.3851 -1.4994  0.0403
    8MOL    H74 6808   3.509   7.710   7.064  0.1037 -0.1678  0.7185
    8MOL    H75 6809   3.531   7.539   6.915 -1.2599  0.0772 -0.5459
    8MOL    H76 6810   3.576   7.446   6.681 -3.0049  0.4121 -0.3094
    8MOL    H77 6811   3.641   7.612   6.496 -0.1812  0.1717  0.3291
    8MOL    H78 6812   3.649   0.056   6.539 -2.0029  0.4097 -0.4612
    8MOL    H79 6813   3.620   0.240   6.676  0.3759 -0.8873  0.6397
    8MOL    H80 6814   3.654   0.218   6.842 -1.9842 -0.1178  1.6041
    8MOL    H81 6815   3.385   0.250   6.704  2.7229  3.0690 -2.1417
    8MOL    H82 6816   3.204   0.367   6.817 -0.1227  0.3829  0.5686
    8MOL    H83 6817   3.303   0.504   6.866 -1.5158  0.7450  0.6571
    8MOL    H84 6818   3.246   0.494   7.089  0.4082 -0.2846  0.0606
    8MOL    H85 6819   3.252   0.320   7.097  1.2999 -0.8721 -1.7988
    8MOL    H86 6820   3.031   0.485   6.987 -0.0271 -0.3443 -0.8930
    8MOL    H87 6821   3.038   0.311   6.955  2.7080 -0.2204 -1.3210
    8MOL    H88 6822   3.045   0.279   7.201 -0.9287 -0.1011  0.8289
    8MOL    H89 6823   3.032   0.454   7.226  0.8198  1.2169 -2.5756
    8MOL    H90 6824   2.801   0.445   7.111 -1.7875 -1.5683 -2.0209
    8MOL    H91 6825   2.828   0.281   7.086 -0.6983  1.1286 -0.7988
    8MOL    H92 6826   2.672   0.358   7.283 -0.5324 -0.1025  1.4530
    8MOL    H93 6827   2.799   0.436   7.357  2.5428  0.9164 -1.8034
    8MOL    H94 6828   2.916   0.222   7.400  0.2727 -1.1098 -0.5919
    8MOL    H95 6829   2.784   0.140   7.305 -1.2461  0.8593 -1.1873
    8MOL    H96 6830   2.738   0.126   7.552  1.7078  0.0286 -0.9157
    8MOL    H97 6831   2.613   0.218   7.482 -0.5055 -1.8494 -1.5162
    8MOL    N98 6832   2.868   0.337   7.664  0.2576  0.6804  0.1380
    8MOL    C99 6833   2.910   0.445   7.755  0.5531 -0.3397  0.8208
    8MOL   C100 6834   3.009   0.409   0.075  0.5246 -0.1163 -0.7129
    8MOL   C101 6835   2.997   0.284   0.129  0.1498  0.6101 -0.5423
    8MOL   C102 6836   3.072   0.248   0.241 -0.0770  0.0179 -0.7809
    8MOL   C103 6837   3.150   0.342   0.308 -0.5497  0.2822 -0.7114
    8MOL   C104 6838   3.170   0.466   0.245  0.4901  0.1741 -0.2989
    8MOL   C105 6839   3.101   0.501   0.129 -0.6929  0.0635  0.0947
    8MOL   C106 6840   3.113   0.646   0.075 -0.3654  1.0780  0.3033
    8MOL   N107 6841   3.001   0.727   0.119  0.3065  0.3074  0.0110
    8MOL   C108 6842   2.929   0.811   0.048 -0.3165  0.3655  0.4555
    8MOL   O109 6843   2.958   0.848   7.719 -0.6445  0.3881  0.2357
    8MOL   C110 6844   2.814   0.879   0.124 -0.1412 -0.6019  0.5915
    8MOL   C111 6845   2.834   1.032   0.124 -0.3651  0.2532  0.5198
    8MOL   C112 6846   2.719   1.117   0.165  0.5070 -0.2410  0.2301
    8MOL   C113 6847   2.710   1.145   0.316  0.1069 -0.2950 -0.2105
    8MOL   C114 6848   2.562   1.155   0.365 -0.0802  0.1971  0.0876
    8MOL   C115 6849   2.544   1.205   0.502  0.2806 -0.0998 -0.3334
    8MOL   C116 6850   2.638   1.140   0.612 -0.4848  0.0430 -0.2827
    8MOL   C117 6851   2.653   1.205   0.751  0.6468 -0.1746  0.5040
    8MOL   C118 6852   2.664   1.352   0.759  0.2512  0.4817  0.4380
    8MOL   O119 6853   2.746   1.405   0.685  0.2817 -0.1619 -0.8769
    8MOL   H120 6854   2.936   0.282   7.615 -1.1243 -2.7085  1.8451
    8MOL   H121 6855   2.960   0.524   7.698 -0.1950 -0.4509 -0.0020
    8MOL   H122 6856   2.821   0.492   0.006 -0.8759 -2.2207 -0.0454
    8MOL   H123 6857   2.927   0.212   0.090  2.4191 -0.2774 -3.1622
    8MOL   H124 6858   3.059   0.152   0.289 -2.1123  1.5342  1.7864
    8MOL   H125 6859   3.207   0.327   0.399 -1.6277 -0.4686 -0.1563
    8MOL   H126 6860   3.224   0.538   0.304 -0.3299 -0.0282  0.7053
    8MOL   H127 6861   3.116   0.632   7.757 -2.6366  0.5391  0.2958
    8MOL   H128 6862   3.205   0.691   0.113 -0.1585  1.2542 -0.3870
    8MOL   H129 6863   2.961   0.706   0.210 -1.9240 -1.2011 -1.2778
    8MOL   H130 6864   2.813   0.838   0.225 -0.1426 -1.6546  0.1675
    8MOL   H131 6865   2.721   0.861   0.070  0.1192 -1.2433  0.3544
    8MOL   H132 6866   2.851   1.058   0.019 -2.7763 -0.4314 -0.0605
    8MOL   H133 6867   2.932   1.047   0.171 -0.2614 -3.7211  1.7649
    8MOL   H134 6868   2.718   1.212   0.111  0.9039 -0.5750 -0.3721
    8MOL   H135 6869   2.625   1.075   0.130 -1.0018  3.8677 -0.9895
    8MOL   H136 6870   2.744   1.058   0.371  1.5162  1.4884  1.7861
    8MOL   H137 6871   2.767   1.233   0.347 -1.8056  0.9940 -0.1972
    8MOL   H138 6872   2.527   1.228   0.292 -0.2008 -0.8832 -0.9548
    8MOL   H139 6873   2.509   1.061   0.348 -1.6300  1.0313  0.2566
    8MOL   H140 6874   2.442   1.179   0.530  0.1480 -0.3349 -1.0140
    8MOL   H141 6875   2.559   1.313   0.495  1.1440 -0.2480 -0.8149
    8MOL   H142 6876   2.626   1.032   0.623  2.8571 -0.3592 -0.1474
    8MOL   H143 6877   2.742   1.152   0.582 -0.3799  3.6367  1.2611
    8MOL   H144 6878   2.746   1.169   0.796  2.7512 -0.7834 -3.9801
    8MOL   H145 6879   2.579   1.164   0.819 -0.8133  0.5714 -0.6014
    8MOL   N146 6880   2.588   1.417   0.850  0.2987  0.4596 -0.2425
    8MOL   C147 6881   2.553   1.555   0.850 -0.7071 -0.0496 -0.6652
    8MOL   C148 6882   2.472   1.593   0.724  0.0659 -0.1608  0.1830
    8MOL   C149 6883   2.356   1.520   0.688  0.3253  0.1711 -0.0474
    8MOL   C150 6884   2.288   1.540   0.562  0.2367 -0.0262 -0.1966
    8MOL   C151 6885   2.329   1.645   0.477 -0.2061  0.2067  0.3876
    8MOL   C152 6886   2.432   1.729   0.521 -0.8822  0.0924  0.0511
    8MOL   C153 6887   2.509   1.701   0.639  0.1446 -0.1723  0.3233
    8MOL   C154 6888   2.628   1.796   0.661 -0.2182  0.4236  0.3139
    8MOL   N155 6889   2.760   1.728   0.648  1.0390  0.9271 -0.3247
    8MOL   C156 6890   2.868   1.788   0.696 -0.0377 -0.0405  0.2771
    8MOL   O157 6891   2.870   1.908   0.726 -0.4399 -0.2165  0.2478
    8MOL   C158 6892   3.006   1.715   0.684 -0.0104  0.2942  0.4762
    8MOL   C159 6893   3.079   1.698   0.815  0.0887 -1.0723  0.6873
    8MOL   C160 6894   3.225   1.748   0.816 -0.0600 -0.7999  0.2729
    8MOL   C161 6895   3.318   1.696   0.926 -0.0738 -0.1842  0.0225
    8MOL   C162 6896   3.463   1.740   0.911  0.2379 -0.7255 -0.1798
    8MOL   C163 6897   3.546   1.701   1.033  0.1609  0.3696  0.6433
    8MOL   C164 6898   3.531   1.801   1.151 -0.3260 -0.5828  0.1478
    8MOL   C165 6899   3.621   1.781   1.282 -0.4016  0.1241  0.4004
    8MOL   C166 6900   3.623   1.640   1.343 -0.5801  0.6419  0.0132
    8MOL   O167 6901   3.544   1.603   1.429 -0.5417 -0.3003  0.3528
    8MOL   H168 6902   2.548   1.355   0.919  0.5028 -1.0284 -1.4323
    8MOL   H169 6903   2.644   1.607   0.881 -1.3194  1.2510 -1.0434
    8MOL   H170 6904   2.481   1.567   0.931 -0.0433  0.4368 -0.1407
    8MOL   H171 6905   2.317   1.455   0.764  2.4625 -0.0995  0.8462
    8MOL   H172 6906   2.200   1.482   0.538 -1.0471  1.6644  0.3568
    8MOL   H173 6907   2.273   1.651   0.385  1.1360  1.3042 -0.3819
    8MOL   H174 6908   2.461   1.804   0.450  1.5395  0.9930  1.9301
    8MOL   H175 6909   2.611   1.830   0.763  0.1267 -1.9024  1.1667
    8MOL   H176 6910   2.628   1.882   0.593  3.1039  1.2631  1.2699
    8MOL   H177 6911   2.766   1.628   0.636  1.3020  0.9179 -0.1373
    8MOL   H178 6912   3.061   1.758   0.600 -1.2798 -0.8040 -0.9430
    8MOL   H179 6913   2.999   1.613   0.648 -2.8709  0.0337  1.7028
    8MOL   H180 6914   3.089   1.590   0.832  2.1356 -1.2841 -1.5553
    8MOL   H181 6915   3.022   1.733   0.901 -2.1534 -1.2180 -0.6857
    8MOL   H182 6916   3.282   1.727   0.726  0.1340  0.6867  0.0301
    8MOL   H183 6917   3.216   1.856   0.799  1.8085 -0.1003  3.4219
    8MOL   H184 6918   3.279   1.733   1.021  1.2788  2.7898 -0.5110
    8MOL   H185 6919   3.324   1.588   0.932 -1.4564 -0.2724  0.1042
    8MOL   H186 6920   3.502   1.688   0.824 -1.6863  1.3961 -2.3634
    8MOL   H187 6921   3.457   1.847   0.888 -0.8269 -0.4588  1.2515
    8MOL   H188 6922   3.653   1.709   1.016  0.4092 -0.5436  1.7427
    8MOL   H189 6923   3.523   1.601   1.069 -0.7726 -0.6397 -2.5308
    8MOL   H190 6924   3.549   1.899   1.106 -0.2085 -0.2748  0.8619
    8MOL   H191 6925   3.430   1.794   1.191 -0.3671  0.3474  0.2177
    8MOL   H192 6926   3.591   1.855   1.356  1.5656  0.5765  0.7734
    8MOL   H193 6927   3.724   1.803   1.255 -0.5419  0.4138  0.0901
    8MOL   N194 6928   3.720   1.565   1.290 -0.3420 -0.6055  0.3372
    8MOL   C195 6929   3.747   1.423   1.320 -0.0079  0.2982 -0.2802
    8MOL   C196 6930   3.813   1.406   1.454  0.3405  0.2849  0.2936
    8MOL   C197 6931   3.736   1.406   1.571  0.2637  0.1833  0.4329
    8MOL   C198 6932   3.794   1.384   1.694  0.7752  0.3459 -0.2398
    8MOL   C199 6933   3.934   1.370   1.708 -0.8009 -0.1493 -0.2428
    8MOL   C200 6934   4.015   1.372   1.593 -0.0584  0.1003  0.1898
    8MOL   C201 6935   3.956   1.393   1.470  0.6939  0.9404 -0.1668
    8MOL   C202 6936   4.057   1.397   1.351 -0.2419  0.9031  0.9894
    8MOL   N203 6937   4.032   1.505   1.255 -0.2299 -0.0739  0.2524
    8MOL   C204 6938   4.098   1.618   1.252 -0.1506 -1.0161  0.2267
    8MOL   O205 6939   4.089   1.700   1.161 -0.0618  0.2426  0.1517
    8MOL   C206 6940   4.190   1.666   1.370 -0.3520 -0.5916 -0.8059
    8MOL   C207 6941   4.176   1.815   1.414 -0.3087 -0.4067 -0.0256
    8MOL   C208 6942   4.055   1.836   1.516 -0.1214 -0.8024  0.7186
    8MOL   C209 6943   4.094   1.792   1.659  0.5524 -0.1763 -0.2223
    8MOL   C210 6944   3.985   1.833   1.769 -0.5951  0.8412 -0.5629
    8MOL   C211 6945   3.846   1.767   1.749 -0.4525 -0.2116  0.4871
    8MOL   C212 6946   3.752   1.797   1.870 -0.4029 -0.7388 -0.1978
    8MOL   C213 6947   3.704   1.941   1.865  0.5917 -0.5651  0.2947
    8MOL   C214 6948   3.623   1.958   1.990  0.5602  0.7749  0.7253
    8MOL   O215 6949   3.683   1.987   2.094 -0.1572  0.0006  0.2335
    8MOL   H216 6950   3.787   1.602   1.224  1.2547 -0.3571  2.0743
    8MOL   H217 6951   3.652   1.373   1.342  0.0908  0.7033  1.1353
    8MOL   H218 6952   3.788   1.358   1.243  1.6075  0.5210  0.3759
    8MOL   H219 6953   3.631   1.428   1.554  0.0463 -1.1898 -0.0458
    8MOL   H220 6954   3.727   1.391   1.778 -1.5271  0.7548 -2.0484
    8MOL   H221 6955   3.978   1.357   1.806 -0.4150  0.6655 -0.3083
    8MOL   H222 6956   4.122   1.382   1.601 -0.0371 -0.9724  1.3909
    8MOL   H223 6957   4.029   1.310   1.293  0.5686  2.4172 -1.7417
    8MOL   H224 6958   4.163   1.386   1.375 -0.3858 -1.3406  0.6489
    8MOL   H225 6959   3.975   1.486   1.174 -0.1528  1.5696 -0.2090
    8MOL   H226 6960   4.291   1.640   1.339  2.2837  3.7791  3.4783
    8MOL   H227 6961   4.179   1.609   1.462 -1.2721  1.1496  0.1718
    8MOL   H228 6962   4.267   1.847   1.465  0.0307 -1.3229 -0.0390
    8MOL   H229 6963   4.178   1.881   1.327  0.7486 -0.9476 -0.4189
    8MOL   H230 6964   4.040   1.943   1.530 -0.1881 -0.6735 -0.3224
    8MOL   H231 6965   3.962   1.793   1.478 -1.6221  1.8891  1.2496
    8MOL   H232 6966   4.114   1.685   1.668  1.0823 -0.0170  0.5373
    8MOL   H233 6967   4.184   1.846   1.686  0.3124 -0.2483  0.7416
    8MOL   H234 6968   4.017   1.803   1.869  3.6440 -1.9549 -2.6151
    8MOL   H235 6969   3.972   1.941   1.775 -0.9624  0.8310 -1.0936
    8MOL   H236 6970   3.858   1.659   1.736  0.5545 -0.0500  0.0370
    8MOL   H237 6971   3.786   1.806   1.667 -1.4719  0.9022  1.7388
    8MOL   H238 6972   3.801   1.779   1.966 -0.2215 -0.3835 -0.2244
    8MOL   H239 6973   3.661   1.738   1.881 -1.3795  0.9807  1.1905
    8MOL   H240 6974   3.785   2.014   1.877  0.3065 -0.1665 -0.2100
    8MOL   H241 6975   3.656   1.966   1.771  1.9664 -1.5863 -0.6932
    8MOL   N242 6976   3.490   1.943   1.989 -0.1951 -0.1901 -0.2349
    8MOL   C243 6977   3.417   1.961   2.111  0.7822  0.2937  0.2430
    8MOL   C244 6978   3.264   1.934   2.100 -0.0099  0.2940  0.0195
    8MOL   C245 6979   3.174   2.032   2.037 -0.1841 -0.2447  1.4699
    8MOL   C246 6980   3.040   2.009   2.011  0.5532  0.4845  0.9386
    8MOL   C247 6981   2.985   1.890   2.057 -0.1307 -0.6551  0.4421
    8MOL   C248 6982   3.061   1.798   2.130  0.1544 -0.8104  0.1015
    8MOL   C249 6983   3.203   1.818   2.150 -0.2332  0.0885 -0.0112
    8MOL   C250 6984   3.278   1.719   2.242  0.0362 -0.6035 -0.3044
    8MOL   N251 6985   3.339   1.767   2.370  0.1479 -0.1896  0.6278
    8MOL   C252 6986   3.278   1.789   2.487  0.4232  0.3626 -1.0791
    8MOL   O253 6987   3.156   1.799   2.500  0.0733  0.4019 -0.0697
    8MOL   C254 6988   3.367   1.834   2.599 -0.9833 -0.0688 -1.0494
    8MOL   C255 6989   3.457   1.723   2.653  0.2292 -0.0381 -0.9429
    8MOL   C256 6990   3.587   1.761   2.734 -0.9029  0.2750 -0.0344
    8MOL   C257 6991   3.674   1.646   2.769  0.2790  0.7810 -0.5328
    8MOL   C258 6992   3.749   1.661   2.903 -0.2498  0.1815  0.0097
    8MOL   C259 6993   3.849   1.549   2.924 -0.1398  0.0231  0.1775
    8MOL   C260 6994   3.782   1.406   2.924 -0.3595 -0.1041 -0.4259
    8MOL   C261 6995   3.877   1.290   2.906 -0.0725 -0.3229 -0.3702
    8MOL   C262 6996   3.975   1.265   3.028  0.7403  0.2961 -0.6078
    8MOL   O263 6997   3.924   1.219   3.132 -0.6066  0.2854 -0.4133
    8MOL   H264 6998   3.447   1.919   1.900  2.0153 -0.6437 -1.2159
    8MOL   H265 6999   3.457   1.892   2.184  1.5708 -1.3171 -1.6848
    8MOL   H266 7000   3.424   2.060   2.156  1.3591 -0.3904  1.6962
    8MOL   H267 7001   3.220   2.121   1.995 -1.4720  0.1889  0.9382
    8MOL   H268 7002   2.983   2.075   1.948 -1.5657 -1.2729  0.9437
    8MOL   H269 7003   2.885   1.867   2.024 -1.0376  0.4822  2.2918
    8MOL   H270 7004   3.008   1.717   2.177 -0.4116  0.1023  1.0751
    8MOL   H271 7005   3.352   1.670   2.179  1.5733  0.4684  0.6254
    8MOL   H272 7006   3.210   1.637   2.263 -0.8851 -0.3690 -2.3168
    8MOL   H273 7007   3.440   1.773   2.373 -0.0157  3.3052  0.4258
    8MOL   H274 7008   3.310   1.881   2.679  0.0886 -0.1674 -0.2186
    8MOL   H275 7009   3.430   1.913   2.558 -2.0320  1.0070 -0.6313
    8MOL   H276 7010   3.492   1.660   2.571  0.3089 -0.1139 -0.8503
    8MOL   H277 7011   3.387   1.662   2.710 -1.3661  0.1839 -2.6201
    8MOL   H278 7012   3.566   1.824   2.821  1.3825  1.2886 -0.1848
    8MOL   H279 7013   3.648   1.825   2.670 -1.6996  0.4675 -0.6079
    8MOL   H280 7014   3.598   1.571   2.790  1.4666  0.0462  1.2374
    8MOL   H281 7015   3.740   1.619   2.686  0.7206  2.7191 -0.8429
    8MOL   H282 7016   3.804   1.755   2.905  1.2669 -0.7046  0.3721
    8MOL   H283 7017   3.689   1.656   2.994 -1.1667  0.2073 -0.5822
    8MOL   H284 7018   3.902   1.558   3.018  0.9877 -4.1234  0.0341
    8MOL   H285 7019   3.922   1.558   2.843 -0.1220 -0.6345  0.1147
    8MOL   H286 7020   3.726   1.402   3.018  0.9782  0.6253  0.4212
    8MOL   H287 7021   3.713   1.397   2.840 -0.3649  1.5082 -0.6040
    8MOL   H288 7022   3.822   1.195   2.906  0.2236 -0.5258  2.5152
    8MOL   H289 7023   3.921   1.292   2.806 -0.2089 -0.1254 -0.4258
    8MOL   N290 7024   4.104   1.290   3.017  0.5842  0.1879  0.2131
    8MOL   C291 7025   4.206   1.270   3.120 -0.0396  0.6789  0.1015
    8MOL   C292 7026   4.282   1.137   3.109  0.1229  0.3851 -0.4965
    8MOL   C293 7027   4.237   1.025   3.188  0.5056 -0.6126  0.2966
    8MOL   C294 7028   4.300   0.900   3.186  0.0295  0.4225  0.2795
    8MOL   C295 7029   4.403   0.881   3.100  0.0858 -0.2859 -0.1899
    8MOL   C296 7030   4.457   0.991   3.033 -0.2837 -0.3955 -0.0499
    8MOL   C297 7031   4.402   1.116   3.038 -0.0665 -0.4143  0.1451
    8MOL   C298 7032   4.465   1.224   2.958 -0.2754  0.2346  0.3469
    8MOL   N299 7033   4.416   1.225   2.825  0.5621  0.3649  0.5802
    8MOL   C300 7034   4.485   1.199   2.716 -0.0512 -0.1852  0.2045
    8MOL   O301 7035   4.606   1.220   2.712 -0.4041 -0.1305 -0.6686
    8MOL   C302 7036   4.421   1.151   2.584  0.3048  0.2395 -0.7054
    8MOL   C303 7037   4.426   0.996   2.567  0.0061  0.1940 -0.2020
    8MOL   C304 7038   4.363   0.913   2.677  0.1560  0.3359 -0.1711
    8MOL   C305 7039   4.209   0.912   2.694  0.3023 -0.2073  0.7524
    8MOL   C306 7040   4.165   0.812   2.802  0.2772  0.7367 -0.5933
    8MOL   C307 7041   4.034   0.850   2.880  0.8369 -0.0766  0.1229
    8MOL   C308 7042   3.904   0.891   2.809 -0.1148  0.4566 -0.9283
    8MOL   C309 7043   3.838   0.779   2.725 -0.8957  0.1637 -0.0221
    8MOL   C310 7044   3.798   0.659   2.812 -0.9953 -0.5997  0.0690
    8MOL   O311 7045   3.884   0.569   2.829 -0.0255  0.2638 -0.3908
    8MOL   H312 7046   4.138   1.298   2.922 -0.3386  2.8559  0.0721
    8MOL   H313 7047   4.266   1.361   3.127 -0.3961  0.8134  1.4122
    8MOL   H314 7048   4.157   1.267   3.217 -0.2196 -1.7591 -0.0369
    8MOL   H315 7049   4.145   1.038   3.244  1.0236  3.3397  0.3623
    8MOL   H316 7050   4.262   0.816   3.241 -0.3347  0.3979 -0.0108
    8MOL   H317 7051   4.456   0.788   3.088  3.3638  1.7996 -2.8334
    8MOL   H318 7052   4.552   0.974   2.984  0.8133  1.4585  1.3443
    8MOL   H319 7053   4.573   1.212   2.963 -0.2349 -1.4621 -3.0037
    8MOL   H320 7054   4.452   1.322   3.004 -3.9245 -0.1048  0.1791
    8MOL   H321 7055   4.316   1.229   2.832  0.6243  1.1663  1.0752
    8MOL   H322 7056   4.316   1.179   2.582  0.1443  0.0898  2.2155
    8MOL   H323 7057   4.465   1.205   2.501  2.4893  0.2582  0.4152
    8MOL   H324 7058   4.529   0.966   2.546  0.2331  1.3745 -0.8622
    8MOL   H325 7059   4.377   0.970   2.473 -0.6166 -1.8992  0.6724
    8MOL   H326 7060   4.398   0.952   2.772 -1.1760  3.2995 -0.8265
    8MOL   H327 7061   4.404   0.812   2.677 -1.3297 -0.2939  2.6984
    8MOL   H328 7062   4.171   1.009   2.727  1.4500  0.9740 -1.3089
    8MOL   H329 7063   4.156   0.900   2.599  0.5755  0.1825  0.5486
    8MOL   H330 7064   4.165   0.714   2.754  1.3495  1.0321 -1.1984
    8MOL   H331 7065   4.236   0.819   2.885  1.6988  1.7207 -1.8787
    8MOL   H332 7066   4.062   0.936   2.941 -0.0114  0.3226 -0.0313
    8MOL   H333 7067   4.022   0.772   2.955  0.3209  0.5205  0.6776
    8MOL   H334 7068   3.830   0.917   2.885  0.0741 -4.2623  1.0335
    8MOL   H335 7069   3.917   0.985   2.754 -2.0610  2.5343  1.9891
    8MOL   H336 7070   3.750   0.809   2.668 -0.7020  2.5146  0.8620
    8MOL   H337 7071   3.906   0.737   2.650 -1.7679 -1.4185  0.0613
    8MOL   N338 7072   3.671   0.662   2.863  0.0219 -0.1832 -0.2576
    8MOL   C339 7073   3.618   0.592   2.978  0.6697  0.5728  0.1478
    8MOL   C340 7074   3.663   0.657   3.106  0.0726 -0.3045  0.0366
    8MOL   C341 7075   3.782   0.613   3.163 -0.3228  0.4414 -0.1243
    8MOL   C342 7076   3.841   0.672   3.275 -0.3794 -0.2342  0.7978
    8MOL   C343 7077   3.772   0.775   3.343 -0.8910  0.4362  0.0155
    8MOL   C344 7078   3.659   0.831   3.284  0.3966  1.1925 -0.1775
    8MOL   C345 7079   3.601   0.768   3.168 -0.2053  0.2114  0.0610
    8MOL   C346 7080   3.475   0.831   3.108  0.5223  0.1339  0.0976
    8MOL   N347 7081   3.489   0.975   3.066  0.4656 -0.1207  0.0100
    8MOL   C348 7082   3.533   1.009   2.946 -0.1450 -0.1583 -0.0768
    8MOL   O349 7083   3.564   0.929   2.859  0.2079  0.0761  0.7260
    8MOL   C350 7084   3.543   1.162   2.919 -0.0043  0.8579 -0.9197
    8MOL   C351 7085   3.410   1.217   2.881  0.1685  0.1767 -0.0908
    8MOL   C352 7086   3.393   1.364   2.929 -0.9501 -0.0113  0.0065
    8MOL   C353 7087   3.288   1.444   2.855 -1.0784  0.4358  0.1550
    8MOL   C354 7088   3.243   1.564   2.928 -0.2898  0.3728 -0.0708
    8MOL   C355 7089   3.116   1.626   2.861  0.0417  0.2599 -0.8122
    8MOL   C356 7090   3.073   1.762   2.922  0.0483 -0.0863  0.9994
    8MOL   C357 7091   3.073   1.777   3.076  0.3090 -0.7342  0.2583
    8MOL   C358 7092   2.966   1.679   3.131  0.5120 -0.0765 -1.3715
    8MOL   O359 7093   2.850   1.686   3.086  0.7174  0.3534  0.3320
    8MOL   H360 7094   3.623   0.748   2.843 -0.4100  0.4303  3.1548
    8MOL   H361 7095   3.510   0.576   2.970  0.9313  0.2665 -4.1821
    8MOL   H362 7096   3.650   0.488   2.975  0.6235  0.5607  0.0616
    8MOL   H363 7097   3.843   0.541   3.110 -1.6067 -1.2525  0.6563
    8MOL   H364 7098   3.930   0.628   3.315 -0.5242 -0.5206  0.8025
    8MOL   H365 7099   3.811   0.814   3.436 -0.6914 -1.1066  0.5946
    8MOL   H366 7100   3.608   0.908   3.340 -1.4069 -0.7851  0.9673
    8MOL   H367 7101   3.391   0.825   3.177  0.2830  1.8811 -0.0135
    8MOL   H368 7102   3.439   0.770   3.025  0.3578  2.1205 -1.3295
    8MOL   H369 7103   3.482   1.053   3.130 -0.7819 -0.3138  0.1297
    8MOL   H370 7104   3.625   1.183   2.851  0.2253  0.1535 -0.8651
    8MOL   H371 7105   3.568   1.201   3.018 -0.5050 -1.5141  0.1636
    8MOL   H372 7106   3.332   1.151   2.921 -0.4749  1.8972  1.6293
    8MOL   H373 7107   3.400   1.213   2.773  0.7045  0.9863 -0.1779
    8MOL   H374 7108   3.370   1.371   3.035  0.8194 -1.6029  0.5314
    8MOL   H375 7109   3.484   1.423   2.915  0.8572 -2.1398  2.2277
    8MOL   H376 7110   3.205   1.377   2.833  0.0977 -0.2973 -2.2264
    8MOL   H377 7111   3.336   1.456   2.758 -1.6193  0.4675 -0.1136
    8MOL   H378 7112   3.215   1.535   3.029 -2.0932  0.9945 -0.3778
    8MOL   H379 7113   3.318   1.643   2.931  0.4017 -0.3175  0.9276
    8MOL   H380 7114   3.044   1.546   2.868  2.2038 -1.7175 -0.5769
    8MOL   H381 7115   3.153   1.636   2.758  2.0822 -1.0258 -0.2377
    8MOL   H382 7116   3.144   1.838   2.889  0.8507 -1.6296 -0.9319
    8MOL   H383 7117   2.978   1.790   2.877  0.7757 -2.0134 -1.9098
    8MOL   H384 7118   3.047   1.880   3.099  1.8109 -0.3074  0.1379
    8MOL   H385 7119   3.162   1.753   3.135 -1.2077  1.7729  3.7975
    8MOL   N386 7120   3.003   1.586   3.222  0.2078  0.5609 -0.5420
    8MOL   C387 7121   2.923   1.471   3.250  0.2834 -0.9103  0.0892
    8MOL   C388 7122   2.972   1.356   3.170 -0.1168  0.5945 -0.4062
    8MOL   C389 7123   2.891   1.326   3.060 -0.4890  0.0419 -0.4501
    8MOL   C390 7124   2.927   1.218   2.982  0.7099 -0.3267  0.0880
    8MOL   C391 7125   3.045   1.148   3.005 -0.6737 -0.6621 -0.9955
    8MOL   C392 7126   3.125   1.180   3.118  0.2098  0.2405 -0.1931
    8MOL   C393 7127   3.092   1.286   3.202  0.1204  1.0899 -0.8376
    8MOL   C394 7128   3.186   1.320   3.315  0.4757 -0.3985 -0.0720
    8MOL   N395 7129   3.215   1.213   3.407  0.1365  0.0849 -0.5030
    8MOL   C396 7130   3.324   1.136   3.408  0.2175 -0.3244  0.2860
    8MOL   O397 7131   3.407   1.146   3.318 -0.0403 -0.0828 -0.1199
    8MOL   C398 7132   3.343   1.036   3.516  0.1332  0.0282 -0.0098
    8MOL   C399 7133   3.315   0.897   3.483 -0.0881  0.5430 -0.0126
    8MOL   C400 7134   3.188   0.864   3.397  0.3538 -0.1922 -0.2857
    8MOL   C401 7135   3.062   0.909   3.468  0.7560 -0.1786 -0.8459
    8MOL   C402 7136   2.933   0.844   3.409 -0.9337 -0.2291  0.0144
    8MOL   C403 7137   2.932   0.688   3.415 -0.3507  0.2721 -0.1131
    8MOL   C404 7138   2.794   0.623   3.397 -0.4094 -0.0327  0.0655
    8MOL   C405 7139   2.814   0.473   3.371  0.5183 -0.8865  0.6375
    8MOL   C406 7140   2.853   0.398   3.498  0.6339  0.1829 -0.6697
    8MOL   O407 7141   2.772   0.390   3.590  0.0441  0.3631 -0.7223
    8MOL   H408 7142   3.096   1.587   3.262  0.1279  2.0513 -0.3742
    8MOL   H409 7143   2.933   1.450   3.356 -0.9172  0.9173  0.5942
    8MOL   H410 7144   2.817   1.490   3.236 -0.1028 -2.5041  0.7807
    8MOL   H411 7145   2.799   1.381   3.047 -0.1001  0.9735  0.6148
    8MOL   H412 7146   2.873   1.193   2.892  1.0238  1.4231 -0.6063
    8MOL   H413 7147   3.076   1.076   2.931  1.9518  1.4678 -2.0924
    8MOL   H414 7148   3.209   1.116   3.142  0.2675  0.6378  0.7050
    8MOL   H415 7149   3.142   1.399   3.376 -1.1413 -1.6820  0.4554
    8MOL   H416 7150   3.278   1.362   3.275  0.4196  0.4208  0.6544
    8MOL   H417 7151   3.148   1.200   3.482 -0.5874 -1.3135 -1.3661
    8MOL   H418 7152   3.449   1.051   3.539 -0.0373 -0.2409  0.9787
    8MOL   H419 7153   3.278   1.065   3.598 -1.3730  1.7042 -1.7398
    8MOL   H420 7154   3.311   0.832   3.570  1.1213  1.2070  0.5425
    8MOL   H421 7155   3.409   0.882   3.430 -0.8862  0.6335 -1.4940
    8MOL   H422 7156   3.188   0.756   3.382 -3.3243 -0.3110  0.1917
    8MOL   H423 7157   3.196   0.910   3.298 -1.7211 -0.0042 -0.3890
    8MOL   H424 7158   3.061   0.891   3.576 -0.4434 -1.9588 -1.1324
    8MOL   H425 7159   3.049   1.018   3.463  1.4647 -0.0574 -0.1502
    8MOL   H426 7160   2.848   0.880   3.468 -0.8906  0.3871 -0.2912
    8MOL   H427 7161   2.913   0.875   3.307 -0.8568  2.1536  0.6799
    8MOL   H428 7162   2.971   0.651   3.510  0.6039 -0.7220 -0.8812
    8MOL   H429 7163   3.007   0.643   3.351 -1.0355 -2.1129  0.7276
    8MOL   H430 7164   2.749   0.663   3.306  0.8655  0.0583 -0.5370
    8MOL   H431 7165   2.731   0.652   3.481 -2.2809  0.1086 -1.3645
    8MOL   H432 7166   2.883   0.448   3.290  0.4911 -1.7311  0.8753
    8MOL   H433 7167   2.722   0.437   3.327 -0.8674  0.1746  2.5803
    8MOL   N434 7168   2.975   0.347   3.513 -0.3865 -0.4269 -0.1109
    8MOL   C435 7169   3.015   0.276   3.634 -0.3168 -0.1995  0.0805
    8MOL   C436 7170   3.091   0.377   3.725 -0.2438 -0.0573  0.1096
    8MOL   C437 7171   3.021   0.464   3.809 -0.0972  0.4090 -0.0212
    8MOL   C438 7172   3.089   0.542   3.899 -0.2801  0.2761  0.0122
    8MOL   C439 7173   3.229   0.531   3.914 -0.4779 -0.5542 -0.7056
    8MOL   C440 7174   3.299   0.463   3.812 -0.2218  0.1846  0.2738
    8MOL   C441 7175   3.239   0.378   3.727  0.8710  0.0936  0.4946
    8MOL   C442 7176   3.331   0.288   3.645 -0.3982 -0.2040  0.4771
    8MOL   N443 7177   3.388   0.353   3.528  0.0258  0.5696  1.0155
    8MOL   C444 7178   3.326   0.361   3.408 -1.2555 -0.2134  0.0511
    8MOL   O445 7179   3.220   0.301   3.390  0.1413 -0.1406  0.1746
    8MOL   C446 7180   3.380   0.456   3.301  0.1974  0.6511  0.1840
    8MOL   C447 7181   3.311   0.432   3.170 -0.0590  0.7826  0.5656
    8MOL   C448 7182   3.331   0.303   3.085 -0.2114  0.5374  0.1402
    8MOL   C449 7183   3.291   0.315   2.945 -0.3983  0.2639 -0.2485
    8MOL   C450 7184   3.141   0.351   2.928  0.3790  0.6959  0.2679
    8MOL   C451 7185   3.039   0.254   3.002  0.2353  0.4456 -0.1474
    8MOL   C452 7186   3.007   0.123   2.934 -0.8599 -0.3883  0.0406
    8MOL   C453 7187   2.881   0.064   3.003 -0.7373  0.2641 -0.5714
    8MOL   C454 7188   2.754   0.124   2.956 -0.0651 -0.0028 -0.8840
    8MOL   O455 7189   2.755   0.202   2.861  0.1059 -0.1701 -0.3403
    8MOL   H456 7190   3.041   0.355   3.437  0.7648 -2.5200  0.6315
    8MOL   H457 7191   3.068   0.185   3.606 -1.6305 -0.6626 -0.9264
    8MOL   H458 7192   2.930   0.239   3.692 -2.2518 -0.6918 -2.9612
    8MOL   H459 7193   2.914   0.472   3.798 -0.4203 -0.4749  2.1396
    8MOL   H460 7194   3.024   0.603   3.960  0.4907  1.9826 -0.8612
    8MOL   H461 7195   3.290   0.579   3.989  0.0038 -0.6529 -1.0280
    8MOL   H462 7196   3.407   0.462   3.815 -0.2122  0.3546  0.0353
    8MOL   H463 7197   3.283   0.190   3.639  0.0636 -0.4654  0.9096
    8MOL   H464 7198   3.420   0.266   3.706 -0.3880 -2.5465 -0.3192
    8MOL   H465 7199   3.484   0.383   3.536  0.2391  0.0308  0.5320
    8MOL   H466 7200   3.487   0.456   3.282  0.2805 -1.2649  0.6064
    8MOL   H467 7201   3.366   0.560   3.333 -0.0173  0.4454  0.7595
    8MOL   H468 7202   3.346   0.521   3.117 -2.4553  1.2043 -0.3655
    8MOL   H469 7203   3.204   0.448   3.181 -0.1104  0.0784  1.1326
    8MOL   H470 7204   3.438   0.282   3.076 -0.2496  0.7173 -0.7950
    8MOL   H471 7205   3.283   0.218   3.135  0.9234 -0.6686 -0.7874
    8MOL   H472 7206   3.345   0.381   2.878 -1.3954  0.3151 -1.0114
    8MOL   H473 7207   3.307   0.217   2.900 -0.3734 -0.4791  1.3354
    8MOL   H474 7208   3.127   0.451   2.969 -0.7222  0.4841  0.4055
    8MOL   H475 7209   3.112   0.357   2.823  3.0116  1.1225 -0.4743
    8MOL   H476 7210   2.946   0.311   3.000 -0.5784 -0.8376  0.3775
    8MOL   H477 7211   3.057   0.225   3.105 -2.2957  3.0560  1.0880
    8MOL   H478 7212   2.992   0.153   2.830  1.0576  0.6964  0.0522
    8MOL   H479 7213   3.091   0.055   2.921 -1.6992 -1.5572  0.7073
    8MOL   H480 7214   2.869   7.754   2.960  1.6935 -0.3759  0.1581
    8MOL   H481 7215   2.894   0.049   3.110  0.1866  0.3146 -0.6730
    8MOL   N482 7216   2.639   0.077   3.011 -0.0173 -0.2778  0.7513
    8MOL   C483 7217   2.504   0.120   2.979 -0.2000  0.2241  0.1189
    8MOL   C484 7218   2.475   0.250   3.038 -0.5965  0.5211 -0.0474
    8MOL   C485 7219   2.481   0.270   3.179  0.4459  0.6105  0.6247
    8MOL   C486 7220   2.449   0.394   3.240 -0.3175  0.6552  0.7473
    8MOL   C487 7221   2.400   0.495   3.160 -0.1400  0.4011  0.7162
    8MOL   C488 7222   2.403   0.482   3.023 -0.8752 -0.0665  1.1238
    8MOL   C489 7223   2.436   0.364   2.959 -0.3485  0.4502  0.3590
    8MOL   C490 7224   2.425   0.362   2.807  0.6022 -0.7205 -0.8263
    8MOL   N491 7225   2.558   0.362   2.747 -1.0824 -0.4242 -0.6019
    8MOL   C492 7226   2.581   0.404   2.619  0.6090  0.4041  0.1278
    8MOL   O493 7227   2.482   0.431   2.549 -0.0456 -0.3774  0.1877
    8MOL   C494 7228   2.726   0.382   2.565  0.4392 -0.4060  0.3173
    8MOL   C495 7229   2.793   0.524   2.563  0.3564 -0.1041 -0.3413
    8MOL   C496 7230   2.933   0.525   2.499  0.1550 -0.2455 -0.7541
    8MOL   C497 7231   3.048   0.446   2.565  0.8430 -0.1210  0.0102
    8MOL   C498 7232   3.185   0.483   2.495 -0.1503 -0.3323 -0.2441
    8MOL   C499 7233   3.303   0.411   2.561  0.7205 -0.3251  0.5666
    8MOL   C500 7234   3.435   0.446   2.499 -0.6020 -0.0062 -0.5199
    8MOL   C501 7235   3.479   0.339   2.399  0.0863  0.5030 -0.7056
    8MOL   C502 7236   3.539   0.223   2.462  0.0086 -0.6336 -0.2200
    8MOL   O503 7237   3.630   0.238   2.544  0.1926 -0.6880  0.7907
    8MOL   H504 7238   2.645   0.001   3.077 -1.1788 -0.6967  0.3942
    8MOL   H505 7239   2.498   0.131   2.870 -1.4645 -0.7010  0.0859
    8MOL   H506 7240   2.423   0.050   3.001  0.0704 -0.3489 -0.6964
    8MOL   H507 7241   2.509   0.183   3.238  1.1652  1.3127  1.3334
    8MOL   H508 7242   2.458   0.410   3.346 -1.1383 -1.8934  1.2395
    8MOL   H509 7243   2.368   0.587   3.206 -1.3026  0.4756 -0.2001
    8MOL   H510 7244   2.366   0.566   2.966  0.8677 -0.9586 -1.3604
    8MOL   H511 7245   2.372   0.453   2.779 -0.5157 -1.3701 -0.8496
    8MOL   H512 7246   2.353   0.286   2.777  0.3632 -0.7796 -0.1164
    8MOL   H513 7247   2.641   0.320   2.787 -0.9944 -0.4010 -0.7603
    8MOL   H514 7248   2.724   0.330   2.469 -1.8710 -1.2027  0.7663
    8MOL   H515 7249   2.776   0.317   2.637  1.9815  1.2874  0.7981
    8MOL   H516 7250   2.792   0.566   2.664  0.6482 -2.4900  0.6992
    8MOL   H517 7251   2.723   0.591   2.513  0.2604 -1.1873 -1.6670
    8MOL   H518 7252   2.912   0.481   2.402  3.7020 -1.8823 -0.8733
    8MOL   H519 7253   2.954   0.630   2.477 -2.7001  0.6950  0.7923
    8MOL   H520 7254   3.038   0.477   2.669  0.6684  0.5069 -0.1911
    8MOL   H521 7255   3.039   0.337   2.562 -0.0736 -0.0413 -0.1443
    8MOL   H522 7256   3.185   0.458   2.389 -0.0965 -0.5551 -0.1908
    8MOL   H523 7257   3.197   0.592   2.494 -0.2805 -0.3214 -1.9746
    8MOL   H524 7258   3.298   0.302   2.554  0.4793 -0.1878 -2.3018
    8MOL   H525 7259   3.302   0.439   2.666 -1.8792  0.5961  0.3490
    8MOL   H526 7260   3.421   0.536   2.439  1.0029 -0.0816 -1.0194
    8MOL   H527 7261   3.513   0.467   2.572 -1.8476  0.6436  0.6522
    8MOL   H528 7262   3.558   0.392   2.345  0.7291  0.2805  0.0075
    8MOL   H529 7263   3.400   0.311   2.329 -0.2444 -0.2503 -0.0399
    8MOL   N530 7264   3.493   0.099   2.432 -0.3441 -0.0043 -0.0801
    8MOL   C531 7265   3.532   7.762   2.503 -0.2396 -0.1559 -0.0768
    8MOL   C532 7266   3.598   7.667   2.407  0.1238  0.7476  0.3047
    8MOL   C533 7267   3.524   7.580   2.325  0.4747 -0.4310 -0.2684
    8MOL   C534 7268   3.582   7.472   2.251 -0.3611  0.0541  0.4603
    8MOL   C535 7269   3.719   7.465   2.244  0.7636 -0.4948  0.2889
    8MOL   C536 7270   3.801   7.557   2.320 -0.0007 -0.0768  0.2489
    8MOL   C537 7271   3.741   7.651   2.404  0.0374 -0.3376 -0.7208
    8MOL   C538 7272   3.833   7.725   2.506 -0.2205  0.4122  0.4714
    8MOL   N539 7273   3.858   0.079   2.466 -0.4876  0.4318 -0.7283
    8MOL   C540 7274   3.979   0.135   2.486 -0.3177 -0.3974 -1.4928
    8MOL   O541 7275   4.083   0.075   2.513  0.4183  0.1488 -0.0483
    8MOL   C542 7276   3.972   0.288   2.502 -0.7687  0.1571  0.6350
    8MOL   C543 7277   4.089   0.365   2.541  0.1074 -0.4851 -0.4689
    8MOL   C544 7278   4.178   0.386   2.420 -0.3807 -0.1525  0.4869
    8MOL   C545 7279   4.304   0.470   2.457  0.1382 -0.6769 -0.2586
    8MOL   C546 7280   4.405   0.492   2.343  0.1184  0.3006 -0.4606
    8MOL   C547 7281   4.511   0.600   2.365  0.0591  0.1827 -0.1585
    8MOL   C548 7282   4.617   0.595   2.255  0.8026  0.1217 -0.4237
    8MOL   C549 7283   4.688   0.725   2.221  0.3848  0.4212 -0.3213
    8MOL   C550 7284   4.606   0.838   2.148  0.3488 -0.4041  0.5090
    8MOL   O551 7285   4.482   0.831   2.145 -0.8112  0.2756 -0.6861
    8MOL   H552 7286   3.427   0.089   2.356 -1.8447  3.1399  0.7500
    8MOL   H553 7287   3.442   7.713   2.542  0.4878 -1.6791 -0.3020
    8MOL   H554 7288   3.586   7.781   2.596 -1.5681  0.4636  0.5766
    8MOL   H555 7289   3.418   7.591   2.341  0.9632  0.4993  2.5320
    8MOL   H556 7290   3.527   7.389   2.211  0.1022 -0.7612  1.4932
    8MOL   H557 7291   3.759   7.386   2.182 -2.5350 -2.4434  0.5351
    8MOL   H558 7292   3.905   7.529   2.326  0.0487  0.0166 -0.1613
    8MOL   H559 7293   3.920   7.663   2.526  0.3762  1.2778  0.5814
    8MOL   H560 7294   3.785   7.725   2.604  2.5393 -0.2370  1.8541
    8MOL   H561 7295   3.779   0.137   2.443 -0.8767  0.2809  0.2043
    8MOL   H562 7296   3.903   0.293   2.586 -1.7226  0.4316 -0.1533
    8MOL   H563 7297   3.916   0.330   2.418 -0.5822 -1.3327 -0.2573
    8MOL   H564 7298   4.156   0.307   2.606 -0.4597  0.2308  0.7699
    8MOL   H565 7299   4.053   0.456   2.588  0.4485  0.4228 -1.9206
    8MOL   H566 7300   4.191   0.291   2.368  1.8422  1.0563 -1.2826
    8MOL   H567 7301   4.124   0.450   2.351  1.2958  0.2320 -0.4955
    8MOL   H568 7302   4.276   0.568   2.495 -0.7884 -1.4691  1.1411
    8MOL   H569 7303   4.362   0.424   2.537  2.1024  2.4526  0.1986
    8MOL   H570 7304   4.459   0.400   2.320  1.8698  1.5568 -1.5706
    8MOL   H571 7305   4.348   0.523   2.256 -0.7671  1.6082  0.5595
    8MOL   H572 7306   4.561   0.588   2.461 -0.1735 -1.2504 -0.2083
    8MOL   H573 7307   4.462   0.698   2.366  0.5049  0.4085 -0.4960
    8MOL   H574 7308   4.701   0.533   2.287  1.4400  1.2006  0.0625
    8MOL   H575 7309   4.563   0.548   2.173 -1.0828  1.2441  0.1524
    8MOL   H576 7310   4.771   0.697   2.157 -0.7866 -0.9766 -1.2454
    8MOL   H577 7311   4.722   0.786   2.305 -0.1366 -0.0821  0.2561
    8MOL   N578 7312   4.681   0.929   2.087 -0.0674 -0.1002 -0.1446
    8MOL   C579 7313   4.619   1.024   2.006  0.2809 -0.4677  0.0780
    8MOL   C580 7314   4.695   1.157   2.001  0.0741  0.6833  0.4044
    8MOL   C581 7315   4.720   1.217   1.872  0.9061  0.2165  0.8152
    8MOL   C582 7316   4.788   1.340   1.863  0.3370 -0.1160 -0.3875
    8MOL   C583 7317   4.848   1.396   1.976 -0.0323 -0.8217  0.9395
    8MOL   C584 7318   4.820   1.340   2.104 -0.4722 -0.5847  0.1667
    8MOL   C585 7319   4.743   1.220   2.122 -0.6241 -0.1492  0.0073
    8MOL   C586 7320   4.685   1.175   2.264  0.7917 -0.1332 -0.0545
    8MOL   N587 7321   4.666   1.282   2.364  0.6847 -0.6270  0.3531
    8MOL   C588 7322   4.580   1.387   2.356  0.7323  0.1584  0.3656
    8MOL   O589 7323   4.512   1.412   2.255 -0.5538  0.4999 -0.0294
    8MOL   C590 7324   4.574   1.484   2.476  0.3043  0.1089 -1.1865
    8MOL   C591 7325   4.532   1.625   2.428 -0.1118 -0.4040  0.3590
    8MOL   C592 7326   4.640   1.729   2.406 -0.3581 -0.0051  0.6697
    8MOL   C593 7327   4.752   1.685   2.312 -0.1482  0.6305 -0.2731
    8MOL   C594 7328   4.862   1.798   2.286  0.0399  0.5044  0.1224
    8MOL   C595 7329   4.970   1.747   2.191 -0.0570 -0.4702 -0.4751
    8MOL   C596 7330   4.929   1.758   2.044  0.2623 -0.4246  0.3580
    8MOL   C597 7331   5.042   1.717   1.939 -0.1448  0.0264 -0.2786
    8MOL   C598 7332   4.996   1.707   1.802  0.1004  0.0558 -0.1014
    8MOL   O599 7333   4.897   1.766   1.757  0.6637 -0.1043 -0.5090
    8MOL   H600 7334   4.781   0.915   2.081  0.0893  0.9628  0.0102
    8MOL   H601 7335   4.513   1.030   2.029  0.1512  0.2697 -0.7021
    8MOL   H602 7336   4.614   0.991   1.902  0.5202 -0.3232  0.0187
    8MOL   H603 7337   4.675   1.178   1.782 -0.2396  0.5672  1.2326
    8MOL   H604 7338   4.803   1.393   1.770  0.1115  1.5898  0.5299
    8MOL   H605 7339   4.909   1.486   1.973 -1.6632  0.3493  1.9355
    8MOL   H606 7340   4.854   1.402   2.185 -1.4519  0.0451  0.1056
    8MOL   H607 7341   4.756   1.098   2.295  1.1504 -1.0937 -3.0872
    8MOL   H608 7342   4.591   1.120   2.254  0.8804 -0.8784  2.8803
    8MOL   H609 7343   4.726   1.269   2.444  0.9491 -2.5663 -0.1388
    8MOL   H610 7344   4.677   1.477   2.510  0.6409  1.8222 -1.8061
    8MOL   H611 7345   4.510   1.450   2.557  0.6953  3.6302  0.6829
    8MOL   H612 7346   4.453   1.668   2.490  0.2751  3.7542 -1.8210
    8MOL   H613 7347   4.470   1.619   2.339 -0.2511 -3.2730  0.6174
    8MOL   H614 7348   4.603   1.826   2.371 -1.0999 -0.0757  1.2452
    8MOL   H615 7349   4.691   1.753   2.499 -0.1309 -1.0957  0.8319
    8MOL   H616 7350   4.796   1.594   2.353 -0.9842  0.3056 -0.0979
    8MOL   H617 7351   4.707   1.663   2.215 -1.4881  1.4053  0.1636
    8MOL   H618 7352   4.806   1.880   2.242  0.2726 -0.1108 -1.3520
    8MOL   H619 7353   4.914   1.827   2.378  1.9337 -2.4951  0.0639
    8MOL   H620 7354   5.013   1.651   2.221  0.2675  0.2194  1.3358
    8MOL   H621 7355   5.047   1.822   2.207 -0.3030 -0.5449  1.1419
    8MOL   H622 7356   4.843   1.692   2.031 -0.4545  0.1043  2.3240
    8MOL   H623 7357   4.883   1.855   2.025  0.4568 -0.3804  0.1063
    8MOL   H624 7358   5.116   1.796   1.951 -2.4766  2.3282 -0.6384
    8MOL   H625 7359   5.095   1.628   1.972  0.5484  0.8095  0.7669
    8MOL   N626 7360   5.062   1.623   1.718  0.3072  0.2700  0.1154
    8MOL   C627 7361   5.031   1.595   1.576  0.0106 -0.0223 -0.4615
    8MOL   C628 7362   5.118   1.477   1.530  0.2386 -0.6900  0.2696
    8MOL   C629 7363   5.250   1.509   1.512  0.0635 -0.5805  0.4055
    8MOL   C630 7364   5.333   1.421   1.446 -0.5721 -0.0518  0.3785
    8MOL   C631 7365   5.292   1.290   1.414  0.4885 -0.2319 -0.4253
    8MOL   C632 7366   5.158   1.253   1.443 -0.7298 -0.0450 -0.7542
    8MOL   C633 7367   5.067   1.351   1.486 -0.3336 -0.0920 -0.2713
    8MOL   C634 7368   4.923   1.311   1.502 -0.1942 -0.4136  0.6568
    8MOL   N635 7369   4.869   1.202   1.418  0.4763 -0.2531  0.6226
    8MOL   C636 7370   4.856   1.073   1.443  0.6214  0.2383 -0.0938
    8MOL   O637 7371   4.853   1.027   1.565  0.0497 -0.4603  0.0585
    8MOL   C638 7372   4.825   0.983   1.326  0.5956 -0.2187 -0.4393
    8MOL   C639 7373   4.845   0.836   1.356 -0.0486  0.4146 -0.4025
    8MOL   C640 7374   4.887   0.755   1.234  0.0181  0.7272 -0.0380
    8MOL   C641 7375   4.846   0.606   1.244  0.2535 -0.1831 -0.0548
    8MOL   C642 7376   4.893   0.523   1.121  0.3148 -0.3239 -0.6215
    8MOL   C643 7377   4.839   0.377   1.121  0.0220  0.1861  0.5196
    8MOL   C644 7378   4.881   0.287   1.004 -0.2424 -0.1513 -0.2703
    8MOL   C645 7379   4.797   0.162   0.986  0.3809  0.3131  0.6815
    8MOL   C646 7380   4.843   0.036   1.072  0.1697 -0.0109 -0.3959
    8MOL   O647 7381   4.924   7.743   1.035  0.4713  1.0879  0.1962
    8MOL   H648 7382   5.143   1.584   1.767  0.3626  0.8337  0.4776
    8MOL   H649 7383   5.059   1.679   1.513 -1.9709  2.5388  1.9552
    8MOL   H650 7384   4.923   1.594   1.566 -0.1407  3.0927  0.4301
    8MOL   H651 7385   5.281   1.609   1.540  1.1052 -0.8100  0.0747
    8MOL   H652 7386   5.423   1.461   1.402  1.1303 -2.1701  1.8191
    8MOL   H653 7387   5.361   1.223   1.364  1.5947  0.2328  0.4734
    8MOL   H654 7388   5.134   1.154   1.408 -2.2344  0.8387 -2.2901
    8MOL   H655 7389   4.859   1.396   1.477 -2.1952 -1.4707  2.0310
    8MOL   H656 7390   4.901   1.291   1.607  0.8949 -2.1078  0.5740
    8MOL   H657 7391   4.864   1.211   1.317 -0.1459 -1.4862  0.5283
    8MOL   H658 7392   4.897   1.009   1.247  0.9261  0.5199  0.1012
    8MOL   H659 7393   4.723   1.002   1.294  0.9491  0.8517 -0.9707
    8MOL   H660 7394   4.765   0.781   1.406  1.7080 -2.2288 -0.4269
    8MOL   H661 7395   4.924   0.830   1.431 -0.4293 -0.0909 -0.0400
    8MOL   H662 7396   4.826   0.796   1.154 -1.5016 -0.3527  0.5281
    8MOL   H663 7397   4.995   0.757   1.221  0.1188 -0.8455  0.4143
    8MOL   H664 7398   4.891   0.566   1.335  0.3380 -0.2634 -0.1327
    8MOL   H665 7399   4.737   0.605   1.246  0.1836 -0.0799 -2.4276
    8MOL   H666 7400   4.865   0.569   1.027  0.7300  0.1160 -0.5364
    8MOL   H667 7401   5.002   0.527   1.127  0.3636  1.3425 -2.2814
    8MOL   H668 7402   4.730   0.379   1.114  0.0342  0.0116  0.2653
    8MOL   H669 7403   4.861   0.323   1.213 -2.5937 -0.3719  0.8460
    8MOL   H670 7404   4.886   0.342   0.910 -0.1893  0.6245  0.1893
    8MOL   H671 7405   4.985   0.256   1.018 -0.7497 -1.2072  1.3058
    8MOL   H672 7406   4.816   0.125   0.885  0.7857  0.5909  0.6552
    8MOL   H673 7407   4.689   0.173   0.992  0.0987 -1.9857  0.3788
    8MOL   N674 7408   4.792   0.038   1.195  0.4217 -0.2703 -0.3758
    8MOL   C675 7409   4.835   7.735   1.302 -0.1426  0.1409  0.0290
    8MOL   C676 7410   4.732   7.621   1.321 -0.0234 -0.0184  0.5956
    8MOL   C677 7411   4.601   7.653   1.362  0.1681 -0.4005 -0.4787
    8MOL   C678 7412   4.507   7.548   1.375  0.7711 -0.4244 -0.6079
    8MOL   C679 7413   4.538   7.414   1.348  0.4857 -0.6283 -0.2659
    8MOL   C680 7414   4.669   7.388   1.295 -0.7690 -0.3046 -0.6110
    8MOL   C681 7415   4.761   7.493   1.273 -0.1067  0.3126 -0.3552
    8MOL   C682 7416   4.879   7.466   1.175  0.6143 -0.3782 -0.3571
    8MOL   N683 7417   4.921   7.331   1.162 -0.2470  0.0228  0.6216
    8MOL   C684 7418   4.969   7.257   1.267  0.5692 -0.9315 -0.0937
    8MOL   O685 7419   5.003   7.311   1.371  0.4681 -0.2379 -0.4731
    8MOL   C686 7420   4.993   7.104   1.241 -0.4111 -0.2145  0.6219
    8MOL   C687 7421   4.905   7.014   1.321  0.2547  0.4612  0.3902
    8MOL   C688 7422   4.928   7.036   1.472 -0.3059  0.3110 -0.1235
    8MOL   C689 7423   4.853   6.942   1.565 -0.5824  0.4106  0.0373
    8MOL   C690 7424   4.890   6.960   1.714  0.2895  0.4126  0.3115
    8MOL   C691 7425   4.812   6.869   1.805  0.2182 -0.0332 -0.1528
    8MOL   C692 7426   4.851   6.869   1.951  0.2910 -0.3352 -0.2627
    8MOL   C693 7427   4.992   6.806   1.973  0.7877  0.5946 -0.3685
    8MOL   C694 7428   5.036   6.794   2.117  0.6469  0.4972  0.6770
    8MOL   O695 7429   5.049   6.899   2.174 -0.1226  0.2864  0.8261
    8MOL   H696 7430   4.729   0.112   1.222 -1.4518 -2.3151  0.9861
    8MOL   H697 7431   4.833   0.002   1.395 -4.2323 -0.8117  0.5836
    8MOL   H698 7432   4.938   7.702   1.287 -0.8770 -1.5879 -1.3797
    8MOL   H699 7433   4.576   7.754   1.389 -0.1997 -0.9018  1.1035
    8MOL   H700 7434   4.405   7.574   1.401  1.2635 -0.2871  1.2610
    8MOL   H701 7435   4.454   7.346   1.342  0.2571 -0.2088 -2.1272
    8MOL   H702 7436   4.680   7.290   1.251  2.7421  1.2198 -3.3277
    8MOL   H703 7437   4.972   7.519   1.197 -0.1127  1.5141 -1.6667
    8MOL   H704 7438   4.846   7.512   1.082 -1.9533 -0.9682  0.2097
    8MOL   H705 7439   4.928   7.289   1.071 -0.8501  2.5424 -0.6223
    8MOL   H706 7440   5.097   7.089   1.268  0.4210  0.6267 -1.9128
    8MOL   H707 7441   4.992   7.076   1.136 -2.5348  1.8259  0.0382
    8MOL   H708 7442   4.930   6.909   1.307 -1.0631  0.1789  0.0838
    8MOL   H709 7443   4.800   7.035   1.300 -0.4327 -3.2271 -0.1675
    8MOL   H710 7444   5.032   7.017   1.495 -0.9829 -0.5939  2.2971
    8MOL   H711 7445   4.903   7.136   1.508 -1.4475 -0.2099  0.5571
    8MOL   H712 7446   4.747   6.956   1.548  0.0173  2.5240 -2.2461
    8MOL   H713 7447   4.882   6.840   1.538  2.1168  1.0055  0.5106
    8MOL   H714 7448   4.997   6.970   1.732  0.0451  0.2949  1.8338
    8MOL   H715 7449   4.867   7.061   1.749  1.0638  0.6737  0.0812
    8MOL   H716 7450   4.826   6.765   1.778 -1.7020 -0.1596 -0.7058
    8MOL   H717 7451   4.706   6.888   1.789 -0.0984 -1.6621 -0.1159
    8MOL   H718 7452   4.779   6.809   2.006 -0.4127 -0.8385 -1.7094
    8MOL   H719 7453   4.846   6.968   1.997 -3.1293 -1.5837  2.2632
    8MOL   H720 7454   5.064   6.875   1.929  0.6072  1.4268  0.6115
    8MOL   H721 7455   5.007   6.717   1.912 -1.3839 -1.7973  2.4679
    8MOL   N722 7456   5.054   6.671   2.169  0.3516 -0.6289 -0.7054
    8MOL   C723 7457   5.055   6.631   2.314 -0.1900 -0.8566 -0.5552
    8MOL   C724 7458   5.180   6.688   2.386 -0.4350  0.2493 -0.2465
    8MOL   C725 7459   5.298   6.629   2.340 -0.4388 -0.4823 -0.5749
    8MOL   C726 7460   5.419   6.638   2.410 -0.9134 -0.2827  0.2661
    8MOL   C727 7461   5.428   6.724   2.521 -0.0099  0.4457 -0.4380
    8MOL   C728 7462   5.315   6.796   2.562  0.0287  0.5749 -1.0325
    8MOL   C729 7463   5.190   6.771   2.501  0.5298 -0.3475 -0.2725
    8MOL   C730 7464   5.072   6.841   2.559 -0.1039 -0.1831 -0.4361
    8MOL   N731 7465   5.024   6.943   2.467 -0.7475  0.0294  0.4758
    8MOL   C732 7466   4.958   7.048   2.509 -0.3865  0.5816 -0.2933
    8MOL   O733 7467   4.942   7.089   2.623 -0.3466 -0.2881  0.3058
    8MOL   C734 7468   4.883   7.117   2.391  0.6191  0.0132  0.6143
    8MOL   C735 7469   4.807   7.247   2.434 -0.3840  0.4520 -0.3791
    8MOL   C736 7470   4.690   7.221   2.522  0.2175 -0.1275  0.3542
    8MOL   C737 7471   4.616   7.351   2.565  0.0214 -0.3328 -0.1450
    8MOL   C738 7472   4.502   7.306   2.662  0.1859  0.1913 -0.2708
    8MOL   C739 7473   4.412   7.413   2.718 -0.4224 -0.6702 -0.6705
    8MOL   C740 7474   4.296   7.451   2.627  0.1815  0.3137  0.7280
    8MOL   C741 7475   4.210   7.570   2.654 -0.0198 -0.2348 -0.1177
    8MOL   C742 7476   4.118   7.554   2.779 -0.4647  0.8023 -0.4618
    8MOL   O743 7477   4.134   7.475   2.871 -0.7254  0.5245  0.0960
    8MOL   H744 7478   5.043   6.598   2.100  1.6695  1.8006 -3.5333
    8MOL   H745 7479   5.056   6.522   2.304 -0.0462 -0.9538  0.5405
    8MOL   H746 7480   4.965   6.659   2.367 -0.1364 -2.3197  0.3438
    8MOL   H747 7481   5.299   6.562   2.254  1.2269 -1.4319  0.1619
    8MOL   H748 7482   5.506   6.588   2.372  0.3201  1.2895  0.9552
    8MOL   H749 7483   5.524   6.740   2.566  0.8010  1.4900 -2.5025
    8MOL   H750 7484   5.322   6.860   2.649 -1.0881  0.4464 -0.8367
    8MOL   H751 7485   5.088   6.880   2.660  0.6056  1.2885 -1.1019
    8MOL   H752 7486   4.988   6.776   2.585  0.0276 -0.7512 -1.4010
    8MOL   H753 7487   5.021   6.924   2.368  1.1317  0.2157  0.3565
    8MOL   H754 7488   4.803   7.052   2.355  0.3125 -0.0817  1.4350
    8MOL   H755 7489   4.941   7.126   2.300 -1.0438 -0.6129 -0.5441
    8MOL   H756 7490   4.774   7.309   2.351 -0.2322  2.0355  0.7235
    8MOL   H757 7491   4.878   7.309   2.489  0.7554  0.7899 -2.1966
    8MOL   H758 7492   4.622   7.147   2.480 -1.8388  2.3897 -0.8992
    8MOL   H759 7493   4.717   7.181   2.620 -2.7967  0.6199  1.5509
    8MOL   H760 7494   4.691   7.414   2.613 -0.8794 -0.7665  1.8346
    8MOL   H761 7495   4.579   7.400   2.475  1.5968 -0.6916 -1.0154
    8MOL   H762 7496   4.439   7.230   2.616 -1.9001  0.4955  1.9962
    8MOL   H763 7497   4.551   7.255   2.745  0.2836  2.6105  1.2193
    8MOL   H764 7498   4.461   7.500   2.762  0.0013 -0.5363 -1.3981
    8MOL   H765 7499   4.370   7.369   2.808  0.7677  0.7680  0.6202
    8MOL   H766 7500   4.341   7.470   2.529 -0.3697 -2.0601 -0.0297
    8MOL   H767 7501   4.235   7.362   2.613 -0.5915  0.5999  2.2245
    8MOL   H768 7502   4.277   7.655   2.668  0.4373 -0.1708 -2.6218
    8MOL   H769 7503   4.140   7.592   2.574  1.1978 -0.1134 -1.1579
    8MOL   N770 7504   4.017   7.646   2.788 -0.1416 -0.0064 -0.2380
    8MOL   C771 7505   3.917   7.657   2.890 -0.2221 -0.1149  0.1646
    8MOL   C772 7506   3.825   7.782   2.870  0.2147  1.1108 -0.1923
    8MOL   C773 7507   3.685   7.750   2.858  0.0102 -0.7955 -0.3966
    8MOL   C774 7508   3.584   0.064   2.847 -0.0134  0.0615  0.1459
    8MOL   C775 7509   3.629   0.198   2.832 -0.4782  0.7237 -0.5549
    8MOL   C776 7510   3.769   0.224   2.841 -0.3511 -0.0485 -0.1898
    8MOL   C777 7511   3.872   0.125   2.860 -1.0011 -0.4668 -0.1549
    8MOL   C778 7512   4.021   0.161   2.866 -0.2320 -1.0053 -0.2914
    8MOL   N779 7513   4.043   0.299   2.916  0.0825 -0.0993  0.4583
    8MOL   C780 7514   4.065   0.329   3.045 -0.0035 -0.1601  0.5518
    8MOL   O781 7515   4.058   0.240   3.131  0.6434 -0.0055 -0.0779
    8MOL   C782 7516   4.114   0.468   3.080  0.3699  0.1556 -1.3118
    8MOL   C783 7517   4.269   0.479   3.087 -0.1837  0.6183  0.1991
    8MOL   C784 7518   4.324   0.488   2.944 -0.8908 -0.0150  0.6134
    8MOL   C785 7519   4.480   0.506   2.947  0.2011 -0.1451  0.8740
    8MOL   C786 7520   4.534   0.569   2.822 -0.7133  0.8185 -0.4749
    8MOL   C787 7521   4.688   0.561   2.818 -0.2007 -0.0627 -0.4062
    8MOL   C788 7522   4.743   0.647   2.700 -0.2926  0.8841 -0.4055
    8MOL   C789 7523   4.868   0.591   2.629  0.1831 -0.1373 -0.3089
    8MOL   C790 7524   4.850   0.473   2.525  0.1948 -0.5254  0.4102
    8MOL   O791 7525   4.762   0.388   2.548 -0.1547 -0.4036 -0.3289
    8MOL   H792 7526   4.018   7.712   2.712  1.1062  1.4116  0.9803
    8MOL   H793 7527   3.854   7.568   2.885 -1.3170  0.6508  0.1341
    8MOL   H794 7528   3.963   7.655   2.989 -0.5614  1.7123  0.3718
    8MOL   H795 7529   3.659   7.646   2.859  2.6571 -1.4884 -0.0742
    8MOL   H796 7530   3.478   0.043   2.839 -0.1304  0.3688  0.8491
    8MOL   H797 7531   3.562   0.282   2.820 -0.0694  0.9138 -1.5288
    8MOL   H798 7532   3.790   0.330   2.837 -0.0131 -0.0538  1.2860
    8MOL   H799 7533   4.075   0.157   2.771  2.1902  0.5146  0.9599
    8MOL   H800 7534   4.068   0.098   2.942 -0.4177  1.9743  2.4120
    8MOL   H801 7535   4.058   0.371   2.846 -1.9335  1.0042  1.1106
    8MOL   H802 7536   4.079   0.497   3.179  0.2630 -1.6669 -0.7964
    8MOL   H803 7537   4.077   0.542   3.008  0.0099  1.0662 -0.1956
    8MOL   H804 7538   4.313   0.392   3.135  0.0891  1.3478  1.2860
    8MOL   H805 7539   4.288   0.573   3.140  0.0301 -0.2282  1.6491
    8MOL   H806 7540   4.285   0.574   2.889 -0.2071 -0.4747 -0.6000
    8MOL   H807 7541   4.294   0.404   2.880 -0.1334  0.0458  0.1676
    8MOL   H808 7542   4.517   0.576   3.022 -1.5033  1.6017  0.1318
    8MOL   H809 7543   4.528   0.411   2.966  0.4611  0.0986  1.4476
    8MOL   H810 7544   4.488   0.524   2.734  1.0275  0.8181 -1.4172
    8MOL   H811 7545   4.509   0.675   2.826 -0.8018  0.8756 -2.2512
    8MOL   H812 7546   4.704   0.457   2.790 -0.4019 -0.1450 -0.2140
    8MOL   H813 7547   4.741   0.575   2.912 -0.3271 -0.0746 -0.3336
    8MOL   H814 7548   4.751   0.749   2.736 -0.5131  0.4157  1.0332
    8MOL   H815 7549   4.674   0.656   2.616  0.4270 -0.0501 -1.0979
    8MOL   H816 7550   4.936   0.568   2.711  1.5704 -0.6476 -1.5808
    8MOL   H817 7551   4.904   0.671   2.563 -0.1412 -0.3118 -0.6956
    8MOL   N818 7552   4.942   0.454   2.429 -0.9219  1.0359 -0.1721
    8MOL   C819 7553   4.951   0.333   2.356 -0.1112  0.2660 -0.4377
    8MOL   C820 7554   4.872   0.330   2.217 -0.2587  0.1602  0.5998
    8MOL   C821 7555   4.891   0.441   2.131  0.2262  0.3073  0.0983
    8MOL   C822 7556   4.813   0.449   2.016  0.1134  0.1025 -0.6236
    8MOL   C823 7557   4.720   0.347   1.985  0.5204 -0.1412  0.4982
    8MOL   C824 7558   4.703   0.239   2.067 -0.2607 -0.8277  0.5915
    8MOL   C825 7559   4.779   0.226   2.182 -0.6476 -0.8035 -0.0869
    8MOL   C826 7560   4.757   0.108   2.270  0.1433  0.3743 -0.3841
    8MOL   N827 7561   4.673   0.153   2.388  1.3296  0.2650  0.6680
    8MOL   C828 7562   4.550   0.110   2.409 -0.2981 -0.5267 -0.4936
    8MOL   O829 7563   4.492   0.028   2.338  0.0324  0.6861 -0.3979
    8MOL   C830 7564   4.471   0.170   2.532  0.1816  0.1782  0.8728
    8MOL   C831 7565   4.505   0.085   2.659 -0.5808  0.1672  0.9700
    8MOL   C832 7566   4.432   0.123   2.789  0.2558  0.6340  0.6061
    8MOL   C833 7567   4.482   0.035   2.901  0.0257  0.5261  0.0677
    8MOL   C834 7568   4.406   0.060   3.032 -0.5901 -0.0772 -0.5798
    8MOL   C835 7569   4.469   7.786   3.157  0.0472 -0.2685 -0.7144
    8MOL   C836 7570   4.480   7.634   3.150 -0.6973 -0.5915 -0.4011
    8MOL   C837 7571   4.343   7.567   3.144 -0.3506  0.3246  0.0844
    8MOL   C838 7572   4.343   7.414   3.165  0.4518 -0.6610  0.0641
    8MOL   O839 7573   4.423   7.359   3.240 -0.0095 -0.4137 -0.7636
    8MOL   H840 7574   5.005   0.530   2.410 -2.6983  2.8302  0.8414
    8MOL   H841 7575   5.054   0.311   2.325 -0.4878 -0.9873 -0.8379
    8MOL   H842 7576   4.923   0.251   2.422  0.5057  0.4364  0.0460
    8MOL   H843 7577   4.969   0.510   2.157  1.3846 -0.4309 -1.3824
    8MOL   H844 7578   4.820   0.541   1.959 -0.1080  0.1321 -0.6043
    8MOL   H845 7579   4.687   0.341   1.883  1.2386  0.8680  0.1909
    8MOL   H846 7580   4.636   0.160   2.034 -0.4220 -0.1380 -0.7346
    8MOL   H847 7581   4.850   0.075   2.318  0.0810 -0.9320 -1.1560
    8MOL   H848 7582   4.713   0.023   2.218  3.0684 -2.4286  1.5026
    8MOL   H849 7583   4.695   0.244   2.425 -1.2317  1.0336  0.3627
    8MOL   H850 7584   4.366   0.160   2.502  0.8265 -1.5655 -0.9998
    8MOL   H851 7585   4.495   0.273   2.556  1.3430 -0.3407  2.0050
    8MOL   H852 7586   4.611   0.080   2.681  0.4636 -1.4770 -3.8190
    8MOL   H853 7587   4.478   7.772   2.638  1.0011 -0.1391  0.4211
    8MOL   H854 7588   4.326   0.104   2.773  0.8085 -2.4459  0.2455
    8MOL   H855 7589   4.440   0.228   2.819  1.3539  1.2493 -1.7109
    8MOL   H856 7590   4.464   7.724   2.865 -1.8254  1.0319 -0.4659
    8MOL   H857 7591   4.588   0.054   2.919  0.3654 -0.7841 -0.5123
    8MOL   H858 7592   4.411   0.167   3.046 -0.0293 -0.1010 -0.6073
    8MOL   H859 7593   4.304   0.021   3.025  0.8046 -4.0078 -0.1680
    8MOL   H860 7594   4.415   0.012   3.250  1.7639 -3.1931  0.8369
    8MOL   H861 7595   4.568   0.042   3.164  0.9477 -2.1011 -1.0694
    8MOL   H862 7596   4.529   7.601   3.242  0.0026  2.1013  0.2368
    8MOL   H863 7597   4.550   7.606   3.072 -1.2442 -1.0725 -0.7216
    8MOL   H864 7598   4.273   7.607   3.218  0.9755  1.7827  0.5982
    8MOL   H865 7599   4.298   7.589   3.047 -1.1711 -2.5579 -0.2409
    8MOL   N866 7600   4.257   7.338   3.096  0.6442 -0.1509 -0.1816
    8MOL   C867 7601   4.247   7.194   3.091  0.2501 -0.1602  0.1752
    8MOL   C868 7602   4.106   7.132   3.096 -0.0621 -0.3491  0.4661
    8MOL   C869 7603   3.999   7.219   3.086 -0.6359 -0.8270 -0.0032
    8MOL   C870 7604   3.866   7.165   3.100 -0.4424  0.0245  0.4473
    8MOL   C871 7605   3.853   7.021   3.109 -0.2177  0.5642  0.1093
    8MOL   C872 7606   3.965   6.941   3.111  0.3270 -0.1580  0.0993
    8MOL   C873 7607   4.093   6.994   3.100 -0.3867 -0.7613  0.8652
    8MOL   C874 7608   4.217   6.904   3.086 -0.1850  0.5536 -0.1036
    8MOL   N875 7609   4.191   6.767   3.119 -0.2217  0.4892  0.5865
    8MOL   C876 7610   4.220   6.711   3.237  0.5107 -0.8631 -0.4317
    8MOL   O877 7611   4.180   6.597   3.253  0.1399  0.0510 -0.1537
    8MOL   C878 7612   4.298   6.780   3.349 -0.5464 -0.2820  1.1481
    8MOL   C879 7613   4.448   6.748   3.331  0.3670  0.4703  0.1358
    8MOL   C880 7614   4.488   6.597   3.332 -0.1871 -0.3569 -0.2005
    8MOL   C881 7615   4.643   6.576   3.310 -0.9754 -0.3227 -0.0174
    8MOL   C882 7616   4.693   6.614   3.166  0.2860 -0.3754  0.1269
    8MOL   C883 7617   4.839   6.575   3.149 -0.6635 -0.4952 -0.0331
    8MOL   C884 7618   4.896   6.599   3.011  0.5089  0.1916 -0.0874
    8MOL   C885 7619   5.039   6.541   2.992 -0.1146 -0.6452 -0.9428
    8MOL   C886 7620   5.087   6.542   2.851  0.1287 -0.2495  0.3516
    8MOL   O887 7621   5.007   6.545   2.757  0.1739  0.9760  0.3886
    8MOL   H888 7622   4.185   7.385   3.042 -2.4053 -2.9073  1.3212
    8MOL   H889 7623   4.289   7.158   2.998  0.5576  0.7418 -0.0371
    8MOL   H890 7624   4.307   7.135   3.161 -1.0128 -1.0778  0.5042
    8MOL   H891 7625   4.008   7.327   3.077  1.7662 -1.0490 -0.6814
    8MOL   H892 7626   3.787   7.238   3.091  0.9354  1.6847  1.6101
    8MOL   H893 7627   3.762   6.962   3.110 -0.7752  1.3770  3.9343
    8MOL   H894 7628   3.953   6.834   3.105 -4.9360  0.3088  0.3680
    8MOL   H895 7629   4.294   6.944   3.152 -0.3424 -2.0347  1.7107
    8MOL   H896 7630   4.257   6.905   2.985  1.7284 -0.9616  0.6200
    8MOL   H897 7631   4.153   6.709   3.045  0.2959 -1.5676  1.8965
    8MOL   H898 7632   4.264   6.746   3.446 -1.3703  2.0451  1.7031
    8MOL   H899 7633   4.280   6.887   3.344  0.6957 -0.1323 -0.9168
    8MOL   H900 7634   4.505   6.790   3.415  0.1068  1.1859 -0.0375
    8MOL   H901 7635   4.483   6.790   3.237  1.1856  0.6418  0.5073
    8MOL   H902 7636   4.466   6.559   3.431  0.3980  0.3053  0.1852
    8MOL   H903 7637   4.436   6.542   3.254  1.5290 -0.8816 -0.9939
    8MOL   H904 7638   4.691   6.645   3.381  0.7378 -1.2555 -0.2572
    8MOL   H905 7639   4.681   6.482   3.349  2.6989  0.1046 -2.3325
    8MOL   H906 7640   4.637   6.555   3.093  0.1014  1.5609 -1.3155
    8MOL   H907 7641   4.665   6.716   3.140 -1.7343 -1.1478 -0.8321
    8MOL   H908 7642   4.861   6.473   3.178 -0.1399 -0.4593 -0.2965
    8MOL   H909 7643   4.895   6.637   3.219 -0.4720 -0.8324  0.1085
    8MOL   H910 7644   4.816   6.566   2.945  1.1594 -0.2730 -0.6402
    8MOL   H911 7645   4.897   6.707   2.996  2.2276  0.4186  1.4946
    8MOL   H912 7646   5.109   6.586   3.063 -0.4760  0.5859 -1.3505
    8MOL   H913 7647   5.046   6.436   3.023 -0.9848 -0.4420 -0.0084
    8MOL   N914 7648   5.218   6.517   2.837 -0.6818 -0.0024 -0.0660
    8MOL   C915 7649   5.292   6.482   2.719  0.1153  1.1694  0.1169
    8MOL   C916 7650   5.314   6.331   2.722 -0.4209  0.2943 -0.4823
    8MOL   C917 7651   5.397   6.272   2.822 -0.1551  0.3826 -0.5522
    8MOL   C918 7652   5.422   6.133   2.838  0.2197 -0.2984 -0.1866
    8MOL   C919 7653   5.362   6.046   2.743 -0.5534  1.1628 -0.2512
    8MOL   C920 7654   5.282   6.098   2.637  0.6193 -0.5607  0.3638
    8MOL   C921 7655   5.254   6.237   2.629 -0.4669  0.0760 -0.0473
    8MOL   C922 7656   5.189   6.294   2.499 -0.0201  0.0831  0.6782
    8MOL   N923 7657   5.053   6.345   2.534 -0.5926 -1.0667  0.3423
    8MOL   C924 7658   4.951   6.324   2.448 -0.7051  0.9237  0.3111
    8MOL   O925 7659   4.968   6.269   2.339 -0.4205 -0.4484  0.4868
    8MOL   C926 7660   4.815   6.380   2.487  0.2006 -0.0614 -0.6582
    8MOL   C927 7661   4.725   6.415   2.369  0.4962 -0.3047  0.7958
    8MOL   C928 7662   4.582   6.468   2.411  0.3151  0.2046 -0.4513
    8MOL   C929 7663   4.582   6.578   2.521 -0.1585  0.7058  0.4355
    8MOL   C930 7664   4.680   6.690   2.501 -0.1573  0.4642 -0.1368
    8MOL   C931 7665   4.663   6.812   2.587  0.5049 -0.2181 -0.2917
    8MOL   C932 7666   4.703   6.792   2.740  0.6597  0.7113 -0.0705
    8MOL   C933 7667   4.693   6.920   2.824  0.0127 -0.3598  0.4192
    8MOL   C934 7668   4.552   6.970   2.864  0.9473  0.6604 -0.1864
    8MOL   O935 7669   4.455   6.982   2.793 -0.1966 -0.2941 -0.8322
    8MOL   H936 7670   5.268   6.514   2.925  1.7662  2.0133 -1.3167
    8MOL   H937 7671   5.232   6.515   2.634  1.6162 -1.6026 -2.0915
    8MOL   H938 7672   5.386   6.537   2.711  0.1462  1.0413 -0.4105
    8MOL   H939 7673   5.451   6.340   2.886  3.1803 -1.8790 -0.8410
    8MOL   H940 7674   5.468   6.085   2.922 -1.3394 -1.2373  0.1521
    8MOL   H941 7675   5.376   5.939   2.736  1.9261  1.4865 -0.6697
    8MOL   H942 7676   5.239   6.032   2.563  0.7480  1.4030 -1.5190
    8MOL   H943 7677   5.168   6.213   2.429  0.0828 -0.9938  1.8874
    8MOL   H944 7678   5.259   6.368   2.459  1.8026 -2.5116 -1.0986
    8MOL   H945 7679   5.033   6.389   2.623 -3.6954 -1.0197 -0.3175
    8MOL   H946 7680   4.828   6.462   2.558 -1.1490 -1.1667  0.9042
    8MOL   H947 7681   4.768   6.307   2.553  0.2503  1.5893  1.2735
    8MOL   H948 7682   4.720   6.325   2.308 -2.5296  0.0066  0.5165
    8MOL   H949 7683   4.776   6.497   2.319 -0.6996 -0.3296 -0.4807
    8MOL   H950 7684   4.527   6.507   2.325 -0.2841 -0.6265 -0.4498
    8MOL   H951 7685   4.526   6.379   2.440  0.6774  0.1137 -0.0284
    8MOL   H952 7686   4.483   6.619   2.541  1.7604  5.0250  1.6940
    8MOL   H953 7687   4.625   6.524   2.605 -1.1527  0.2156  0.6332
    8MOL   H954 7688   4.659   6.739   2.405 -3.1774  0.6431  0.5717
    8MOL   H955 7689   4.786   6.668   2.486  0.1140  1.1315  0.7820
    8MOL   H956 7690   4.719   6.888   2.532 -2.5782  2.4116  0.0411
    8MOL   H957 7691   4.560   6.847   2.583  0.7892  0.5109 -1.4064
    8MOL   H958 7692   4.809   6.768   2.747  0.3313 -0.2387  2.0779
    8MOL   H959 7693   4.644   6.707   2.772  0.1665  0.5954 -1.2749
    8MOL   H960 7694   4.741   7.008   2.780 -2.2900  0.0201 -1.4285
    8MOL   H961 7695   4.746   6.900   2.917  0.1946 -1.9534 -0.0171
    8MOL   H962 7696   4.544   6.979   2.972  1.5672 -1.8280  0.1085
    9MOL     N1 7697   7.049   3.010   5.105  0.4356 -0.3849 -0.4077
    9MOL     C2 7698   7.149   3.103   5.051  0.8503  0.6821  0.0510
    9MOL     C3 7699   7.204   3.052   4.922 -0.8336 -0.5122 -0.1908
    9MOL     C4 7700   7.129   2.969   4.840 -0.4068 -0.1136 -0.8736
    9MOL     C5 7701   7.183   2.905   4.726  0.4289 -0.3977  0.2750
    9MOL     C6 7702   7.320   2.930   4.699 -0.3827  0.5215 -0.3176
    9MOL     C7 7703   7.396   3.018   4.771 -0.2431  0.0193  1.2208
    9MOL     C8 7704   7.336   3.086   4.880 -0.0677  0.6131 -0.7846
    9MOL     C9 7705   7.417   3.190   4.951 -0.6315  0.2348  0.0277
    9MOL    N10 7706   7.482   3.140   5.076 -0.1147 -0.2510 -0.0373
    9MOL    C11 7707   7.573   3.210   5.142  0.0842  0.3287  0.0202
    9MOL    O12 7708   7.606   3.314   5.098 -0.3525  0.2159  0.0242
    9MOL    C13 7709   7.629   3.154   5.278 -0.7003 -0.4946 -0.2502
    9MOL    C14 7710   7.781   3.175   5.290 -0.7613  0.1097  0.7271
    9MOL    C15 7711   0.077   3.099   5.190  0.0684 -0.6751  0.3819
    9MOL    C16 7712   0.216   3.133   5.209 -0.4319  0.4558  0.9885
    9MOL    C17 7713   0.299   3.030   5.132 -0.2541  0.1958  0.1435
    9MOL    C18 7714   0.306   2.892   5.197 -0.6674  0.0696 -0.1482
    9MOL    C19 7715   0.389   2.795   5.104  0.0601  0.4596  0.4318
    9MOL    C20 7716   0.397   2.643   5.158  0.4113  0.1983  0.5352
    9MOL    C21 7717   0.479   2.637   5.281 -0.2771 -0.4597  0.7470
    9MOL    O22 7718   0.600   2.669   5.277  0.3818 -0.4843 -0.1695
    9MOL    H23 7719   7.068   2.929   5.048  0.3285  0.2397 -1.3402
    9MOL    H24 7720   7.105   3.202   5.039 -1.0671 -0.2020 -0.5060
    9MOL    H25 7721   7.227   3.113   5.127 -0.8201  1.8057  1.6536
    9MOL    H26 7722   7.029   2.935   4.860 -0.1663  0.2445  0.9462
    9MOL    H27 7723   7.119   2.841   4.668  0.8876  0.9111 -1.7112
    9MOL    H28 7724   7.371   2.867   4.627  2.0900  2.6410 -0.4605
    9MOL    H29 7725   7.499   3.034   4.743 -1.0712  1.5395 -1.1454
    9MOL    H30 7726   7.352   3.276   4.970  0.4808  1.2275 -0.5946
    9MOL    H31 7727   7.497   3.219   4.884 -0.7777  2.2927  0.6921
    9MOL    H32 7728   7.455   3.049   5.112  0.7659 -1.5944 -2.6485
    9MOL    H33 7729   7.608   3.049   5.297 -1.3312  0.0570  2.2575
    9MOL    H34 7730   7.584   3.210   5.359 -1.0268  1.5844 -1.8185
    9MOL    H35 7731   0.023   3.138   5.387  2.2387  0.4372 -0.0637
    9MOL    H36 7732   0.007   3.282   5.279  0.2062 -0.3249 -2.8567
    9MOL    H37 7733   0.058   2.994   5.210 -1.2325 -0.0423  2.7054
    9MOL    H38 7734   0.050   3.117   5.086  2.2507 -1.0009 -0.2748
    9MOL    H39 7735   0.243   3.232   5.172  0.1316 -0.1513 -0.2814
    9MOL    H40 7736   0.248   3.143   5.313 -0.4489 -1.4968  1.1893
    9MOL    H41 7737   0.268   3.015   5.029  1.6896  1.8043 -0.6977
    9MOL    H42 7738   0.403   3.063   5.126 -0.2873  0.1101 -0.9085
    9MOL    H43 7739   0.205   2.851   5.204 -0.4416 -0.3685  0.5333
    9MOL    H44 7740   0.352   2.902   5.295  3.0557 -0.9977 -1.7026
    9MOL    H45 7741   0.337   2.801   5.008  0.2093  2.1337  0.4278
    9MOL    H46 7742   0.489   2.827   5.076  0.5769  0.1351  1.8683
    9MOL    H47 7743   0.442   2.583   5.079  0.9814  2.9751 -1.3237
    9MOL    H48 7744   0.301   2.592   5.168  0.6800 -0.3079  0.5328
    9MOL    H49 7745   7.085   2.991   5.198 -0.3288  0.4366  0.0638
    9MOL    N50 7746   0.429   2.565   5.381  0.1289  0.4668 -0.2286
    9MOL    C51 7747   0.483   2.541   5.516 -0.8932  0.0336 -0.0357
    9MOL    C52 7748   0.405   2.610   5.627 -0.0027 -0.1897 -0.1844
    9MOL    C53 7749   0.303   2.708   5.598  0.5849 -0.1732  0.5320
    9MOL    C54 7750   0.226   2.769   5.697  0.6860  0.4367  0.0378
    9MOL    C55 7751   0.256   2.746   5.834  0.1998  0.2843 -0.0935
    9MOL    C56 7752   0.354   2.647   5.862  0.1539 -0.5236  0.2295
    9MOL    C57 7753   0.437   2.586   5.760  0.2353 -0.2862 -0.5645
    9MOL    C58 7754   0.552   2.497   5.795 -0.0957  0.5272  0.5300
    9MOL    N59 7755   0.608   2.525   5.928 -0.4994  0.2841 -0.1734
    9MOL    C60 7756   0.706   2.612   5.965  1.4378 -0.1025  0.6363
    9MOL    O61 7757   0.734   2.633   6.080  0.1499 -0.0507  0.6563
    9MOL    C62 7758   0.791   2.677   5.854 -0.7717  0.2766  0.1770
    9MOL    C63 7759   0.770   2.827   5.858 -0.4373  0.1110 -0.5485
    9MOL    C64 7760   0.651   2.882   5.786  0.5229 -0.8967  0.7361
    9MOL    C65 7761   0.654   3.037   5.777  0.0019 -0.1466  0.0596
    9MOL    C66 7762   0.544   3.104   5.692  0.1677 -0.3832 -0.3407
    9MOL    C67 7763   0.568   3.256   5.667 -0.3128 -0.6079 -0.4027
    9MOL    C68 7764   0.471   3.307   5.553 -0.1777 -0.1699 -0.4340
    9MOL    C69 7765   0.331   3.330   5.607  0.1842  0.3402 -0.3767
    9MOL    C70 7766   0.252   3.430   5.526 -0.2455 -0.1727  0.6385
    9MOL    O71 7767   0.236   3.415   5.406 -0.6438  0.1276  0.2322
    9MOL    H72 7768   0.329   2.554   5.369 -0.0609 -0.9728  2.5267
    9MOL    H73 7769   0.581   2.588   5.508 -0.9722  0.9694  3.4289
    9MOL    H74 7770   0.485   2.434   5.532 -2.6885  0.1358  0.9985
    9MOL    H75 7771   0.284   2.737   5.496 -2.1018  1.3741  1.4298
    9MOL    H76 7772   0.150   2.840   5.669 -1.0053 -1.6711 -0.8062
    9MOL    H77 7773   0.205   2.801   5.911 -1.4272 -1.4901  0.1240
    9MOL    H78 7774   0.382   2.630   5.965 -0.3259  3.2264  1.0479
    9MOL    H79 7775   0.638   2.477   5.731 -0.9992  0.3057 -0.6375
    9MOL    H80 7776   0.502   2.404   5.824 -2.9851  2.3116  1.4551
    9MOL    H81 7777   0.555   2.492   6.007  1.0134  1.2769  1.2699
    9MOL    H82 7778   0.770   2.640   5.753 -2.6271  0.5086  0.4685
    9MOL    H83 7779   0.892   2.646   5.880  0.6670  2.6006 -2.3689
    9MOL    H84 7780   0.863   2.880   5.836 -1.2145  1.9020  0.3331
    9MOL    H85 7781   0.761   2.858   5.962 -1.9172  0.7600 -0.8558
    9MOL    H86 7782   0.643   2.842   5.685 -1.1530  0.1628  0.4287
    9MOL    H87 7783   0.558   2.852   5.834 -0.5441  0.6686 -0.3011
    9MOL    H88 7784   0.660   3.072   5.879 -1.0135 -1.0916  0.4536
    9MOL    H89 7785   0.750   3.067   5.736 -1.5174  0.4585 -3.2331
    9MOL    H90 7786   0.539   3.053   5.596  0.9175 -1.0904 -0.0153
    9MOL    H91 7787   0.446   3.096   5.739  0.3383  0.7741  0.2422
    9MOL    H92 7788   0.671   3.268   5.632 -0.2954  0.0318 -0.1411
    9MOL    H93 7789   0.568   3.314   5.759  2.7953 -0.6292 -0.3140
    9MOL    H94 7790   0.476   3.243   5.465  0.5305  0.1499 -0.6290
    9MOL    H95 7791   0.513   3.405   5.532 -0.8934 -0.2674 -2.3539
    9MOL    H96 7792   0.335   3.364   5.710  0.5303 -1.4912  0.2394
    9MOL    H97 7793   0.272   3.239   5.614  1.0055 -0.0787  1.6580
    9MOL    N98 7794   0.208   3.537   5.588  0.0589 -0.7030 -0.0725
    9MOL    C99 7795   0.105   3.630   5.530  0.1623  0.7851 -0.5400
    9MOL   C100 7796   7.753   3.595   5.578 -0.2853  0.3527 -0.3773
    9MOL   C101 7797   7.689   3.481   5.531 -0.0577 -0.1648  0.1024
    9MOL   C102 7798   7.552   3.465   5.560 -0.7875  0.6594 -0.5976
    9MOL   C103 7799   7.479   3.559   5.634  0.4051  0.1467 -0.5323
    9MOL   C104 7800   7.543   3.670   5.683  0.6492 -0.4329 -0.0114
    9MOL   C105 7801   7.684   3.688   5.663  0.4057  0.3418 -0.7145
    9MOL   C106 7802   7.749   3.821   5.713 -0.0799 -0.4038 -0.1658
    9MOL   N107 7803   7.665   3.904   5.798 -0.1010 -0.6849 -0.1693
    9MOL   C108 7804   7.660   3.897   5.933 -0.6000  0.6602 -0.3180
    9MOL   O109 7805   7.716   3.804   5.994 -0.2477 -0.5184  0.2314
    9MOL   C110 7806   7.604   4.016   6.013 -0.9710 -0.0370 -0.4297
    9MOL   C111 7807   7.578   3.986   6.161  0.1369  0.3998 -0.1218
    9MOL   C112 7808   7.537   4.107   6.248  0.7846  0.2505  0.1749
    9MOL   C113 7809   7.495   4.089   6.395  0.1133  0.0767 -0.0079
    9MOL   C114 7810   7.480   4.230   6.461 -0.1974 -0.0154  0.1821
    9MOL   C115 7811   7.473   4.208   6.614  0.2513 -0.4846  0.3915
    9MOL   C116 7812   7.415   4.327   6.689 -0.3355 -0.4237  0.0294
    9MOL   C117 7813   7.369   4.293   6.829 -0.2926 -0.6880  0.0476
    9MOL   C118 7814   7.263   4.179   6.846  1.0385 -0.6331  0.0531
    9MOL   O119 7815   7.141   4.202   6.852  0.2373 -0.1320 -0.0306
    9MOL   H120 7816   0.228   3.542   5.686 -1.0685 -2.2491  0.2601
    9MOL   H121 7817   0.136   3.733   5.545  1.2122  0.7061 -2.0485
    9MOL   H122 7818   0.114   3.620   5.422 -0.7175 -0.6092 -0.4931
    9MOL   H123 7819   7.738   3.400   5.479  1.2514  1.3134 -1.0209
    9MOL   H124 7820   7.495   3.380   5.526  2.0260 -1.4447 -0.2354
    9MOL   H125 7821   7.379   3.548   5.673  0.8954 -2.0222  0.1458
    9MOL   H126 7822   7.491   3.746   5.739  0.0365 -0.1344 -0.9815
    9MOL   H127 7823   7.776   3.892   5.635  0.1814  1.9928  2.0291
    9MOL   H128 7824   0.055   3.798   5.759 -1.0616 -0.1205  2.1149
    9MOL   H129 7825   7.637   3.996   5.768  1.7351  0.3488  1.2024
    9MOL   H130 7826   7.513   4.051   5.965 -1.0955  0.4146  0.1355
    9MOL   H131 7827   7.670   4.103   6.010  1.0634 -1.5270 -0.3352
    9MOL   H132 7828   7.675   3.954   6.198  0.5068  1.4395 -0.1820
    9MOL   H133 7829   7.501   3.909   6.172  0.8996 -0.5791 -1.4702
    9MOL   H134 7830   7.614   4.185   6.250 -0.1106  1.2909 -2.9087
    9MOL   H135 7831   7.455   4.162   6.201  0.1036 -0.6892  0.2627
    9MOL   H136 7832   7.402   4.032   6.385 -1.3758  2.7300 -1.9533
    9MOL   H137 7833   7.562   4.025   6.452 -0.4773  0.4235  1.0900
    9MOL   H138 7834   7.574   4.283   6.447  1.2674 -2.7402 -0.7817
    9MOL   H139 7835   7.396   4.291   6.429  0.8247  3.7761  4.1503
    9MOL   H140 7836   7.570   4.187   6.659  1.7704  0.4353 -2.3213
    9MOL   H141 7837   7.414   4.119   6.635  0.2509 -1.0867 -2.1267
    9MOL   H142 7838   7.489   4.406   6.694 -0.5041 -0.3202  0.9208
    9MOL   H143 7839   7.323   4.368   6.648  2.0006  2.7988 -2.1823
    9MOL   H144 7840   7.330   4.386   6.869 -0.8944 -0.6969 -0.5188
    9MOL   H145 7841   7.455   4.257   6.888 -1.1864  0.5375  2.1606
    9MOL   N146 7842   7.308   4.052   6.856  0.2060  0.3286 -0.5228
    9MOL   C147 7843   7.233   3.932   6.897  0.1254  0.5072  0.0707
    9MOL   C148 7844   7.234   3.812   6.805  0.4472 -0.3496  0.5523
    9MOL   C149 7845   7.285   3.829   6.677 -0.4841 -0.2089 -0.9300
    9MOL   C150 7846   7.299   3.720   6.593 -0.3367 -0.2492 -0.7064
    9MOL   C151 7847   7.284   3.592   6.642  0.3608 -0.1476  0.4904
    9MOL   C152 7848   7.232   3.567   6.772 -0.6059 -0.5020  0.1235
    9MOL   C153 7849   7.203   3.682   6.852 -0.0419 -0.1025 -0.3040
    9MOL   C154 7850   7.146   3.655   6.990 -0.3606 -0.1945 -0.0870
    9MOL   N155 7851   7.205   3.534   7.050 -0.8043  0.0218  0.0363
    9MOL   C156 7852   7.295   3.538   7.153  0.7384 -0.6367  0.0822
    9MOL   O157 7853   7.324   3.646   7.203 -0.1444 -0.4198 -0.1053
    9MOL   C158 7854   7.355   3.419   7.213  0.2028  0.3275  0.5310
    9MOL   C159 7855   7.323   3.400   7.364 -0.6283 -1.1542 -0.2175
    9MOL   C160 7856   7.175   3.386   7.405 -0.2290 -0.1595  0.4484
    9MOL   C161 7857   7.148   3.366   7.559 -0.2438 -0.4465 -0.6189
    9MOL   C162 7858   7.168   3.219   7.616  0.2355 -0.5761  0.4187
    9MOL   C163 7859   7.180   3.223   7.768 -0.0807  0.0924  0.4585
    9MOL   C164 7860   7.234   3.089   0.025 -0.4426  0.0127  0.2031
    9MOL   C165 7861   7.273   3.075   0.169 -0.6240 -0.5320 -0.5323
    9MOL   C166 7862   7.147   3.057   0.259  0.0229 -0.4277 -0.7227
    9MOL   O167 7863   7.047   2.997   0.226 -0.3597  0.3517  0.5248
    9MOL   H168 7864   7.408   4.044   6.849  0.2404  1.0453 -1.0212
    9MOL   H169 7865   7.128   3.953   6.917  0.4705  0.3308  2.1764
    9MOL   H170 7866   7.274   3.894   6.990 -2.6868 -1.1797  0.6701
    9MOL   H171 7867   7.318   3.922   6.635  0.3898 -0.3284 -0.5038
    9MOL   H172 7868   7.334   3.746   6.494  0.2636  1.1273 -0.1469
    9MOL   H173 7869   7.304   3.509   6.576  0.6169  0.2944  0.0105
    9MOL   H174 7870   7.219   3.464   6.800  0.6953 -1.0052 -1.0143
    9MOL   H175 7871   7.038   3.645   6.985 -0.3756  0.0554 -0.2930
    9MOL   H176 7872   7.150   3.744   7.053 -0.0258  0.2122 -0.6722
    9MOL   H177 7873   7.184   3.442   7.013 -1.3643  0.1904 -0.0717
    9MOL   H178 7874   7.462   3.422   7.193 -0.1429  1.7689 -1.1858
    9MOL   H179 7875   7.324   3.325   7.167  1.1210  0.6164 -0.6968
    9MOL   H180 7876   7.349   3.491   7.419 -1.3970 -0.8067 -0.4197
    9MOL   H181 7877   7.378   3.318   7.409  1.5070  1.7040  2.6312
    9MOL   H182 7878   7.120   3.475   7.375  0.6160  0.6627  1.3063
    9MOL   H183 7879   7.134   3.299   7.355 -0.2102 -0.4897  1.0100
    9MOL   H184 7880   7.209   3.435   7.617 -0.2582 -1.2303  0.3387
    9MOL   H185 7881   7.048   3.398   7.586 -0.9374 -2.6923 -0.3626
    9MOL   H186 7882   7.078   3.171   7.577 -0.7839  1.0106  0.7620
    9MOL   H187 7883   7.251   3.161   7.575 -1.5114 -0.0897 -4.1084
    9MOL   H188 7884   7.077   3.232   0.012 -0.6035 -1.7305 -0.5696
    9MOL   H189 7885   7.241   3.308   0.008  0.4583  1.0020 -3.0517
    9MOL   H190 7886   7.159   3.016   7.785 -1.0964  1.4901 -1.9003
    9MOL   H191 7887   7.316   3.044   7.759  1.9891  1.9303  2.1225
    9MOL   H192 7888   7.345   3.147   0.207 -1.2336  0.0432 -0.4511
    9MOL   H193 7889   7.336   2.988   0.185  0.1693  0.4316  1.7984
    9MOL   N194 7890   7.162   3.103   0.385 -0.0946 -0.7997 -0.4826
    9MOL   C195 7891   7.066   3.100   0.492  0.0039  0.2298 -0.3088
    9MOL   C196 7892   6.939   3.182   0.472  0.6542 -0.4441 -0.3517
    9MOL   C197 7893   6.951   3.322   0.467 -0.1419 -0.7474 -0.8577
    9MOL   C198 7894   6.841   3.408   0.478 -0.8300  0.1310 -0.1421
    9MOL   C199 7895   6.714   3.352   0.466 -0.7661 -0.1210 -0.1716
    9MOL   C200 7896   6.698   3.211   0.463 -0.6925  0.4741  0.2962
    9MOL   C201 7897   6.808   3.127   0.462  0.2130  0.6485 -0.4117
    9MOL   C202 7898   6.785   2.976   0.473  0.3319  0.4753 -0.5130
    9MOL   N203 7899   6.775   2.918   0.335  0.1594  0.7092 -0.6891
    9MOL   C204 7900   6.661   2.876   0.273  1.0943  0.3701  0.5036
    9MOL   O205 7901   6.553   2.884   0.321  0.6695 -0.3003  0.1811
    9MOL   C206 7902   6.672   2.812   0.134  0.0599 -0.4886  0.5153
    9MOL   C207 7903   6.652   2.660   0.141 -0.3033  0.5883 -0.4948
    9MOL   C208 7904   6.652   2.590   0.002  0.5436 -0.1117 -0.1263
    9MOL   C209 7905   6.782   2.605   7.711 -0.4409 -0.5637  0.0397
    9MOL   C210 7906   6.902   2.521   7.764 -0.2246 -0.8206 -0.0254
    9MOL   C211 7907   7.034   2.533   7.691 -0.3646  0.4747 -0.0704
    9MOL   C212 7908   7.106   2.667   7.703 -0.6331  0.5093  0.4827
    9MOL   C213 7909   7.163   2.691   0.055 -0.2538  0.3977  0.1333
    9MOL   C214 7910   7.318   2.679   0.046  0.6340  0.1223 -0.8277
    9MOL   O215 7911   7.391   2.763   0.091  0.3755 -0.1502  0.1033
    9MOL   H216 7912   7.250   3.146   0.410 -0.3420 -0.2242 -0.5972
    9MOL   H217 7913   7.053   2.994   0.517  2.2278  0.0241  0.0950
    9MOL   H218 7914   7.118   3.147   0.576  0.5493 -1.4703  0.3317
    9MOL   H219 7915   7.051   3.361   0.474 -0.1237 -0.3720 -2.8900
    9MOL   H220 7916   6.861   3.514   0.489 -2.6280  0.3580  1.3116
    9MOL   H221 7917   6.625   3.409   0.492  0.4088  0.0657  3.8398
    9MOL   H222 7918   6.595   3.176   0.462 -1.5219  2.8278  0.5868
    9MOL   H223 7919   6.687   2.962   0.519  0.4980 -1.8522 -0.8294
    9MOL   H224 7920   6.852   2.922   0.540  0.1504  0.0577 -0.6692
    9MOL   H225 7921   6.862   2.925   0.284  0.5733  0.1432 -0.0730
    9MOL   H226 7922   6.770   2.834   0.092 -0.7511 -2.1630 -2.4108
    9MOL   H227 7923   6.593   2.860   0.075  1.0636 -0.7569 -1.0682
    9MOL   H228 7924   6.722   2.609   0.208 -0.6384 -0.1528 -0.7089
    9MOL   H229 7925   6.553   2.638   0.180 -0.0125 -1.6340 -0.9851
    9MOL   H230 7926   6.615   2.488   7.789 -0.1084  0.1276 -0.4586
    9MOL   H231 7927   6.579   2.647   7.733 -1.5553 -1.4342  1.1657
    9MOL   H232 7928   6.761   2.583   7.606  1.5304  2.2937 -1.0086
    9MOL   H233 7929   6.820   2.707   7.713 -1.3876 -0.1976 -0.2693
    9MOL   H234 7930   6.911   2.544   0.081  0.6310 -0.6994 -0.1199
    9MOL   H235 7931   6.881   2.415   7.768  1.6546 -1.1950  0.7221
    9MOL   H236 7932   7.028   2.523   7.582  0.2508 -2.2339  0.1115
    9MOL   H237 7933   7.104   2.454   7.719  0.1651  0.2425 -1.9338
    9MOL   H238 7934   7.028   2.742   7.687 -1.8699 -0.8797 -0.1743
    9MOL   H239 7935   7.177   2.687   7.623 -0.3584  0.3372  0.6807
    9MOL   H240 7936   7.148   2.792   0.095 -0.5793  0.0839  0.8113
    9MOL   H241 7937   7.133   2.618   0.129 -0.7693  0.1085 -0.3572
    9MOL   N242 7938   7.376   2.575   7.770  0.1244 -0.7496  0.5545
    9MOL   C243 7939   7.515   2.549   7.766 -0.0584 -0.0913 -0.1881
    9MOL   C244 7940   7.545   2.430   7.666 -0.4043  0.7346  0.0101
    9MOL   C245 7941   7.579   2.301   7.717  0.3137 -0.4538  0.2678
    9MOL   C246 7942   7.643   2.206   7.641 -0.1400 -0.1216 -0.0356
    9MOL   C247 7943   7.661   2.226   7.507  0.1313  0.1849  0.1222
    9MOL   C248 7944   7.611   2.345   7.452 -0.3138 -0.1949 -0.5335
    9MOL   C249 7945   7.557   2.449   7.528  0.5035 -0.0848  0.2374
    9MOL   C250 7946   7.515   2.579   7.459  0.1647  0.4359  0.8083
    9MOL   N251 7947   7.456   2.562   7.324 -0.6262  0.0461  0.1538
    9MOL   C252 7948   7.326   2.574   7.300 -0.3481  0.0489  0.0888
    9MOL   O253 7949   7.232   2.562   7.378  0.0670  0.5492  0.2973
    9MOL   C254 7950   7.291   2.620   7.156 -0.4261  0.7844  0.1293
    9MOL   C255 7951   7.240   2.508   7.064  0.5220  0.0379  0.8214
    9MOL   C256 7952   7.345   2.396   7.037 -0.2842 -0.1105 -0.3754
    9MOL   C257 7953   7.300   2.293   6.934 -0.1325  0.1827  0.6876
    9MOL   C258 7954   7.394   2.177   6.928 -0.5998  0.7156  0.4050
    9MOL   C259 7955   7.332   2.060   6.842  0.2386 -1.1677 -1.0919
    9MOL   C260 7956   7.201   1.985   6.898  0.0666 -0.7737 -0.6752
    9MOL   C261 7957   7.132   1.921   6.780  0.2830 -0.2660 -0.0236
    9MOL   C262 7958   7.052   2.020   6.692 -0.4418 -0.5034  0.3891
    9MOL   O263 7959   7.099   2.051   6.585 -0.3977 -0.2579 -0.8547
    9MOL   H264 7960   7.319   2.499   7.736 -0.2535 -0.2943  0.1526
    9MOL   H265 7961   7.569   2.641   7.746  0.5647 -0.3618  0.2121
    9MOL   H266 7962   7.538   2.520   0.079 -1.2045 -1.0621 -0.1933
    9MOL   H267 7963   7.588   2.278   0.033 -1.3702 -3.2804 -0.1566
    9MOL   H268 7964   7.669   2.109   7.680 -0.1339  0.4139  1.3012
    9MOL   H269 7965   7.712   2.157   7.442  2.1739  1.4902  0.2770
    9MOL   H270 7966   7.636   2.364   7.349  1.1227  0.4395 -0.0789
    9MOL   H271 7967   7.600   2.647   7.455  0.5222 -0.1362 -2.7060
    9MOL   H272 7968   7.452   2.633   7.530  0.1798  1.4342  0.0608
    9MOL   H273 7969   7.513   2.587   7.245 -2.9883  2.6475 -0.8095
    9MOL   H274 7970   7.383   2.651   7.106  1.0409 -1.5042  1.3449
    9MOL   H275 7971   7.229   2.710   7.157 -0.7260  0.5732  0.7026
    9MOL   H276 7972   7.219   2.565   6.974  1.9472 -1.6810 -0.6482
    9MOL   H277 7973   7.149   2.461   7.103  0.9101 -1.6959 -0.2807
    9MOL   H278 7974   7.372   2.357   7.136  0.5316 -1.3308 -1.0602
    9MOL   H279 7975   7.436   2.447   7.006 -0.2744  0.6940  0.9513
    9MOL   H280 7976   7.200   2.260   6.959 -0.4994  0.6367 -0.1714
    9MOL   H281 7977   7.289   2.331   6.833 -0.5532  0.7798  0.9591
    9MOL   H282 7978   7.495   2.199   6.891 -0.2371 -2.6542 -0.8127
    9MOL   H283 7979   7.406   2.149   7.033  0.5252 -0.1193  0.0689
    9MOL   H284 7980   7.415   1.994   6.819 -0.3574 -1.9137 -1.1200
    9MOL   H285 7981   7.309   2.105   6.745 -0.9225 -0.5350 -0.5383
    9MOL   H286 7982   7.241   1.899   6.951  0.4064  1.0863  2.1982
    9MOL   H287 7983   7.145   2.050   6.965  3.1811  0.8151  0.5200
    9MOL   H288 7984   7.198   1.860   6.718  0.2927  0.2208 -0.4925
    9MOL   H289 7985   7.058   1.853   6.823  1.2242 -0.0135  2.0750
    9MOL   N290 7986   6.931   2.060   6.738  0.2111  0.3205 -0.4100
    9MOL   C291 7987   6.835   2.142   6.663  0.7160 -0.8382 -0.0118
    9MOL   C292 7988   6.680   2.126   6.695 -0.0634 -0.2891 -0.4599
    9MOL   C293 7989   6.599   2.230   6.746  0.5513 -0.7726  0.8171
    9MOL   C294 7990   6.462   2.214   6.762  0.9164  0.7798  0.2057
    9MOL   C295 7991   6.405   2.087   6.745  0.3778 -0.7010  0.0664
    9MOL   C296 7992   6.482   1.981   6.703  0.3446  0.4946  1.2006
    9MOL   C297 7993   6.615   1.998   6.667 -0.0308 -0.6197 -0.1222
    9MOL   C298 7994   6.694   1.890   6.594 -0.2076  0.2355  0.0008
    9MOL   N299 7995   6.639   1.754   6.603  0.3514 -0.1301  0.2017
    9MOL   C300 7996   6.604   1.678   6.496 -0.6392  0.3184  1.2684
    9MOL   O301 7997   6.598   1.715   6.379 -0.2427  0.1716  0.1239
    9MOL   C302 7998   6.539   1.539   6.532  0.7717 -0.1684  0.1115
    9MOL   C303 7999   6.485   1.468   6.409  0.1540  0.4619 -0.2414
    9MOL   C304 8000   6.415   1.343   6.449 -0.4877 -0.0242  0.8751
    9MOL   C305 8001   6.332   1.286   6.325 -0.2019  0.0040  0.2321
    9MOL   C306 8002   6.272   1.158   6.377 -0.0469 -0.3787 -0.4776
    9MOL   C307 8003   6.171   1.173   6.494 -0.1318 -0.0692 -0.0683
    9MOL   C308 8004   6.116   1.033   6.533  0.1369 -0.7818  0.8990
    9MOL   C309 8005   5.991   1.045   6.625  0.2164  0.4821  0.8120
    9MOL   C310 8006   5.863   1.090   6.551 -0.5598 -0.7143  0.6874
    9MOL   O311 8007   5.841   1.086   6.427 -0.0698 -0.1764 -0.3313
    9MOL   H312 8008   6.902   2.021   6.827  0.4803 -1.7846 -1.2205
    9MOL   H313 8009   6.869   2.244   6.680 -2.2646  0.1717  0.2718
    9MOL   H314 8010   6.852   2.123   6.557 -0.2816 -1.6949 -0.0357
    9MOL   H315 8011   6.637   2.330   6.752 -0.8068 -0.0373 -1.7691
    9MOL   H316 8012   6.405   2.303   6.784 -2.0752 -0.7278 -1.1311
    9MOL   H317 8013   6.299   2.065   6.749  0.6835 -2.5648 -1.5114
    9MOL   H318 8014   6.422   1.894   6.679 -0.8433  1.4321  0.7698
    9MOL   H319 8015   6.799   1.882   6.622  0.4718  0.6247 -2.3152
    9MOL   H320 8016   6.705   1.921   6.490 -0.8635  0.8504  0.1111
    9MOL   H321 8017   6.656   1.704   6.689  1.9336  0.7518  0.4197
    9MOL   H322 8018   6.624   1.485   6.574 -0.8733 -2.8268  0.1725
    9MOL   H323 8019   6.454   1.549   6.599 -0.2691  0.9042 -1.3126
    9MOL   H324 8020   6.560   1.432   6.340 -0.1754  2.7290 -1.8308
    9MOL   H325 8021   6.417   1.532   6.353 -1.3759 -1.3128 -0.4492
    9MOL   H326 8022   6.341   1.369   6.525 -1.9248 -0.6069 -0.3008
    9MOL   H327 8023   6.471   1.260   6.494  0.8138  1.9226  2.9400
    9MOL   H328 8024   6.266   1.367   6.295  0.0542 -0.6728 -2.2479
    9MOL   H329 8025   6.403   1.272   6.243  0.7177  0.5211  0.9268
    9MOL   H330 8026   6.216   1.115   6.294 -1.6984 -0.8404  0.8483
    9MOL   H331 8027   6.340   1.075   6.397 -2.8757 -2.0307  2.7913
    9MOL   H332 8028   6.089   1.235   6.459  1.4997  2.0175 -0.3212
    9MOL   H333 8029   6.210   1.220   6.585  0.3622 -0.5096 -0.0484
    9MOL   H334 8030   6.101   0.955   6.458 -1.6869 -1.2094  1.7016
    9MOL   H335 8031   6.201   0.990   6.587  2.0696  1.9377  0.1685
    9MOL   H336 8032   5.966   0.946   6.664  2.3419  0.1424  1.3597
    9MOL   H337 8033   6.014   1.107   6.711  0.6506  1.7191 -0.1913
    9MOL   N338 8034   5.791   1.171   6.630  0.0871 -0.1418 -0.0260
    9MOL   C339 8035   5.662   1.227   6.586  0.4917  0.3711 -0.2449
    9MOL   C340 8036   5.624   1.364   6.637  0.2448  0.3746 -0.0989
    9MOL   C341 8037   5.495   1.381   6.694  0.0269  0.2309  1.2711
    9MOL   C342 8038   5.448   1.509   6.735  0.4235 -0.1874  0.1578
    9MOL   C343 8039   5.543   1.610   6.738  0.3231 -0.2712 -0.0416
    9MOL   C344 8040   5.673   1.598   6.676  0.4779  0.6747 -0.6818
    9MOL   C345 8041   5.710   1.474   6.624 -0.5568  0.3433 -0.5879
    9MOL   C346 8042   5.850   1.459   6.563 -0.0583  0.2614 -0.2551
    9MOL   N347 8043   5.848   1.402   6.426  0.3975 -0.1513 -0.3846
    9MOL   C348 8044   5.847   1.468   6.313 -0.2211  0.5130  0.6778
    9MOL   O349 8045   5.844   1.594   6.310 -0.0484 -0.3488  0.2578
    9MOL   C350 8046   5.861   1.389   6.177 -0.0659 -0.4111  0.1433
    9MOL   C351 8047   5.996   1.414   6.107  0.1654 -0.2791 -0.2221
    9MOL   C352 8048   5.989   1.542   6.021  0.7750  0.3253 -0.3798
    9MOL   C353 8049   6.116   1.556   5.928 -0.2653 -0.4967  0.3007
    9MOL   C354 8050   6.115   1.673   5.830 -0.8313 -0.1802  0.0445
    9MOL   C355 8051   6.140   1.806   5.907 -0.1199 -0.1613 -0.0960
    9MOL   C356 8052   6.115   1.946   5.845  0.0353 -0.4051  0.1372
    9MOL   C357 8053   6.165   2.052   5.941 -0.7236  0.5164 -0.7028
    9MOL   C358 8054   6.211   2.175   5.863  0.4880  1.0543 -0.3434
    9MOL   O359 8055   6.143   2.224   5.775  0.7053 -0.5532 -0.1554
    9MOL   H360 8056   5.833   1.198   6.718 -0.5474  2.8094 -0.5831
    9MOL   H361 8057   5.641   1.234   6.479 -1.4221 -1.7780 -0.0525
    9MOL   H362 8058   5.594   1.151   6.625 -0.4487  1.4129  0.1896
    9MOL   H363 8059   5.423   1.300   6.700 -1.3106  1.1420 -1.5943
    9MOL   H364 8060   5.357   1.521   6.791  1.6290 -0.0740  2.1293
    9MOL   H365 8061   5.514   1.707   6.776 -0.9128 -0.2158 -1.0843
    9MOL   H366 8062   5.741   1.681   6.684  0.2480  0.7176  1.0297
    9MOL   H367 8063   5.908   1.394   6.629 -1.5372  0.9353  1.7402
    9MOL   H368 8064   5.902   1.555   6.563  1.0859 -0.3408  0.7705
    9MOL   H369 8065   5.840   1.302   6.417  3.9762 -0.5435 -0.1351
    9MOL   H370 8066   5.772   1.424   6.125 -0.7164  0.4753  1.8104
    9MOL   H371 8067   5.855   1.281   6.196  2.8781 -1.1380 -2.6009
    9MOL   H372 8068   6.008   1.325   6.045  0.5034 -0.7047  0.4562
    9MOL   H373 8069   6.077   1.407   6.179 -0.5843  2.2253  0.9343
    9MOL   H374 8070   5.894   1.535   5.969  1.2429  1.5349 -1.4259
    9MOL   H375 8071   5.986   1.628   6.089  1.3429 -0.2002  0.3270
    9MOL   H376 8072   6.108   1.466   5.867  1.7322 -0.6632  0.2462
    9MOL   H377 8073   6.212   1.546   5.980 -0.2342 -0.9553  0.1602
    9MOL   H378 8074   6.192   1.655   5.755 -1.9432 -1.9377 -0.7163
    9MOL   H379 8075   6.012   1.681   5.794 -0.3491  0.2503 -1.2534
    9MOL   H380 8076   6.248   1.811   5.920  0.2555 -0.9493 -2.5594
    9MOL   H381 8077   6.103   1.819   6.008  1.1116  1.4843  0.1584
    9MOL   H382 8078   6.166   1.953   5.749  1.7528  1.3960  1.1624
    9MOL   H383 8079   6.011   1.973   5.824 -0.2834 -0.1845  1.9379
    9MOL   H384 8080   6.255   2.008   5.984 -2.2031 -1.1795  0.7453
    9MOL   H385 8081   6.096   2.078   6.021  0.3817  1.5931 -0.0778
    9MOL   N386 8082   6.322   2.233   5.913  0.2319  0.1881  0.4463
    9MOL   C387 8083   6.363   2.359   5.841 -0.3024  0.5979 -0.6207
    9MOL   C388 8084   6.495   2.407   5.884  0.1418 -0.6374  0.0796
    9MOL   C389 8085   6.609   2.363   5.813  0.3066 -0.0852  0.0653
    9MOL   C390 8086   6.739   2.402   5.845 -0.2007 -0.5256  0.2917
    9MOL   C391 8087   6.762   2.495   5.951 -0.7137  0.7590  0.6294
    9MOL   C392 8088   6.652   2.535   6.021  0.2510 -0.4845 -0.5817
    9MOL   C393 8089   6.518   2.492   6.000 -0.3674 -0.0389 -0.0711
    9MOL   C394 8090   6.409   2.541   6.092 -0.7340  0.2116 -0.4036
    9MOL   N395 8091   6.378   2.679   6.082  0.0831  0.0869 -0.2780
    9MOL   C396 8092   6.432   2.778   6.155  0.4436  0.5012 -0.1578
    9MOL   O397 8093   6.510   2.757   6.250 -0.6936  0.4133 -0.6205
    9MOL   C398 8094   6.367   2.917   6.133 -0.2973 -0.8478 -0.1498
    9MOL   C399 8095   6.440   3.036   6.208 -0.3850 -0.6422 -0.1473
    9MOL   C400 8096   6.443   3.033   6.360  0.7076 -0.5486  0.2885
    9MOL   C401 8097   6.512   3.160   6.421  0.2308  0.6599 -0.0189
    9MOL   C402 8098   6.521   3.156   6.574 -0.4548 -0.7438  0.2411
    9MOL   C403 8099   6.614   3.049   6.629 -0.0945 -0.2576 -0.1379
    9MOL   C404 8100   6.668   3.070   6.767 -0.5749 -0.1169  0.4435
    9MOL   C405 8101   6.570   3.051   6.885 -0.1739 -0.1365  0.5197
    9MOL   C406 8102   6.645   3.050   7.022 -0.4338 -0.0887  0.0938
    9MOL   O407 8103   6.744   2.976   7.035  0.2882  0.2082  0.7675
    9MOL   H408 8104   6.369   2.202   5.997 -0.3911 -3.6710 -0.5333
    9MOL   H409 8105   6.366   2.341   5.734 -1.5734  1.3584 -0.7985
    9MOL   H410 8106   6.298   2.446   5.844  0.5572  1.2784 -1.7885
    9MOL   H411 8107   6.594   2.295   5.731  1.4888 -0.1586 -0.1057
    9MOL   H412 8108   6.826   2.368   5.790  0.4039 -0.1986  1.0235
    9MOL   H413 8109   6.859   2.534   5.976 -0.3624  0.6552 -0.5405
    9MOL   H414 8110   6.683   2.594   6.106 -0.1788 -0.3720 -0.5068
    9MOL   H415 8111   6.459   2.524   6.188 -2.5624  0.8469  0.6906
    9MOL   H416 8112   6.320   2.480   6.074 -2.1322  1.9454  0.4451
    9MOL   H417 8113   6.317   2.709   6.006  0.1385 -1.1094 -0.8067
    9MOL   H418 8114   6.370   2.939   6.026 -1.3640 -0.1149 -0.0279
    9MOL   H419 8115   6.260   2.915   6.154 -0.2722 -0.4909  0.0255
    9MOL   H420 8116   6.375   3.119   6.178  0.3199 -0.1277 -0.2732
    9MOL   H421 8117   6.534   3.059   6.157 -1.1745  1.2436 -0.8157
    9MOL   H422 8118   6.491   2.945   6.403  0.9876 -1.0449 -1.0462
    9MOL   H423 8119   6.340   3.009   6.387  0.6689  0.6032  1.2267
    9MOL   H424 8120   6.612   3.178   6.383  0.1053  3.7005  0.9296
    9MOL   H425 8121   6.473   3.254   6.383  0.5642  1.4216  1.4846
    9MOL   H426 8122   6.556   3.255   6.602 -0.0662 -1.0734  0.9500
    9MOL   H427 8123   6.421   3.153   6.618 -0.9682  0.1002 -0.8463
    9MOL   H428 8124   6.697   3.030   6.561  0.9542 -0.6139  1.2463
    9MOL   H429 8125   6.550   2.961   6.624  1.2889 -1.2266 -1.0727
    9MOL   H430 8126   6.715   3.169   6.771 -1.2480  0.2111  0.4398
    9MOL   H431 8127   6.746   2.996   6.781 -0.5025 -0.4171 -1.4419
    9MOL   H432 8128   6.511   2.959   6.876 -0.0204 -0.4174  2.1901
    9MOL   H433 8129   6.495   3.130   6.879  2.2175  2.0851 -0.5879
    9MOL   N434 8130   6.610   3.142   7.114 -0.3488  0.3148  0.5067
    9MOL   C435 8131   6.664   3.145   7.242 -0.2191  0.6774  0.2590
    9MOL   C436 8132   6.707   3.285   7.297  0.0837  0.1194 -0.3428
    9MOL   C437 8133   6.661   3.325   7.421 -0.1424 -0.2424 -0.4346
    9MOL   C438 8134   6.690   3.446   7.479 -0.1891 -0.3639 -0.2021
    9MOL   C439 8135   6.765   3.539   7.403  0.2407  0.2908 -0.7801
    9MOL   C440 8136   6.828   3.497   7.281  0.5352  0.7570 -0.7397
    9MOL   C441 8137   6.797   3.369   7.230  0.4833 -1.0879  0.2064
    9MOL   C442 8138   6.863   3.331   7.095 -0.5788 -0.2980  0.0407
    9MOL   N443 8139   6.928   3.195   7.089  0.5163  0.2960 -0.3803
    9MOL   C444 8140   7.055   3.174   7.050  0.3568  0.1321  0.1400
    9MOL   O445 8141   7.129   3.269   7.040 -0.6906  0.3499 -0.2831
    9MOL   C446 8142   7.099   3.033   7.021 -0.0414  0.5557 -0.3691
    9MOL   C447 8143   7.178   3.012   6.893  0.1390  0.4423 -0.0509
    9MOL   C448 8144   7.217   2.861   6.869 -0.5204 -0.6557  0.2076
    9MOL   C449 8145   7.308   2.840   6.749  0.1358  0.3988  0.5441
    9MOL   C450 8146   7.366   2.705   6.733 -0.1788  0.1305 -1.0352
    9MOL   C451 8147   7.483   2.703   6.632  0.2826  0.3474  0.7750
    9MOL   C452 8148   7.445   2.691   6.480 -0.5355 -0.6037  0.0001
    9MOL   C453 8149   7.389   2.557   6.440 -0.1641 -0.0290  0.1447
    9MOL   C454 8150   7.238   2.548   6.449  0.7343  0.2262 -0.5353
    9MOL   O455 8151   7.172   2.629   6.395  0.2014  0.1311 -0.0314
    9MOL   H456 8152   6.530   3.201   7.102  0.7653  1.2709 -2.6587
    9MOL   H457 8153   6.754   3.086   7.255  0.8444  1.8229 -1.6506
    9MOL   H458 8154   6.587   3.094   7.300 -1.5085 -1.1465 -2.8869
    9MOL   H459 8155   6.585   3.269   7.473  0.3060 -1.0366 -0.6252
    9MOL   H460 8156   6.647   3.460   7.576 -0.0779  0.5246 -0.2816
    9MOL   H461 8157   6.777   3.639   7.441  0.1919  0.1184 -0.3087
    9MOL   H462 8158   6.881   3.571   7.224  1.2883  1.2078  0.5349
    9MOL   H463 8159   6.931   3.411   7.068  0.3805 -0.5417  1.6679
    9MOL   H464 8160   6.784   3.328   7.020  1.0555  0.1864 -1.7253
    9MOL   H465 8161   6.874   3.111   7.080 -0.7776  1.1566 -0.8028
    9MOL   H466 8162   7.009   2.973   7.028  0.2856  0.0331 -0.6124
    9MOL   H467 8163   7.161   3.006   7.106  0.1373  1.4290 -0.2133
    9MOL   H468 8164   7.268   3.073   6.889  1.0294 -0.9316 -1.9491
    9MOL   H469 8165   7.117   3.037   6.806 -0.7259 -0.9203  0.1521
    9MOL   H470 8166   7.262   2.827   6.962 -0.6540 -2.2042 -0.2804
    9MOL   H471 8167   7.126   2.801   6.860 -0.8263 -0.6556  2.9640
    9MOL   H472 8168   7.264   2.878   6.657  1.8983  2.7243  0.6092
    9MOL   H473 8169   7.386   2.915   6.761 -0.7843  1.3125  0.9440
    9MOL   H474 8170   7.407   2.678   6.830  0.1258  0.0684 -1.1788
    9MOL   H475 8171   7.291   2.628   6.714  0.7615 -1.0354 -0.0731
    9MOL   H476 8172   7.562   2.629   6.648  1.8357  1.7818 -0.0625
    9MOL   H477 8173   7.541   2.795   6.645 -1.6397  1.7294 -0.1721
    9MOL   H478 8174   7.381   2.772   6.444 -1.0082 -0.8174  0.3472
    9MOL   H479 8175   7.543   2.703   6.433 -0.7582 -0.5074 -0.4405
    9MOL   H480 8176   7.421   2.540   6.337  2.0328  1.4542  0.5476
    9MOL   H481 8177   7.429   2.475   6.500 -2.8778 -3.0039 -1.9370
    9MOL   N482 8178   7.181   2.451   6.513 -0.8898  0.9171 -0.2423
    9MOL   C483 8179   7.043   2.448   6.549  0.4840 -0.3640  0.0268
    9MOL   C484 8180   6.960   2.368   6.454  0.0522  0.5820  0.3269
    9MOL   C485 8181   7.011   2.260   6.375 -0.3747  0.4725  0.6087
    9MOL   C486 8182   6.930   2.177   6.293 -0.4287  0.4678 -0.1473
    9MOL   C487 8183   6.797   2.205   6.279  0.1637 -0.6286 -0.4497
    9MOL   C488 8184   6.743   2.308   6.357 -0.5468  0.4443 -0.0568
    9MOL   C489 8185   6.823   2.393   6.439  0.0527  0.0374  0.7378
    9MOL   C490 8186   6.743   2.505   6.511 -0.6607  0.0537 -0.0635
    9MOL   N491 8187   6.763   2.628   6.431 -0.4489  1.0283 -0.2820
    9MOL   C492 8188   6.778   2.756   6.467 -0.2785  0.5068  0.0031
    9MOL   O493 8189   6.773   2.785   6.590  0.1054 -0.4489  0.2690
    9MOL   C494 8190   6.793   2.864   6.354 -0.8787  0.9041 -0.0298
    9MOL   C495 8191   6.942   2.918   6.325  0.7876  0.0760  0.3195
    9MOL   C496 8192   7.007   2.984   6.452 -0.5940  0.0463 -0.1106
    9MOL   C497 8193   6.957   3.127   6.455 -0.7016 -0.2385 -0.5366
    9MOL   C498 8194   6.972   3.188   6.596 -0.2950 -0.1704 -0.0655
    9MOL   C499 8195   6.888   3.320   6.598 -0.6031  0.1566  0.3954
    9MOL   C500 8196   6.912   3.415   6.715  0.1727  0.2406  0.4207
    9MOL   C501 8197   6.802   3.518   6.737 -0.2658 -0.3666 -0.7114
    9MOL   C502 8198   6.776   3.608   6.616 -0.7544  1.0640  0.8738
    9MOL   O503 8199   6.695   3.569   6.531 -0.2855  0.0518 -0.3028
    9MOL   H504 8200   7.241   2.388   6.564 -0.3204  0.9108 -0.9085
    9MOL   H505 8201   7.047   2.399   6.646 -0.2170  0.7949  0.6590
    9MOL   H506 8202   7.008   2.550   6.568 -1.0116 -1.0932  1.2407
    9MOL   H507 8203   7.109   2.216   6.390 -0.4442 -0.1723 -0.7760
    9MOL   H508 8204   6.975   2.093   6.243  2.8936  0.0122  3.3889
    9MOL   H509 8205   6.737   2.145   6.212 -0.2343 -1.2870  0.4854
    9MOL   H510 8206   6.637   2.331   6.356 -0.5555  0.4864  1.1913
    9MOL   H511 8207   6.785   2.517   6.611  1.6811 -1.5681 -0.8062
    9MOL   H512 8208   6.635   2.496   6.515 -0.7084  1.0748  1.0232
    9MOL   H513 8209   6.782   2.615   6.333 -1.3878 -0.6002 -0.2717
    9MOL   H514 8210   6.728   2.948   6.377 -0.0267  1.1605  1.5580
    9MOL   H515 8211   6.757   2.832   6.257 -0.4744 -2.0784  0.7623
    9MOL   H516 8212   6.931   2.995   6.248 -3.1577 -0.8964 -0.2321
    9MOL   H517 8213   7.018   2.850   6.287  0.6415  0.6447 -1.0341
    9MOL   H518 8214   6.981   2.925   6.539 -0.1531 -0.2891 -0.1996
    9MOL   H519 8215   7.112   2.989   6.424  0.1016  3.3345  2.8075
    9MOL   H520 8216   7.016   3.191   6.390  1.6290 -1.0389  0.7471
    9MOL   H521 8217   6.850   3.132   6.435 -0.8743  1.1003  0.7260
    9MOL   H522 8218   6.935   3.130   6.680 -0.8841  0.9024  0.4331
    9MOL   H523 8219   7.078   3.208   6.611  0.2659 -3.1139  0.1340
    9MOL   H524 8220   6.784   3.289   6.585 -1.0880  0.6613  2.8289
    9MOL   H525 8221   6.917   3.375   6.508 -0.8177 -1.4797 -0.6984
    9MOL   H526 8222   6.932   3.357   6.805 -3.0590 -0.9445  0.4278
    9MOL   H527 8223   7.003   3.470   6.693  0.4621 -0.1466  0.6331
    9MOL   H528 8224   6.831   3.576   6.825  0.4441 -1.2559 -0.3499
    9MOL   H529 8225   6.706   3.474   6.764  1.1097 -1.9509  1.7838
    9MOL   N530 8226   6.844   3.723   6.605 -0.0104 -0.6355  0.0994
    9MOL   C531 8227   6.797   3.821   6.507 -0.9578  0.7788 -0.2909
    9MOL   C532 8228   6.842   3.963   6.522  0.0608  0.3326  0.2746
    9MOL   C533 8229   6.958   4.004   6.455 -0.4829  0.1487  0.0807
    9MOL   C534 8230   7.017   4.126   6.501  0.6147  0.1667 -0.4263
    9MOL   C535 8231   6.957   4.209   6.595  0.5093 -0.3391 -0.0326
    9MOL   C536 8232   6.835   4.171   6.649 -0.0095 -0.2568 -0.3789
    9MOL   C537 8233   6.777   4.051   6.617 -0.8824  0.6948 -0.0556
    9MOL   C538 8234   6.647   4.011   6.687 -0.6819  0.2451 -0.5828
    9MOL   N539 8235   6.678   3.924   6.798  0.1590 -0.1105  0.1502
    9MOL   C540 8236   6.600   3.830   6.851 -0.1753  0.3743 -0.0907
    9MOL   O541 8237   6.494   3.799   6.802  0.0115  0.1812  0.6324
    9MOL   C542 8238   6.646   3.764   6.982 -0.0131 -0.5633 -0.3228
    9MOL   C543 8239   6.542   3.774   7.098  0.0053  0.7990 -0.0261
    9MOL   C544 8240   6.443   3.657   7.097  0.3596 -0.3633 -0.4115
    9MOL   C545 8241   6.504   3.524   7.153 -0.2017 -0.1331  0.2229
    9MOL   C546 8242   6.388   3.423   7.163 -0.2604  0.0563  0.1523
    9MOL   C547 8243   6.307   3.400   7.031 -0.5919 -0.3694 -0.2690
    9MOL   C548 8244   6.394   3.360   6.911  0.1176 -0.5200 -0.0320
    9MOL   C549 8245   6.410   3.469   6.810  0.1831  0.7477  0.5291
    9MOL   C550 8246   6.279   3.515   6.759 -0.0574  0.2072  0.4820
    9MOL   O551 8247   6.202   3.442   6.698 -0.0040  0.1939 -0.5183
    9MOL   H552 8248   6.914   3.759   6.668 -0.2642 -1.4828  0.8650
    9MOL   H553 8249   6.689   3.810   6.500 -0.9842  0.0406  0.9939
    9MOL   H554 8250   6.826   3.779   6.411  1.1445 -0.4638  0.8401
    9MOL   H555 8251   7.011   3.935   6.391  0.3609  1.3845 -0.5833
    9MOL   H556 8252   7.116   4.149   6.463  0.6858 -1.8229 -1.4886
    9MOL   H557 8253   6.992   4.306   6.627  0.0124 -0.5427  1.1826
    9MOL   H558 8254   6.791   4.232   6.727  1.4649  1.3857 -0.7960
    9MOL   H559 8255   6.573   3.968   6.620  0.3041 -0.1714 -1.4331
    9MOL   H560 8256   6.588   4.093   6.727 -1.7858 -0.5432 -0.5864
    9MOL   H561 8257   6.770   3.941   6.836 -0.0495 -0.5332  0.8501
    9MOL   H562 8258   6.745   3.797   7.014 -0.2184 -1.3077  1.1307
    9MOL   H563 8259   6.656   3.660   6.949 -2.6792 -1.5373  1.7146
    9MOL   H564 8260   6.487   3.867   7.111  0.1151  0.9783 -0.7966
    9MOL   H565 8261   6.606   3.763   7.185  0.2907  3.2341  0.1078
    9MOL   H566 8262   6.357   3.673   7.162 -0.7726 -1.5301 -1.5778
    9MOL   H567 8263   6.399   3.654   6.997  0.6151 -0.8218 -0.5089
    9MOL   H568 8264   6.582   3.488   7.085  2.2242  2.6749  1.4017
    9MOL   H569 8265   6.545   3.526   7.253 -0.2452  1.5949  0.2184
    9MOL   H570 8266   6.421   3.324   7.196  1.2613 -0.1438 -1.8594
    9MOL   H571 8267   6.330   3.467   7.244 -1.1299  0.1681 -0.5132
    9MOL   H572 8268   6.260   3.495   7.006  2.7180  1.2025 -0.7101
    9MOL   H573 8269   6.235   3.319   7.046 -0.5110 -0.3427  0.3011
    9MOL   H574 8270   6.495   3.337   6.945 -0.1744 -2.2807 -0.2640
    9MOL   H575 8271   6.336   3.277   6.869 -0.0231 -0.4942  0.1130
    9MOL   H576 8272   6.458   3.423   6.724 -1.5095 -1.2673  0.6298
    9MOL   H577 8273   6.476   3.551   6.840 -0.8974  1.6324  0.5487
    9MOL   N578 8274   6.261   3.644   6.767  0.6131  0.1718  0.5737
    9MOL   C579 8275   6.133   3.712   6.776  0.1507  0.4155  0.2463
    9MOL   C580 8276   6.110   3.751   6.924  0.4600  0.1071 -0.2199
    9MOL   C581 8277   6.164   3.870   6.972 -0.3859 -0.6462 -0.1046
    9MOL   C582 8278   6.158   3.902   7.110 -0.3530 -0.1813 -0.2423
    9MOL   C583 8279   6.105   3.812   7.204 -0.2888 -0.4010 -0.5700
    9MOL   C584 8280   6.053   3.690   7.157  0.0949  0.0166 -0.1221
    9MOL   C585 8281   6.048   3.664   7.019 -0.4761 -0.1576  0.0143
    9MOL   C586 8282   5.967   3.533   6.976 -0.1088 -0.0464 -0.4806
    9MOL   N587 8283   5.854   3.564   6.890 -0.7755 -0.7145 -0.8176
    9MOL   C588 8284   5.736   3.601   6.941 -0.7148  0.3877  0.6813
    9MOL   O589 8285   5.720   3.617   7.063 -0.6010 -0.1105  0.4670
    9MOL   C590 8286   5.620   3.612   6.842  0.4751 -0.4198 -0.2734
    9MOL   C591 8287   5.507   3.512   6.863 -0.5227  0.2420 -0.1194
    9MOL   C592 8288   5.536   3.363   6.831  0.3920 -0.1798 -0.4230
    9MOL   C593 8289   5.415   3.272   6.850 -0.0975 -0.2460 -0.2063
    9MOL   C594 8290   5.461   3.121   6.844 -0.5670 -0.4618  0.2012
    9MOL   C595 8291   5.340   3.034   6.848 -0.6830  0.6485 -0.3276
    9MOL   C596 8292   5.378   2.890   6.812 -0.0576  0.5202  0.0889
    9MOL   C597 8293   5.423   2.808   6.936 -0.3246 -0.5023 -1.3884
    9MOL   C598 8294   5.423   2.659   6.902 -0.2187  0.1862  1.0204
    9MOL   O599 8295   5.317   2.599   6.863  0.2797  0.4074 -0.0259
    9MOL   H600 8296   6.349   3.684   6.796  1.5033 -0.6567 -0.9947
    9MOL   H601 8297   6.048   3.657   6.735  1.3244 -0.2369 -1.3349
    9MOL   H602 8298   6.143   3.796   6.707  0.2240 -1.0160 -1.5351
    9MOL   H603 8299   6.225   3.934   6.910  0.6319  0.7801  2.3132
    9MOL   H604 8300   6.199   4.000   7.132 -0.3333 -0.0602 -0.7998
    9MOL   H605 8301   6.124   3.838   7.307 -1.3299  1.7686 -0.9062
    9MOL   H606 8302   6.010   3.617   7.224  0.1643  0.1377  0.0563
    9MOL   H607 8303   5.934   3.482   7.066 -0.0049  0.7807  0.0390
    9MOL   H608 8304   6.033   3.470   6.915  1.6791 -1.3108  2.6349
    9MOL   H609 8305   5.865   3.540   6.792  1.9452  0.3859 -0.8281
    9MOL   H610 8306   5.650   3.608   6.738  1.6071  1.9104 -0.0575
    9MOL   H611 8307   5.573   3.707   6.867  0.2677 -0.4037 -0.7142
    9MOL   H612 8308   5.426   3.549   6.800 -0.6435 -0.6549 -0.4998
    9MOL   H613 8309   5.470   3.531   6.964 -0.2748  0.7126 -0.1128
    9MOL   H614 8310   5.589   3.351   6.737 -0.3374 -1.2459 -0.7014
    9MOL   H615 8311   5.612   3.335   6.904  0.6588 -1.6733 -1.2640
    9MOL   H616 8312   5.372   3.298   6.947  0.9214 -2.0878  0.7590
    9MOL   H617 8313   5.342   3.309   6.777  0.4196  0.9469 -0.1438
    9MOL   H618 8314   5.523   3.116   6.755 -0.6502 -1.0493  0.1772
    9MOL   H619 8315   5.522   3.104   6.932 -0.5032  0.7300  0.3920
    9MOL   H620 8316   5.257   3.073   6.789 -1.3117 -1.3423 -0.7798
    9MOL   H621 8317   5.300   3.032   6.950  0.8992  1.6839  0.3338
    9MOL   H622 8318   5.288   2.849   6.766 -0.0878 -0.5835  1.0927
    9MOL   H623 8319   5.440   2.888   6.722 -2.1362 -1.2533 -1.3778
    9MOL   H624 8320   5.527   2.839   6.951  0.4605 -2.4590 -2.5636
    9MOL   H625 8321   5.347   2.814   7.014 -0.5625  0.9527 -1.7125
    9MOL   N626 8322   5.535   2.599   6.930  0.2801 -0.4136 -0.0922
    9MOL   C627 8323   5.555   2.458   6.905  0.6107  0.2071 -0.5420
    9MOL   C628 8324   5.607   2.418   6.770  0.4121  0.9361  0.2234
    9MOL   C629 8325   5.678   2.506   6.688 -0.6489  0.1618  0.5107
    9MOL   C630 8326   5.726   2.470   6.569 -0.2506 -0.3300  0.1028
    9MOL   C631 8327   5.709   2.347   6.513  0.5313  0.4403  0.1817
    9MOL   C632 8328   5.645   2.250   6.596  0.3282  0.1944  0.5528
    9MOL   C633 8329   5.595   2.287   6.720  0.0290  0.0913  0.4513
    9MOL   C634 8330   5.535   2.170   6.806  0.0363 -0.2251  0.0331
    9MOL   N635 8331   5.622   2.123   6.915  0.6049 -0.2353 -0.1078
    9MOL   C636 8332   5.585   2.049   7.020 -0.0428  0.0374  0.1269
    9MOL   O637 8333   5.467   2.019   7.036  0.4496  0.5331 -0.2572
    9MOL   C638 8334   5.701   2.009   7.107  0.0886  0.2721 -0.2735
    9MOL   C639 8335   5.719   2.114   7.221 -0.1185 -0.0547  0.4580
    9MOL   C640 8336   5.858   2.124   7.287  0.1607  0.1859  0.1436
    9MOL   C641 8337   5.878   2.248   7.368 -0.3393 -0.5574  0.3568
    9MOL   C642 8338   5.779   2.254   7.478  0.5996  0.8579 -0.7429
    9MOL   C643 8339   5.850   2.312   7.600  0.6938 -0.0575 -0.4991
    9MOL   C644 8340   5.756   2.332   7.714 -0.7690  1.0929  0.1554
    9MOL   C645 8341   5.825   2.372   0.061  0.1323  0.0870 -0.1438
    9MOL   C646 8342   5.822   2.519   0.098 -0.5076  0.2443  0.5161
    9MOL   O647 8343   5.869   2.600   0.020  0.0246  0.1188  0.5125
    9MOL   H648 8344   5.611   2.647   6.975 -0.7506  0.5449  0.6352
    9MOL   H649 8345   5.464   2.403   6.929  1.5552 -0.9974  0.3415
    9MOL   H650 8346   5.623   2.415   6.979 -0.4788 -0.9754 -0.2043
    9MOL   H651 8347   5.686   2.603   6.735 -1.2764 -0.4747  1.9882
    9MOL   H652 8348   5.782   2.546   6.515  0.1840 -1.1702 -0.6324
    9MOL   H653 8349   5.760   2.325   6.420 -0.3535  0.6151 -0.3547
    9MOL   H654 8350   5.641   2.155   6.545 -3.1980  2.7535 -4.3635
    9MOL   H655 8351   5.515   2.082   6.745 -0.9215 -1.6022  2.2951
    9MOL   H656 8352   5.441   2.201   6.850 -0.2612 -1.1062  0.0256
    9MOL   H657 8353   5.719   2.152   6.911 -0.0115  1.6331 -2.3431
    9MOL   H658 8354   5.798   2.007   7.058 -0.6765  0.6529 -1.8798
    9MOL   H659 8355   5.674   1.917   7.158  1.5150  0.7526  1.3783
    9MOL   H660 8356   5.629   2.125   7.281 -0.0613 -3.5755  1.3124
    9MOL   H661 8357   5.731   2.208   7.168  2.4598 -1.7346 -2.1123
    9MOL   H662 8358   5.872   2.033   7.346  1.3580  0.3362  0.1110
    9MOL   H663 8359   5.920   2.125   7.197 -1.2596  1.4551 -0.8307
    9MOL   H664 8360   5.982   2.247   7.403  0.1628  1.0288 -1.0278
    9MOL   H665 8361   5.866   2.339   7.309  0.6224 -0.0947  0.8473
    9MOL   H666 8362   5.697   2.311   7.433 -2.8157 -0.7152  3.1449
    9MOL   H667 8363   5.740   2.157   7.509  0.0322  1.6102  0.9596
    9MOL   H668 8364   5.910   2.400   7.582 -1.0055  1.2489  0.0407
    9MOL   H669 8365   5.922   2.233   7.619  0.3349 -0.7853 -2.0638
    9MOL   H670 8366   5.676   2.404   7.696 -1.4969  0.0335 -0.9904
    9MOL   H671 8367   5.695   2.244   7.734  0.8877 -0.2522 -0.5775
    9MOL   H672 8368   5.928   2.339   0.066  0.0116 -0.2542  0.1153
    9MOL   H673 8369   5.764   2.326   0.139 -0.9915  2.8374  0.6595
    9MOL   N674 8370   5.783   2.554   0.222  0.4413  0.3098  0.1398
    9MOL   C675 8371   5.787   2.684   0.291 -0.3438  0.6468 -0.2992
    9MOL   C676 8372   5.732   2.684   0.437  0.5641  0.4601  0.3015
    9MOL   C677 8373   5.629   2.779   0.473 -0.6613 -0.3309 -0.1708
    9MOL   C678 8374   5.561   2.780   0.593  0.3525  0.1357  0.7647
    9MOL   C679 8375   5.592   2.673   0.680 -0.1231 -0.4697 -0.6963
    9MOL   C680 8376   5.689   2.576   0.654  0.0010 -0.2315  0.3623
    9MOL   C681 8377   5.760   2.581   0.533  0.0618  0.2351  0.3697
    9MOL   C682 8378   5.866   2.481   0.503 -0.5457 -0.2951 -0.3628
    9MOL   N683 8379   5.994   2.540   0.479  0.1594 -0.0061  0.3308
    9MOL   C684 8380   6.098   2.485   0.410 -0.3801  0.4883 -0.1396
    9MOL   O685 8381   6.106   2.376   0.347  0.0980 -0.0211  0.1140
    9MOL   C686 8382   6.227   2.576   0.387  0.3666  0.4338 -0.4632
    9MOL   C687 8383   6.236   2.631   0.243  0.1982  0.4321  0.2480
    9MOL   C688 8384   6.248   2.529   0.119 -0.0309 -0.2976  0.4978
    9MOL   C689 8385   6.250   2.595   7.764  0.6416  0.7749  0.7078
    9MOL   C690 8386   6.252   2.484   7.656  0.1017 -0.0904  0.5211
    9MOL   C691 8387   6.264   2.528   7.512  0.8631  0.3396 -0.5343
    9MOL   C692 8388   6.301   2.423   7.406 -0.2167 -0.3797 -0.6630
    9MOL   C693 8389   6.442   2.404   7.381 -0.0639 -0.6766  0.0459
    9MOL   C694 8390   6.464   2.341   7.252  0.0863  0.3341 -0.0243
    9MOL   O695 8391   6.408   2.237   7.221  0.0451  0.5058 -0.0976
    9MOL   H696 8392   5.764   2.477   0.284 -0.3084  0.5606  0.2255
    9MOL   H697 8393   5.731   2.756   0.231 -2.5345  0.4702  1.4681
    9MOL   H698 8394   5.889   2.721   0.281 -0.5831  2.2049  2.4575
    9MOL   H699 8395   5.592   2.843   0.395 -0.4446  0.0187  0.0099
    9MOL   H700 8396   5.483   2.853   0.608 -0.0601  0.0371 -0.8023
    9MOL   H701 8397   5.542   2.671   0.776  3.3075 -0.0829  1.1858
    9MOL   H702 8398   5.696   2.501   0.731 -0.1501 -0.6437 -0.0221
    9MOL   H703 8399   5.826   2.403   0.438  0.5227 -0.1883 -1.1676
    9MOL   H704 8400   5.895   2.433   0.596  2.8414 -0.5171 -1.4770
    9MOL   H705 8401   6.011   2.630   0.519  0.2926  0.2298 -0.2475
    9MOL   H706 8402   6.316   2.514   0.402  0.0981 -0.7387 -3.3768
    9MOL   H707 8403   6.236   2.651   0.465  0.0284 -0.7777  0.7422
    9MOL   H708 8404   6.321   2.699   0.252 -0.1902  0.8360  0.9528
    9MOL   H709 8405   6.158   2.702   0.217 -0.2029 -0.8451 -2.1182
    9MOL   H710 8406   6.336   2.463   0.122 -0.0479 -0.2981  0.9137
    9MOL   H711 8407   6.169   2.454   0.123  0.0255 -0.4287 -0.5328
    9MOL   H712 8408   6.159   2.654   7.761  1.8365  2.5633 -2.2637
    9MOL   H713 8409   6.336   2.661   7.753  0.6151  0.9004  1.2079
    9MOL   H714 8410   6.345   2.430   7.676  0.4456  0.4086  0.2894
    9MOL   H715 8411   6.176   2.410   7.679  1.2651 -1.6305 -0.4920
    9MOL   H716 8412   6.330   2.614   7.506  3.4935 -1.6525 -1.2366
    9MOL   H717 8413   6.168   2.574   7.491  0.2964 -0.5828 -0.0169
    9MOL   H718 8414   6.255   2.455   7.313  1.0949 -0.5155 -1.3679
    9MOL   H719 8415   6.254   2.326   7.421 -0.2623 -0.4434 -1.1894
    9MOL   H720 8416   6.485   2.335   7.453  0.1135 -2.1957 -1.4714
    9MOL   H721 8417   6.493   2.499   7.398  1.7567 -2.2324  3.7424
    9MOL   N722 8418   6.552   2.404   7.172 -0.4675 -0.4805  0.6282
    9MOL   C723 8419   6.584   2.363   7.039  0.2747  0.1159 -0.5705
    9MOL   C724 8420   6.703   2.438   6.985  1.0950  0.0854 -0.4232
    9MOL   C725 8421   6.818   2.358   6.965  0.5390 -0.2875 -0.1047
    9MOL   C726 8422   6.931   2.412   6.902 -0.1881 -0.0517  0.0914
    9MOL   C727 8423   6.938   2.552   6.866  0.7790  0.2710 -0.2795
    9MOL   C728 8424   6.820   2.623   6.879 -0.6703 -0.2931 -0.0117
    9MOL   C729 8425   6.704   2.571   6.935 -0.3785  0.6055 -0.1004
    9MOL   C730 8426   6.584   2.656   6.934 -0.6674 -0.6859  0.1202
    9MOL   N731 8427   6.542   2.668   6.793 -0.6135  0.5124 -0.8465
    9MOL   C732 8428   6.419   2.665   6.745 -0.8998 -0.2791  0.0075
    9MOL   O733 8429   6.322   2.646   6.817  0.1128  1.0518 -0.2124
    9MOL   C734 8430   6.406   2.717   6.608  0.7298  0.1529  0.1242
    9MOL   C735 8431   6.313   2.637   6.523  0.3048 -0.2915  0.0064
    9MOL   C736 8432   6.348   2.488   6.496 -0.2847 -0.6383  0.0840
    9MOL   C737 8433   6.247   2.425   6.403 -0.2102  0.3443  0.5092
    9MOL   C738 8434   6.274   2.278   6.405 -0.4195  0.4657 -0.2105
    9MOL   C739 8435   6.191   2.195   6.308  0.6954  0.7249  0.3991
    9MOL   C740 8436   6.218   2.047   6.330 -0.2906  0.5918  0.5957
    9MOL   C741 8437   6.366   2.000   6.338 -0.4916  0.1625 -0.7215
    9MOL   C742 8438   6.447   1.996   6.206 -0.3396  0.2030 -0.0684
    9MOL   O743 8439   6.443   2.098   6.133 -0.1705 -0.7413 -0.2854
    9MOL   H744 8440   6.594   2.486   7.213 -3.2226  1.0022  0.6580
    9MOL   H745 8441   6.493   2.384   6.983  0.1016 -1.6426 -0.9825
    9MOL   H746 8442   6.598   2.255   7.051  3.2278  0.1865 -2.6887
    9MOL   H747 8443   6.815   2.253   6.987 -0.7449 -0.1359  0.4968
    9MOL   H748 8444   7.021   2.356   6.883 -0.4640 -0.3842 -0.2179
    9MOL   H749 8445   7.031   2.598   6.839  1.6069 -0.0408  1.9327
    9MOL   H750 8446   6.814   2.727   6.848 -0.3692 -0.0006  0.8968
    9MOL   H751 8447   6.609   2.758   6.962  2.9336 -2.1335  2.5109
    9MOL   H752 8448   6.508   2.623   7.005 -1.3406  0.2787 -0.1328
    9MOL   H753 8449   6.614   2.710   6.735 -0.2274  1.1471  0.0771
    9MOL   H754 8450   6.501   2.735   6.559  1.0880  1.7839  1.3398
    9MOL   H755 8451   6.363   2.817   6.618  0.1565 -0.1359  0.6178
    9MOL   H756 8452   6.301   2.695   6.431 -0.0370  1.1190  0.9297
    9MOL   H757 8453   6.217   2.642   6.575  1.7420  1.2137  2.6026
    9MOL   H758 8454   6.447   2.479   6.451  1.6322  3.5887  3.0771
    9MOL   H759 8455   6.340   2.443   6.595  0.8407 -1.7601 -0.3247
    9MOL   H760 8456   6.142   2.433   6.433  0.1225  0.1775  1.7002
    9MOL   H761 8457   6.261   2.461   6.301  0.9087 -0.8360  0.2373
    9MOL   H762 8458   6.376   2.251   6.376 -0.4598 -0.2668  0.3160
    9MOL   H763 8459   6.252   2.236   6.503  0.2088 -0.1626 -0.3359
    9MOL   H764 8460   6.214   2.222   6.205  0.0722  1.1880  0.3743
    9MOL   H765 8461   6.083   2.211   6.318  0.3833 -0.9029 -0.2267
    9MOL   H766 8462   6.164   2.027   6.423  0.8987 -0.2075  1.1189
    9MOL   H767 8463   6.169   1.988   6.252  1.6252 -1.0965  0.6366
    9MOL   H768 8464   6.413   2.051   6.422  0.9305  1.1167 -2.0734
    9MOL   H769 8465   6.368   1.897   6.373 -0.0827 -0.0250 -1.2866
    9MOL   N770 8466   6.518   1.888   6.185  0.3675  0.0665 -0.0018
    9MOL   C771 8467   6.614   1.872   6.071  0.0768  0.9659  0.5163
    9MOL   C772 8468   6.562   1.782   5.954  0.3476 -0.0087  0.0330
    9MOL   C773 8469   6.535   1.646   5.979  0.1327  0.2687 -0.6018
    9MOL   C774 8470   6.478   1.568   5.883  0.6909  0.1353  0.0010
    9MOL   C775 8471   6.461   1.600   5.755  0.0450 -0.5150 -0.1906
    9MOL   C776 8472   6.496   1.734   5.724  0.1603 -0.1965 -0.6981
    9MOL   C777 8473   6.531   1.827   5.823 -0.4166 -0.9813  0.1203
    9MOL   C778 8474   6.547   1.978   5.781 -0.4105 -0.0171  0.1378
    9MOL   N779 8475   6.517   2.012   5.643 -0.1436 -0.3722 -0.6320
    9MOL   C780 8476   6.592   2.081   5.553 -0.2228  0.0979 -0.2257
    9MOL   O781 8477   6.708   2.121   5.586 -0.3869 -0.2375 -0.3042
    9MOL   C782 8478   6.522   2.134   5.431  0.0331 -0.4498  0.1357
    9MOL   C783 8479   6.531   2.283   5.405  0.8836  0.2918  0.0524
    9MOL   C784 8480   6.502   2.330   5.262  0.1273  0.0093 -0.0283
    9MOL   C785 8481   6.474   2.481   5.255 -0.4707  0.1803 -0.7272
    9MOL   C786 8482   6.493   2.548   5.119  0.3525 -0.4255  0.4538
    9MOL   C787 8483   6.457   2.697   5.118 -0.0617 -0.7605 -0.2751
    9MOL   C788 8484   6.311   2.726   5.135 -0.7182 -0.3862 -0.7420
    9MOL   C789 8485   6.264   2.873   5.169  0.3496 -0.2486 -0.1758
    9MOL   C790 8486   6.305   2.921   5.309 -0.4331 -0.5529 -0.8753
    9MOL   O791 8487   6.247   2.882   5.403  0.1484 -0.7542 -0.3010
    9MOL   H792 8488   6.529   1.822   6.260 -0.0298  0.6509  0.5714
    9MOL   H793 8489   6.652   1.962   6.024 -0.5001  0.5263 -0.8003
    9MOL   H794 8490   6.709   1.836   6.111  0.0407  0.6532  0.3168
    9MOL   H795 8491   6.564   1.602   6.073 -0.9191  2.5055  0.8294
    9MOL   H796 8492   6.460   1.466   5.915 -1.8365 -0.0075 -1.7249
    9MOL   H797 8493   6.423   1.529   5.682  1.0134 -0.8124 -0.4101
    9MOL   H798 8494   6.464   1.774   5.629  1.3606 -1.6727 -1.7506
    9MOL   H799 8495   6.648   2.009   5.808  0.5390 -1.2391 -1.8949
    9MOL   H800 8496   6.479   2.023   5.853  1.1962 -0.7072  2.1137
    9MOL   H801 8497   6.422   1.991   5.617 -1.3359  2.5602  1.1430
    9MOL   H802 8498   6.427   2.082   5.429 -0.4085  0.3793 -0.8829
    9MOL   H803 8499   6.578   2.093   5.347  2.5808 -1.5328  2.3003
    9MOL   H804 8500   6.633   2.320   5.416  0.5983  1.1808 -0.1738
    9MOL   H805 8501   6.454   2.328   5.469  0.5424 -0.5653  0.2553
    9MOL   H806 8502   6.411   2.279   5.231  0.2232 -1.4142  1.8736
    9MOL   H807 8503   6.577   2.304   5.187 -0.1304  0.2219 -0.3631
    9MOL   H808 8504   6.374   2.497   5.295 -0.2046  0.9535 -0.3705
    9MOL   H809 8505   6.550   2.525   5.320 -0.5241 -2.9932  1.6166
    9MOL   H810 8506   6.598   2.540   5.092  0.2229 -1.0980  0.1528
    9MOL   H811 8507   6.422   2.498   5.054 -0.1603  1.7229 -0.6936
    9MOL   H812 8508   6.503   2.755   5.039  0.4912 -0.3553  0.3424
    9MOL   H813 8509   6.503   2.738   5.208  0.2845 -0.0304 -0.7800
    9MOL   H814 8510   6.266   2.660   5.210 -0.3502 -1.2009 -1.2316
    9MOL   H815 8511   6.262   2.692   5.044 -1.4452  0.8757 -0.8221
    9MOL   H816 8512   6.155   2.870   5.170  0.3472 -0.0688 -0.0311
    9MOL   H817 8513   6.294   2.940   5.089  0.6983  0.6533  0.6961
    9MOL   N818 8514   6.388   3.022   5.315 -1.0294 -0.3398 -0.1040
    9MOL   C819 8515   6.450   3.074   5.436  0.1632 -0.0867  0.0231
    9MOL   C820 8516   6.546   3.182   5.391 -0.3545 -0.1839 -0.6921
    9MOL   C821 8517   6.515   3.315   5.425 -0.4550 -0.8649  0.2692
    9MOL   C822 8518   6.599   3.421   5.396 -0.1044 -0.2027  0.1050
    9MOL   C823 8519   6.715   3.407   5.319  0.2195  0.3438  0.0534
    9MOL   C824 8520   6.742   3.275   5.272 -0.3092 -0.0090 -0.0159
    9MOL   C825 8521   6.667   3.165   5.317 -0.0281  0.5264  0.9022
    9MOL   C826 8522   6.699   3.031   5.259  0.0347  0.1856  0.0057
    9MOL   N827 8523   6.737   3.032   5.122 -0.0338 -0.0985 -0.3476
    9MOL   C828 8524   6.642   3.029   5.027  0.2267 -0.7100  0.3165
    9MOL   O829 8525   6.521   3.013   5.053  0.5198 -0.0542  0.1532
    9MOL   C830 8526   6.690   3.063   4.889  0.3899  0.8068 -0.0774
    9MOL   C831 8527   6.603   3.021   4.768  0.1147  0.1330 -0.1371
    9MOL   C832 8528   6.631   2.890   4.684  0.3814  0.3118  0.5599
    9MOL   C833 8529   6.563   2.886   4.549  0.3663  0.2839  0.3833
    9MOL   C834 8530   6.571   2.754   4.475 -0.5030 -0.1277  0.4407
    9MOL   C835 8531   6.716   2.699   4.456  0.2167 -0.0439 -0.0199
    9MOL   C836 8532   6.706   2.620   4.330  0.4026  0.2720 -0.3748
    9MOL   C837 8533   6.851   2.560   4.297 -0.4949  0.5078 -0.2848
    9MOL   C838 8534   6.884   2.459   4.399  0.0857 -0.6002 -0.0386
    9MOL   O839 8535   6.971   2.484   4.482 -0.1569  0.4798 -1.0848
    9MOL   H840 8536   6.437   3.045   5.229 -0.2526  0.4312  0.5330
    9MOL   H841 8537   6.363   3.118   5.484 -0.5069 -0.4252 -0.8722
    9MOL   H842 8538   6.493   2.998   5.500  2.5759  0.5205 -0.8304
    9MOL   H843 8539   6.430   3.344   5.484  0.1929  2.6442 -0.4199
    9MOL   H844 8540   6.569   3.522   5.419 -2.6909 -0.4916 -1.8254
    9MOL   H845 8541   6.785   3.489   5.315  2.2081 -0.9012  5.3050
    9MOL   H846 8542   6.833   3.255   5.217 -0.1705 -0.4543  0.3712
    9MOL   H847 8543   6.633   2.948   5.286  1.2441 -1.2609 -1.3679
    9MOL   H848 8544   6.788   2.998   5.313 -0.4218  1.4408  1.5495
    9MOL   H849 8545   6.835   3.042   5.100 -0.0084  0.5327  0.0511
    9MOL   H850 8546   6.792   3.025   4.881 -0.1233 -0.6131 -0.1502
    9MOL   H851 8547   6.700   3.171   4.892 -1.2328  0.9925 -1.0890
    9MOL   H852 8548   6.605   3.104   4.697 -0.4314  0.8680  0.6934
    9MOL   H853 8549   6.500   3.013   4.802  0.3847 -1.4456  0.3822
    9MOL   H854 8550   6.611   2.798   4.738  2.8137 -1.7456 -1.8788
    9MOL   H855 8551   6.740   2.882   4.684  0.3373 -0.4562  2.3322
    9MOL   H856 8552   6.455   2.902   4.554  0.5577  2.5558 -1.9157
    9MOL   H857 8553   6.603   2.968   4.491  2.6846  0.3872  2.0547
    9MOL   H858 8554   6.522   2.675   4.532  1.5998 -1.9512 -0.2203
    9MOL   H859 8555   6.511   2.762   4.385 -0.9031 -2.7692  0.4484
    9MOL   H860 8556   6.744   2.644   4.546  0.5716 -1.6627 -1.0855
    9MOL   H861 8557   6.786   2.782   4.446 -1.7884  1.6795  0.0215
    9MOL   H862 8558   6.675   2.684   4.247  0.1526  1.2081  0.4382
    9MOL   H863 8559   6.625   2.548   4.343 -1.2410  1.5743 -2.9493
    9MOL   H864 8560   6.860   2.522   4.195  0.6291  0.9159 -0.3402
    9MOL   H865 8561   6.929   2.635   4.308  1.5430 -1.7370  1.2323
    9MOL   N866 8562   6.801   2.350   4.397  1.0388  0.2700 -0.6312
    9MOL   C867 8563   6.753   2.267   4.508  0.5132  0.3744 -0.2491
    9MOL   C868 8564   6.614   2.297   4.558 -0.2226 -0.8966 -0.2791
    9MOL   C869 8565   6.599   2.388   4.664  0.6993  0.8607 -0.3463
    9MOL   C870 8566   6.471   2.427   4.710 -0.4575 -0.0800  0.3050
    9MOL   C871 8567   6.357   2.375   4.649 -0.5042 -0.4549  0.2193
    9MOL   C872 8568   6.367   2.280   4.552  0.4037  0.3054 -0.2547
    9MOL   C873 8569   6.494   2.246   4.495 -0.1346  0.1778 -0.3792
    9MOL   C874 8570   6.509   2.163   4.368  0.5450 -0.1717 -0.5665
    9MOL   N875 8571   6.452   2.237   4.258  0.1853 -0.1688 -0.1654
    9MOL   C876 8572   6.527   2.301   4.166  0.2079 -1.2468 -0.0429
    9MOL   O877 8573   6.650   2.286   4.161  0.1370 -0.1582 -0.4712
    9MOL   C878 8574   6.452   2.403   4.080 -0.6179 -0.1782 -0.2056
    9MOL   C879 8575   6.539   2.493   3.988 -0.5839  0.0132 -0.0277
    9MOL   C880 8576   6.616   2.421   3.880  0.3939 -0.2653 -0.4374
    9MOL   C881 8577   6.697   2.512   3.795  0.1418  0.4553  0.3445
    9MOL   C882 8578   6.758   2.445   3.668  0.7631  0.7474  0.3521
    9MOL   C883 8579   6.863   2.529   3.595  0.4834 -1.0813 -0.3748
    9MOL   C884 8580   6.930   2.445   3.491  0.4341  0.1018 -0.0164
    9MOL   C885 8581   7.010   2.529   3.404  0.4866  0.1652  0.0303
    9MOL   C886 8582   6.938   2.571   3.274  0.0695  0.2029 -0.1191
    9MOL   O887 8583   6.934   2.488   3.187 -0.4268 -0.0296  0.1875
    9MOL   H888 8584   6.743   2.343   4.314  0.5648 -0.1656 -0.2633
    9MOL   H889 8585   6.756   2.163   4.475 -2.6663  0.4975 -1.0865
    9MOL   H890 8586   6.821   2.273   4.593 -0.4083 -0.5083  0.5616
    9MOL   H891 8587   6.689   2.425   4.712  0.6722  0.2357  0.2063
    9MOL   H892 8588   6.465   2.494   4.794  0.8475 -0.4913  0.7353
    9MOL   H893 8589   6.258   2.402   4.682 -0.1442 -0.5805  1.4524
    9MOL   H894 8590   6.275   2.246   4.507  1.7161 -0.9359 -2.0817
    9MOL   H895 8591   6.436   2.083   4.381  0.1749  0.0991 -0.9597
    9MOL   H896 8592   6.609   2.121   4.356  0.2855 -0.4469 -1.7963
    9MOL   H897 8593   6.357   2.271   4.263  0.0358 -0.6151  0.0771
    9MOL   H898 8594   6.387   2.469   4.138 -1.7638 -0.7379 -0.8273
    9MOL   H899 8595   6.390   2.348   4.009 -0.7499  0.0214 -0.2471
    9MOL   H900 8596   6.617   2.546   4.043  0.0259  3.3104 -3.8510
    9MOL   H901 8597   6.473   2.567   3.943  1.6741  1.4837 -1.0013
    9MOL   H902 8598   6.675   2.340   3.923 -2.1854 -1.4221  1.0239
    9MOL   H903 8599   6.554   2.362   3.814  0.7457  1.5935 -2.5167
    9MOL   H904 8600   6.649   2.605   3.767  0.6805  0.3788 -0.8701
    9MOL   H905 8601   6.777   2.553   3.858  0.9061  0.4082 -0.5775
    9MOL   H906 8602   6.799   2.348   3.694 -0.6364 -0.8714 -3.1248
    9MOL   H907 8603   6.683   2.410   3.598  1.3045 -0.1760  0.2285
    9MOL   H908 8604   6.946   2.548   3.663  0.1378  0.5873 -0.3932
    9MOL   H909 8605   6.819   2.620   3.556  1.0067  1.1335  3.9103
    9MOL   H910 8606   6.994   2.370   3.537  1.5085  0.1566 -1.3966
    9MOL   H911 8607   6.853   2.391   3.435  0.8721  0.9074 -1.4264
    9MOL   H912 8608   7.037   2.621   3.458 -1.6681  0.6731  0.2665
    9MOL   H913 8609   7.105   2.484   3.375  0.6043  1.2100 -1.2584
    9MOL   N914 8610   6.894   2.696   3.268  0.0213 -0.1884  0.2983
    9MOL   C915 8611   6.834   2.760   3.146  0.5296  0.2490 -0.1496
    9MOL   C916 8612   6.891   2.899   3.127  0.1317  0.7146  0.6532
    9MOL   C917 8613   7.015   2.939   3.173  0.3417 -0.1965  0.2390
    9MOL   C918 8614   7.066   3.067   3.153  0.3768 -0.2378  0.4427
    9MOL   C919 8615   6.994   3.166   3.084 -0.3291 -0.3039  0.2287
    9MOL   C920 8616   6.877   3.127   3.018  0.0862  0.3405 -0.3334
    9MOL   C921 8617   6.823   2.991   3.044 -0.6715  0.1187  1.2602
    9MOL   C922 8618   6.681   2.954   2.996  0.4141  0.0829  0.0649
    9MOL   N923 8619   6.679   2.863   2.883 -0.2276  0.4277  0.2147
    9MOL   C924 8620   6.603   2.756   2.867  0.2259  0.5695 -0.5254
    9MOL   O925 8621   6.498   2.736   2.933 -0.5857  0.1099  0.7558
    9MOL   C926 8622   6.650   2.653   2.764 -0.2263  0.2505  0.1051
    9MOL   C927 8623   6.587   2.509   2.772 -0.3359  0.5375  0.4119
    9MOL   C928 8624   6.584   2.430   2.899  0.2895  0.0896 -0.2723
    9MOL   C929 8625   6.547   2.289   2.871 -0.5082 -0.1172 -0.3372
    9MOL   C930 8626   6.485   2.207   2.991 -0.8480 -0.6130  0.3054
    9MOL   C931 8627   6.587   2.151   3.087  0.0641 -0.2414 -0.4272
    9MOL   C932 8628   6.541   2.071   3.206  0.2413 -0.2424 -0.2520
    9MOL   C933 8629   6.414   2.128   3.280 -0.2770  1.1680  0.0013
    9MOL   C934 8630   6.443   2.256   3.363 -0.1114  0.1184  0.0823
    9MOL   O935 8631   6.493   2.250   3.472 -0.2157 -0.0860  0.1776
    9MOL   H936 8632   6.916   2.766   3.338  0.0638  3.5945 -3.2876
    9MOL   H937 8633   6.847   2.694   3.061 -0.9328  0.4206 -0.5259
    9MOL   H938 8634   6.726   2.764   3.160  0.5206 -0.4210 -0.0506
    9MOL   H939 8635   7.070   2.867   3.230  1.4552  1.0482  0.7596
    9MOL   H940 8636   7.163   3.091   3.196  0.7141 -0.7569 -0.0264
    9MOL   H941 8637   7.023   3.267   3.061  2.7320 -1.3267 -0.6185
    9MOL   H942 8638   6.825   3.200   2.958 -0.8233  0.5422  0.6940
    9MOL   H943 8639   6.620   3.043   2.977 -1.7202 -1.7730 -1.9961
    9MOL   H944 8640   6.632   2.914   3.085 -1.1066 -0.4816 -1.0117
    9MOL   H945 8641   6.750   2.871   2.812 -0.0540 -0.7939  0.2303
    9MOL   H946 8642   6.756   2.632   2.778 -0.3256  0.8570  1.8591
    9MOL   H947 8643   6.635   2.708   2.672  2.3183  2.1756  0.7715
    9MOL   H948 8644   6.638   2.445   2.700  1.6122 -0.0705  2.2860
    9MOL   H949 8645   6.483   2.516   2.738  0.2468 -1.1642 -1.8235
    9MOL   H950 8646   6.675   2.439   2.958  1.4485  0.0891 -2.0144
    9MOL   H951 8647   6.508   2.479   2.961 -0.4285 -1.6868  0.2674
    9MOL   H952 8648   6.460   2.295   2.805 -2.4089  3.9915  2.3596
    9MOL   H953 8649   6.626   2.229   2.825 -0.2077  0.3929 -0.4797
    9MOL   H954 8650   6.433   2.116   2.960 -0.2721 -0.5185 -0.9763
    9MOL   H955 8651   6.417   2.274   3.044 -2.6854 -0.6253 -1.9251
    9MOL   H956 8652   6.649   2.079   3.034  2.5596  1.7247 -0.2809
    9MOL   H957 8653   6.650   2.234   3.121 -1.0127  1.4888 -2.5659
    9MOL   H958 8654   6.615   2.041   3.281  0.7519  2.4435  0.3833
    9MOL   H959 8655   6.522   1.976   3.157  0.9635  0.5017 -2.0494
    9MOL   H960 8656   6.364   2.055   3.342  0.2806  0.8859  0.1253
    9MOL   H961 8657   6.336   2.158   3.211 -0.6921  0.5289  0.1937
    9MOL   H962 8658   6.418   2.347   3.310  0.7665  0.4787  0.2840
   10MOL     N1 8659   6.467   4.141   0.325 -0.0158  0.1499 -0.5327
   10MOL     C2 8660   6.408   4.012   0.289  0.2044 -0.6655  0.0238
   10MOL     C3 8661   6.273   4.026   0.217  0.0893 -0.4430 -0.0520
   10MOL     C4 8662   6.159   4.030   0.303  0.2689  0.0332 -0.4484
   10MOL     C5 8663   6.037   4.071   0.245 -0.1339  0.1554 -0.0163
   10MOL     C6 8664   6.014   4.076   0.104 -0.2878  0.3612  0.0643
   10MOL     C7 8665   6.124   4.041   0.016 -0.5226 -0.7136 -0.0540
   10MOL     C8 8666   6.253   4.023   0.073 -0.0104 -0.1267  0.2565
   10MOL     C9 8667   6.368   3.989   7.768  0.1450 -0.4737  0.0373
   10MOL    N10 8668   6.327   3.894   7.669 -0.4287  0.2408  0.4936
   10MOL    C11 8669   6.390   3.847   7.558 -0.2395 -0.2401 -0.0956
   10MOL    O12 8670   6.500   3.891   7.512 -0.2111  0.3995 -0.1858
   10MOL    C13 8671   6.318   3.732   7.493  0.2936  0.4892  0.3260
   10MOL    C14 8672   6.353   3.602   7.576 -0.1360 -0.3520  0.6907
   10MOL    C15 8673   6.275   3.479   7.536 -0.0796  0.2965  0.6990
   10MOL    C16 8674   6.131   3.490   7.483 -0.0084  0.0168 -0.1593
   10MOL    C17 8675   6.055   3.361   7.461  0.0546 -0.4377  0.1653
   10MOL    C18 8676   5.932   3.372   7.384 -0.5929  0.0801 -0.1216
   10MOL    C19 8677   5.862   3.240   7.368  0.9180  0.2609  0.5063
   10MOL    C20 8678   5.920   3.142   7.263 -0.2709  0.5369  0.0910
   10MOL    C21 8679   5.898   3.189   7.115 -0.5227 -0.7971  0.2704
   10MOL    O22 8680   5.804   3.253   7.078 -0.2120 -0.2087  0.1257
   10MOL    H23 8681   6.470   4.139   0.426  1.4510  0.8398 -0.5651
   10MOL    H24 8682   6.474   3.951   0.228  0.0538  0.2299 -1.0637
   10MOL    H25 8683   6.385   3.938   0.365 -0.4953 -0.2942  0.1854
   10MOL    H26 8684   6.161   4.002   0.408  1.8622 -0.0483 -0.4876
   10MOL    H27 8685   5.949   4.076   0.308  0.7919 -0.2758  1.3323
   10MOL    H28 8686   5.913   4.094   0.070 -0.0815  1.4856  0.0168
   10MOL    H29 8687   6.116   4.040   7.698  1.6143 -1.4415 -0.2200
   10MOL    H30 8688   6.450   3.941   0.032 -0.3158 -2.0097 -0.6020
   10MOL    H31 8689   6.412   4.076   7.720  1.6672  0.5401  3.1135
   10MOL    H32 8690   6.235   3.856   7.685 -0.9350  1.9411  1.7860
   10MOL    H33 8691   6.334   3.720   7.386  2.2330 -0.7617  0.7445
   10MOL    H34 8692   6.210   3.751   7.489  0.7141  2.7383 -1.0155
   10MOL    H35 8693   6.331   3.619   7.681  0.8412 -1.2465  1.0361
   10MOL    H36 8694   6.460   3.584   7.587 -0.2554 -1.5608 -0.0226
   10MOL    H37 8695   6.329   3.423   7.460 -1.1837  1.5189 -1.0266
   10MOL    H38 8696   6.281   3.409   7.620  1.6253 -0.6157 -0.1569
   10MOL    H39 8697   6.076   3.562   7.543  2.4092  0.5253  1.5434
   10MOL    H40 8698   6.143   3.547   7.390 -1.7974 -1.3160 -1.2419
   10MOL    H41 8699   6.121   3.284   7.421  1.2224  0.5720  0.1014
   10MOL    H42 8700   6.022   3.320   7.556 -0.7789 -0.9184 -0.3283
   10MOL    H43 8701   5.953   3.401   7.281 -2.5773 -2.2242 -1.2345
   10MOL    H44 8702   5.863   3.443   7.429  2.8615  4.1522 -0.9060
   10MOL    H45 8703   5.852   3.189   7.463  0.2633  0.0268  0.3165
   10MOL    H46 8704   5.761   3.281   7.356  0.9908  0.3819  0.2871
   10MOL    H47 8705   5.878   3.044   7.284 -0.6159  0.2973 -1.6450
   10MOL    H48 8706   6.028   3.135   7.270 -0.2313  1.5500  0.5659
   10MOL    H49 8707   6.566   4.143   0.307 -0.0725  0.5208 -0.7988
   10MOL    N50 8708   5.992   3.168   7.024 -0.5952  0.6810 -0.1106
   10MOL    C51 8709   5.986   3.201   6.882 -0.9519 -0.0163 -0.4348
   10MOL    C52 8710   5.953   3.072   6.810  0.3015 -0.1971  0.5750
   10MOL    C53 8711   5.827   3.057   6.754 -0.1004 -0.0424  0.0539
   10MOL    C54 8712   5.790   2.936   6.696 -0.0071 -0.2428  0.1299
   10MOL    C55 8713   5.888   2.835   6.678 -0.2535  0.6427  0.4614
   10MOL    C56 8714   6.017   2.852   6.725 -0.6507 -0.3113 -0.5027
   10MOL    C57 8715   6.048   2.969   6.794 -0.5995 -1.1112  0.5228
   10MOL    C58 8716   6.202   2.976   6.830 -0.5885 -0.6622 -0.3165
   10MOL    N59 8717   6.234   2.883   6.930  0.2164 -0.0055  0.1851
   10MOL    C60 8718   6.259   2.909   7.055 -0.1477 -0.2126  0.1165
   10MOL    O61 8719   6.267   3.028   7.083 -0.2426  0.5570  0.0681
   10MOL    C62 8720   6.279   2.795   7.154 -0.2189  0.1281  0.3941
   10MOL    C63 8721   6.379   2.827   7.262 -0.1872  0.3946  0.3079
   10MOL    C64 8722   6.331   2.940   7.353 -0.3130 -0.1582  0.1925
   10MOL    C65 8723   6.381   2.936   7.502 -0.2845  0.0446  0.3633
   10MOL    C66 8724   6.333   3.054   7.579 -0.5969 -0.2049  0.4664
   10MOL    C67 8725   6.405   3.049   7.717  0.4084  0.2045  0.6119
   10MOL    C68 8726   6.376   3.168   0.014  0.4187  0.3106 -0.0072
   10MOL    C69 8727   6.405   3.154   0.168  0.1345 -0.2853  0.1785
   10MOL    C70 8728   6.355   3.271   0.256  0.4532  0.1268 -0.3257
   10MOL    O71 8729   6.277   3.247   0.354 -0.2030 -0.1383 -0.1395
   10MOL    H72 8730   6.080   3.135   7.060 -1.4480 -1.9670 -0.3268
   10MOL    H73 8731   6.087   3.228   6.852 -0.8093  0.4839  0.4941
   10MOL    H74 8732   5.909   3.271   6.851  0.6636  1.4923 -1.1089
   10MOL    H75 8733   5.744   3.122   6.777  0.2460  0.2360  0.5388
   10MOL    H76 8734   5.685   2.931   6.670  0.1397 -0.0498 -0.5275
   10MOL    H77 8735   5.843   2.749   6.630 -1.2910  1.2917  0.2530
   10MOL    H78 8736   6.098   2.783   6.704  0.6362  1.3225 -1.0410
   10MOL    H79 8737   6.235   3.077   6.853  0.0889 -1.4382  2.2360
   10MOL    H80 8738   6.260   2.948   6.742 -1.5870 -1.2769 -0.7991
   10MOL    H81 8739   6.235   2.791   6.889  1.2658 -0.2612  0.7532
   10MOL    H82 8740   6.308   2.703   7.104 -0.8695 -0.6119  1.3634
   10MOL    H83 8741   6.185   2.775   7.206  1.0054  0.8993  2.9518
   10MOL    H84 8742   6.478   2.844   7.220  0.0102 -1.3780 -0.0159
   10MOL    H85 8743   6.400   2.737   7.320 -1.1185 -1.6208 -2.3585
   10MOL    H86 8744   6.360   3.032   7.301 -1.1552  0.3968  0.6964
   10MOL    H87 8745   6.222   2.939   7.350 -0.2813 -1.2612 -1.2358
   10MOL    H88 8746   6.349   2.850   7.560 -1.2617 -0.7736 -1.3440
   10MOL    H89 8747   6.487   2.911   7.500 -0.7252 -1.8514  0.1198
   10MOL    H90 8748   6.373   3.149   7.542 -1.5464 -0.1925 -0.5630
   10MOL    H91 8749   6.228   3.076   7.594 -1.0967 -2.2169  0.0850
   10MOL    H92 8750   6.512   3.046   7.695  0.0537 -1.6729 -1.0388
   10MOL    H93 8751   6.375   2.957   7.766  1.2658 -0.5520 -0.2596
   10MOL    H94 8752   6.272   3.195   7.787  0.9763  2.4665 -0.0963
   10MOL    H95 8753   6.436   3.254   7.774  0.1949  0.4638 -0.0156
   10MOL    H96 8754   6.510   3.126   0.180  0.0107 -2.4311 -3.2311
   10MOL    H97 8755   6.346   3.066   0.197  1.8576 -0.6992  2.6169
   10MOL    N98 8756   6.392   3.394   0.208  0.0498 -0.8121 -0.3593
   10MOL    C99 8757   6.339   3.526   0.254  0.6161  0.3822 -0.4843
   10MOL   C100 8758   6.430   3.594   0.350 -0.3267  0.1230  0.8990
   10MOL   C101 8759   6.391   3.597   0.488 -0.9320 -0.2896 -0.0383
   10MOL   C102 8760   6.471   3.643   0.589 -0.4472  0.5519  0.3148
   10MOL   C103 8761   6.601   3.688   0.558 -0.0893 -0.5572 -0.1113
   10MOL   C104 8762   6.646   3.695   0.423 -0.2248  0.7654 -0.0784
   10MOL   C105 8763   6.558   3.654   0.317 -1.2682  0.9025 -0.2910
   10MOL   C106 8764   6.611   3.655   0.173  0.3169  0.2992 -1.0260
   10MOL   N107 8765   6.718   3.559   0.164 -1.2035  0.3037 -0.8403
   10MOL   C108 8766   6.704   3.448   0.095 -0.2800  0.0199  0.3715
   10MOL   O109 8767   6.603   3.418   0.034 -0.4517 -0.1156  0.4447
   10MOL   C110 8768   6.831   3.357   0.092  0.1379  0.4245  0.4004
   10MOL   C111 8769   6.803   3.212   0.056  0.4687 -0.2013  0.2687
   10MOL   C112 8770   6.799   3.188   7.692  0.0565  0.0472  0.7546
   10MOL   C113 8771   6.801   3.047   7.659 -0.0275  0.0921  0.8490
   10MOL   C114 8772   6.800   3.008   7.511 -0.3928 -0.2817  0.0893
   10MOL   C115 8773   6.845   2.865   7.475  0.0576 -0.1273 -0.1333
   10MOL   C116 8774   6.848   2.829   7.327 -0.2324  0.6768  0.0056
   10MOL   C117 8775   6.914   2.696   7.290 -0.2636  0.1823 -0.3995
   10MOL   C118 8776   6.834   2.580   7.329 -0.7004 -0.2358 -0.0272
   10MOL   O119 8777   6.712   2.589   7.358  0.4211  0.2249  0.1884
   10MOL   H120 8778   6.454   3.400   0.128  0.2042 -2.0187 -0.3467
   10MOL   H121 8779   6.313   3.588   0.169  2.5367  0.4291 -1.0558
   10MOL   H122 8780   6.246   3.521   0.310 -1.3332  2.5515 -3.4083
   10MOL   H123 8781   6.296   3.552   0.511 -1.7339  0.7740 -1.2212
   10MOL   H124 8782   6.437   3.642   0.691  0.6401 -0.3608  0.6796
   10MOL   H125 8783   6.667   3.728   0.634 -1.3743  0.0621  0.6833
   10MOL   H126 8784   6.743   3.738   0.402  0.6958 -0.9814  0.4673
   10MOL   H127 8785   6.635   3.759   0.150 -0.7002  0.9127  0.6343
   10MOL   H128 8786   6.537   3.637   0.095  0.3289  2.3124 -1.5305
   10MOL   H129 8787   6.809   3.578   0.203 -1.1643 -1.7197  0.1608
   10MOL   H130 8788   6.871   3.371   0.193  1.4150  0.2053 -0.0674
   10MOL   H131 8789   6.897   3.410   0.024  0.8597 -1.7993 -0.6818
   10MOL   H132 8790   6.715   3.179   0.112 -1.1401  2.6363 -0.4859
   10MOL   H133 8791   6.883   3.152   0.098 -0.7185 -0.9613  1.4903
   10MOL   H134 8792   6.704   3.232   7.661  0.0292 -0.4351  0.1526
   10MOL   H135 8793   6.876   3.246   7.640 -0.7894  0.3574 -0.1570
   10MOL   H136 8794   6.892   3.014   7.709  0.3902  0.3633  0.2707
   10MOL   H137 8795   6.722   2.992   7.710  0.3787 -0.2909  1.0633
   10MOL   H138 8796   6.702   3.032   7.470 -0.6446  0.5562  1.1640
   10MOL   H139 8797   6.858   3.078   7.451 -3.0693  0.1869 -2.0774
   10MOL   H140 8798   6.782   2.794   7.528 -0.9373 -0.4007 -1.6523
   10MOL   H141 8799   6.946   2.860   7.516  0.4281  1.6994 -0.7859
   10MOL   H142 8800   6.746   2.827   7.287 -0.3861  0.2629  0.4149
   10MOL   H143 8801   6.897   2.916   7.283  2.3565 -1.5952 -1.8593
   10MOL   H144 8802   7.005   2.690   7.350 -0.7145 -1.6748  0.1467
   10MOL   H145 8803   6.935   2.695   7.183  0.1935 -0.5334 -0.3050
   10MOL   N146 8804   6.901   2.466   7.320  0.0089 -0.0002  0.4081
   10MOL   C147 8805   6.846   2.332   7.363 -0.5169  0.0063  0.1525
   10MOL   C148 8806   6.947   2.225   7.402 -0.3118  0.3486  0.8682
   10MOL   C149 8807   7.084   2.254   7.385  0.1372 -0.2549 -0.1999
   10MOL   C150 8808   7.174   2.156   7.407 -0.6233  0.5346 -0.0363
   10MOL   C151 8809   7.140   2.030   7.453  0.5425  0.7053  0.1577
   10MOL   C152 8810   7.002   1.995   7.465 -0.6296 -0.2983  0.1455
   10MOL   C153 8811   6.901   2.099   7.444 -0.3803 -0.2025 -0.0175
   10MOL   C154 8812   6.759   2.057   7.471 -0.3614  0.4196 -0.6322
   10MOL   N155 8813   6.734   2.030   7.611  0.1246  0.2720  0.4417
   10MOL   C156 8814   6.670   2.109   7.699  0.3542  0.2164  0.4389
   10MOL   O157 8815   6.623   2.221   7.665  0.6211  0.1488 -0.5870
   10MOL   C158 8816   6.672   2.066   0.055 -0.5033  0.1378 -0.3180
   10MOL   C159 8817   6.695   2.183   0.150 -0.6958  0.5460 -0.0837
   10MOL   C160 8818   6.660   2.156   0.301  0.2694 -0.3114 -0.5901
   10MOL   C161 8819   6.508   2.159   0.321 -0.2604 -0.5811 -0.7210
   10MOL   C162 8820   6.463   2.186   0.462 -0.0935  0.2990 -0.1396
   10MOL   C163 8821   6.530   2.087   0.559  0.1576  0.0914 -0.1967
   10MOL   C164 8822   6.474   2.101   0.695 -0.2612  1.0060 -0.4298
   10MOL   C165 8823   6.472   1.978   0.789  0.8752  0.0730 -0.4536
   10MOL   C166 8824   6.418   2.027   0.924  0.4978 -0.0433  0.1710
   10MOL   O167 8825   6.295   2.037   0.935 -0.6762 -0.1732 -0.0892
   10MOL   H168 8826   6.996   2.463   7.288 -0.2459 -0.8571 -0.2983
   10MOL   H169 8827   6.779   2.281   7.294 -1.1015  1.0537 -0.0722
   10MOL   H170 8828   6.782   2.357   7.448 -0.0658  0.0892  0.4711
   10MOL   H171 8829   7.120   2.346   7.341 -0.4460  0.6950  1.2504
   10MOL   H172 8830   7.281   2.168   7.394 -0.3806 -1.9248 -0.4566
   10MOL   H173 8831   7.212   1.950   7.462 -1.4641 -0.8895  2.6810
   10MOL   H174 8832   6.964   1.904   7.508 -1.2771 -0.5557 -0.9770
   10MOL   H175 8833   6.734   1.971   7.408 -0.6405 -0.1513  0.2606
   10MOL   H176 8834   6.682   2.129   7.443  1.8919  2.6585 -1.1735
   10MOL   H177 8835   6.779   1.947   7.646 -2.1148 -1.2654 -0.2352
   10MOL   H178 8836   6.745   1.987   0.074  0.3651  0.9250 -0.3584
   10MOL   H179 8837   6.573   2.023   0.073 -0.7512  1.8104  2.6079
   10MOL   H180 8838   6.625   2.257   0.112 -0.7320  0.9859  0.8152
   10MOL   H181 8839   6.791   2.234   0.136 -0.1429 -0.9034 -1.8246
   10MOL   H182 8840   6.688   2.056   0.332 -1.2549 -0.0694  1.6819
   10MOL   H183 8841   6.709   2.229   0.366  1.7987 -0.5461 -1.4574
   10MOL   H184 8842   6.460   2.233   0.256 -3.0723 -1.7864 -0.0920
   10MOL   H185 8843   6.470   2.064   0.284  0.0764 -0.3519 -1.6751
   10MOL   H186 8844   6.485   2.287   0.497  0.4318 -0.8406  2.9961
   10MOL   H187 8845   6.355   2.168   0.463 -0.5030  2.6111 -0.4495
   10MOL   H188 8846   6.638   2.100   0.569  0.1977 -0.5009  0.1809
   10MOL   H189 8847   6.523   1.986   0.519  1.7561 -0.4261  0.8025
   10MOL   H190 8848   6.524   2.184   0.744 -0.4955  0.2969  1.0471
   10MOL   H191 8849   6.370   2.131   0.682 -0.3679  0.8999  0.1365
   10MOL   H192 8850   6.571   1.935   0.806 -0.3576 -1.4157  3.5512
   10MOL   H193 8851   6.404   1.903   0.748 -0.1896  1.1262 -0.6246
   10MOL   N194 8852   6.511   2.057   1.011  0.5219  0.0731  0.0599
   10MOL   C195 8853   6.498   2.111   1.147  0.4717  0.3035  1.0426
   10MOL   C196 8854   6.568   2.243   1.163  0.1508 -0.7565 -0.5775
   10MOL   C197 8855   6.693   2.242   1.221  0.1503  0.2333 -0.8887
   10MOL   C198 8856   6.784   2.351   1.200 -0.3389 -0.0816 -0.8535
   10MOL   C199 8857   6.743   2.466   1.136  0.0560 -0.2684 -0.1637
   10MOL   C200 8858   6.612   2.474   1.096  0.0167  0.3501  0.0928
   10MOL   C201 8859   6.524   2.363   1.106 -0.0783 -0.3426 -0.4310
   10MOL   C202 8860   6.387   2.372   1.038  0.2881 -1.0452  0.6300
   10MOL   N203 8861   6.407   2.402   0.896 -0.1264  0.3964  0.0319
   10MOL   C204 8862   6.315   2.425   0.806 -0.3367 -0.2599  0.0825
   10MOL   O205 8863   6.338   2.501   0.710 -0.2742 -0.0371 -0.1223
   10MOL   C206 8864   6.176   2.350   0.812 -0.0270  0.0297  0.1952
   10MOL   C207 8865   6.063   2.437   0.870 -0.4762 -0.5896 -0.0669
   10MOL   C208 8866   5.942   2.353   0.902  0.7468  0.0930  0.2035
   10MOL   C209 8867   5.821   2.433   0.971 -0.0955 -0.1862  0.3197
   10MOL   C210 8868   5.702   2.344   1.023  0.4250  0.8475  0.3682
   10MOL   C211 8869   5.597   2.302   0.913 -0.3025 -0.0251 -0.0612
   10MOL   C212 8870   5.495   2.198   0.967  1.0032  0.0245  0.2734
   10MOL   C213 8871   5.389   2.151   0.865 -0.0182 -0.3059 -1.1480
   10MOL   C214 8872   5.333   2.012   0.901 -0.3119 -0.2467 -0.2266
   10MOL   O215 8873   5.350   1.965   1.015 -0.2395  0.2847  0.3313
   10MOL   H216 8874   6.607   2.047   0.982 -0.4036 -1.1467 -2.7849
   10MOL   H217 8875   6.392   2.117   1.172 -0.3941  1.6614 -2.6488
   10MOL   H218 8876   6.539   2.039   1.219 -1.2136 -1.3382  0.4177
   10MOL   H219 8877   6.721   2.160   1.286 -0.6675  0.8081  0.1928
   10MOL   H220 8878   6.885   2.344   1.239 -0.5639  0.1436 -0.2235
   10MOL   H221 8879   6.809   2.551   1.127  0.3849 -0.3930  0.9829
   10MOL   H222 8880   6.579   2.561   1.040 -1.1042 -0.9013 -1.2484
   10MOL   H223 8881   6.327   2.447   1.088  1.2063 -0.7830  1.3590
   10MOL   H224 8882   6.328   2.282   1.053 -2.3266  0.2193 -1.7034
   10MOL   H225 8883   6.494   2.449   0.875  0.4742 -0.4091  0.6491
   10MOL   H226 8884   6.175   2.265   0.880 -0.0528  1.0350  1.4682
   10MOL   H227 8885   6.150   2.310   0.714 -2.8587 -1.0447  1.3292
   10MOL   H228 8886   6.087   2.468   0.972 -0.7594  0.4264 -0.3029
   10MOL   H229 8887   6.046   2.528   0.812  1.5297 -0.3359 -0.2746
   10MOL   H230 8888   5.904   2.298   0.816  3.4157 -2.9189  0.8391
   10MOL   H231 8889   5.976   2.271   0.966  0.3989  1.7496  2.5629
   10MOL   H232 8890   5.871   2.466   1.063 -0.1205  0.3150  0.1524
   10MOL   H233 8891   5.798   2.529   0.925 -0.4970  0.1621  1.2435
   10MOL   H234 8892   5.755   2.253   1.052 -1.0259 -0.4157 -0.9093
   10MOL   H235 8893   5.651   2.398   1.103 -0.7549 -0.1571  0.3113
   10MOL   H236 8894   5.652   2.257   0.831  1.5801  1.8548  0.1446
   10MOL   H237 8895   5.547   2.393   0.876 -1.1798  0.0396  1.2443
   10MOL   H238 8896   5.432   2.255   1.036  0.3288 -0.3059 -0.0630
   10MOL   H239 8897   5.543   2.114   1.018  3.0827  0.9583 -0.1168
   10MOL   H240 8898   5.308   2.220   0.847  1.7569  2.0224 -0.4789
   10MOL   H241 8899   5.446   2.132   0.774  1.0995  0.9598 -0.7204
   10MOL   N242 8900   5.259   1.945   0.804 -0.3284 -0.1607  0.0054
   10MOL   C243 8901   5.204   1.813   0.813 -0.2316 -0.3520  1.2362
   10MOL   C244 8902   5.291   1.700   0.762  0.6853  0.4842  0.1898
   10MOL   C245 8903   5.411   1.732   0.690  0.1168  0.0224  0.1628
   10MOL   C246 8904   5.499   1.632   0.649  0.2606  0.2121 -0.1220
   10MOL   C247 8905   5.460   1.498   0.653 -0.6847  0.0967 -0.3702
   10MOL   C248 8906   5.335   1.468   0.709 -0.2858 -0.5025  0.1116
   10MOL   C249 8907   5.250   1.565   0.768  0.7920  0.2474  0.1303
   10MOL   C250 8908   5.112   1.528   0.815  0.9346 -0.6927 -0.1190
   10MOL   N251 8909   5.021   1.502   0.701 -0.2646  0.0857 -0.3698
   10MOL   C252 8910   4.900   1.556   0.686  0.1209  0.6963  0.5982
   10MOL   O253 8911   4.843   1.612   0.779 -0.8201  0.1954  0.3113
   10MOL   C254 8912   4.820   1.533   0.553  0.1299  0.1518  0.1508
   10MOL   C255 8913   4.676   1.579   0.547  0.2790 -0.6428  0.0122
   10MOL   C256 8914   4.586   1.540   0.666  0.3121 -0.1906  0.2440
   10MOL   C257 8915   4.433   1.550   0.640  0.0417 -0.4088  0.2227
   10MOL   C258 8916   4.344   1.489   0.747 -0.2988 -0.0345  0.9357
   10MOL   C259 8917   4.200   1.521   0.721  0.3895  0.1651 -0.3469
   10MOL   C260 8918   4.109   1.477   0.836 -0.7666 -0.1684 -1.1211
   10MOL   C261 8919   3.963   1.500   0.807  0.3554  0.0930  0.4576
   10MOL   C262 8920   3.867   1.428   0.900 -0.1526  0.0431  0.1705
   10MOL   O263 8921   3.896   1.409   1.019  0.0515 -0.6049 -0.4854
   10MOL   H264 8922   5.259   1.988   0.713  0.6787 -0.3320 -0.0807
   10MOL   H265 8923   5.174   1.795   0.916  0.2541  0.0510  1.4496
   10MOL   H266 8924   5.109   1.807   0.760 -0.5245 -2.8276  1.9487
   10MOL   H267 8925   5.447   1.834   0.685 -1.6000  0.6853  0.9492
   10MOL   H268 8926   5.590   1.665   0.600 -0.5720 -0.4270 -2.1399
   10MOL   H269 8927   5.520   1.423   0.602  0.4206  0.0740  0.9237
   10MOL   H270 8928   5.296   1.367   0.705 -0.1948 -0.5651  0.6780
   10MOL   H271 8929   5.068   1.591   0.893  0.4502 -2.1760  0.8261
   10MOL   H272 8930   5.125   1.430   0.860  0.4921 -1.0845 -0.8561
   10MOL   H273 8931   5.058   1.448   0.625 -0.0128 -1.5099  0.8560
   10MOL   H274 8932   4.816   1.426   0.530  1.2188 -0.5225  2.8788
   10MOL   H275 8933   4.878   1.570   0.469 -0.1143  2.5713  1.0109
   10MOL   H276 8934   4.635   1.546   0.452  0.6594 -1.7503  0.2256
   10MOL   H277 8935   4.681   1.688   0.550 -0.3109 -0.6373  0.8368
   10MOL   H278 8936   4.616   1.588   0.759 -1.3191  1.6406 -0.1298
   10MOL   H279 8937   4.597   1.433   0.683  1.5742  0.3375  3.0767
   10MOL   H280 8938   4.416   1.657   0.627 -0.4899 -0.2769  1.8666
   10MOL   H281 8939   4.402   1.507   0.545 -1.7176 -0.3748  0.7667
   10MOL   H282 8940   4.368   1.384   0.733  0.8591  0.4761 -0.9637
   10MOL   H283 8941   4.372   1.528   0.845  1.4610 -1.1618  0.8974
   10MOL   H284 8942   4.164   1.464   0.635 -2.4948 -1.6848  1.9941
   10MOL   H285 8943   4.190   1.630   0.719 -1.2963  0.2207  4.3038
   10MOL   H286 8944   4.114   1.370   0.855  1.1856  0.0880  0.0530
   10MOL   H287 8945   4.137   1.533   0.926 -0.3407  0.0782 -1.4073
   10MOL   H288 8946   3.937   1.606   0.804  2.4258  0.6154 -0.0317
   10MOL   H289 8947   3.941   1.476   0.703 -3.0887  1.7390  0.7321
   10MOL   N290 8948   3.746   1.409   0.847  0.0044  0.0689 -0.1921
   10MOL   C291 8949   3.619   1.369   0.920  0.6853  0.1861  0.4370
   10MOL   C292 8950   3.577   1.224   0.914  0.0495  0.8480  0.1521
   10MOL   C293 8951   3.546   1.154   1.030 -0.7560  0.4908 -0.2756
   10MOL   C294 8952   3.513   1.015   1.033 -0.0915 -0.2134 -0.5084
   10MOL   C295 8953   3.514   0.943   0.907  0.1913  0.3162 -0.7282
   10MOL   C296 8954   3.539   1.010   0.784 -0.3659 -0.7475 -0.6757
   10MOL   C297 8955   3.572   1.154   0.790 -0.3207  0.3560  0.4393
   10MOL   C298 8956   3.596   1.218   0.656  0.0350 -0.2258  1.0856
   10MOL   N299 8957   3.729   1.171   0.602  0.2282  0.1139 -0.8952
   10MOL   C300 8958   3.824   1.254   0.560 -0.2627 -0.4742  0.3895
   10MOL   O301 8959   3.795   1.369   0.522 -0.2138  0.6929  0.5934
   10MOL   C302 8960   3.966   1.203   0.537 -0.0462 -0.1556  0.4163
   10MOL   C303 8961   4.046   1.257   0.418  0.3945  0.6384 -0.3981
   10MOL   C304 8962   4.028   1.169   0.298 -0.3117 -0.3744 -0.0759
   10MOL   C305 8963   3.889   1.118   0.259  0.1571 -0.7039  0.3729
   10MOL   C306 8964   3.893   1.070   0.118  0.1929  0.0427 -0.2397
   10MOL   C307 8965   3.788   0.969   0.083  0.0642  0.0304 -0.0943
   10MOL   C308 8966   3.822   0.911   7.730  0.0045 -0.3660 -0.3877
   10MOL   C309 8967   3.722   0.822   7.665 -0.1579  0.1708 -0.4000
   10MOL   C310 8968   3.774   0.743   7.536  0.8304  0.3866  0.7709
   10MOL   O311 8969   3.849   0.804   7.458  0.0516 -0.3396 -0.2508
   10MOL   H312 8970   3.749   1.441   0.752  0.9758 -0.2933 -0.2959
   10MOL   H313 8971   3.625   1.398   1.025  2.4508  1.3862  0.0472
   10MOL   H314 8972   3.536   1.423   0.875  0.0119 -1.4624 -0.3224
   10MOL   H315 8973   3.542   1.207   1.124 -0.4114 -0.7283  0.4427
   10MOL   H316 8974   3.478   0.964   1.121 -0.5980 -0.0297 -0.5971
   10MOL   H317 8975   3.487   0.840   0.923  0.0632  0.4076 -0.3700
   10MOL   H318 8976   3.530   0.958   0.690 -1.8048 -1.4021 -0.1921
   10MOL   H319 8977   3.590   1.327   0.655 -0.8670 -0.2684  1.3128
   10MOL   H320 8978   3.525   1.186   0.581 -0.2443  1.2619  0.6919
   10MOL   H321 8979   3.751   1.076   0.631 -1.7792 -0.1375 -0.1455
   10MOL   H322 8980   4.006   1.257   0.623 -1.0639  0.9937  0.1947
   10MOL   H323 8981   3.983   1.100   0.567  1.1597  0.1659  0.8690
   10MOL   H324 8982   4.150   1.262   0.448  0.2919 -0.2954  0.1254
   10MOL   H325 8983   4.015   1.359   0.392  1.9134  1.4130  0.7395
   10MOL   H326 8984   4.091   1.080   0.307 -0.2354 -0.2054  1.2508
   10MOL   H327 8985   4.076   1.223   0.216 -1.8485 -2.0463 -2.1217
   10MOL   H328 8986   3.857   1.036   0.323  0.2447 -1.7067 -0.8620
   10MOL   H329 8987   3.820   1.202   0.270 -0.5088 -1.4824  2.1839
   10MOL   H330 8988   3.891   1.158   0.053  0.0900 -0.9822 -1.6451
   10MOL   H331 8989   3.985   1.011   0.113  0.2957  0.3043 -1.6610
   10MOL   H332 8990   3.689   1.013   0.078  0.8310  2.1446  2.2973
   10MOL   H333 8991   3.777   0.890   0.158 -1.4629  1.2985  1.0684
   10MOL   H334 8992   3.813   0.995   7.661 -0.5949  0.1966  0.3709
   10MOL   H335 8993   3.925   0.875   7.721  0.0915 -0.4047  0.6447
   10MOL   H336 8994   3.693   0.754   7.745 -0.0723  0.1762 -0.3645
   10MOL   H337 8995   3.622   0.858   7.640 -2.3493 -1.6447  4.9530
   10MOL   N338 8996   3.739   0.614   7.523  0.3597 -0.1373  1.0783
   10MOL   C339 8997   3.788   0.525   7.424 -0.1519 -0.4591 -0.0080
   10MOL   C340 8998   3.703   0.402   7.408  0.2516  0.3149  0.9024
   10MOL   C341 8999   3.750   0.291   7.474 -0.2906  0.7797  0.6888
   10MOL   C342 9000   3.676   0.168   7.463 -0.3283 -0.3121  0.0402
   10MOL   C343 9001   3.555   0.166   7.397 -0.0071  0.0997  0.6123
   10MOL   C344 9002   3.494   0.285   7.349  0.6111  1.2219  0.8742
   10MOL   C345 9003   3.572   0.403   7.347  0.3536 -0.2394  0.1451
   10MOL   C346 9004   3.521   0.537   7.295  0.1508 -0.2994  0.1970
   10MOL   N347 9005   3.545   0.552   7.153 -0.0098  0.4106 -0.1763
   10MOL   C348 9006   3.621   0.644   7.091  0.2326  0.5268 -0.0827
   10MOL   O349 9007   3.667   0.742   7.153  0.2189  0.0188  0.2231
   10MOL   C350 9008   3.660   0.619   6.947 -0.2763  0.1136  0.3877
   10MOL   C351 9009   3.713   0.746   6.871  0.2326 -0.6134  0.0706
   10MOL   C352 9010   3.611   0.860   6.854  0.7820 -0.0339  0.4649
   10MOL   C353 9011   3.486   0.813   6.774 -0.1021 -0.2148  0.1031
   10MOL   C354 9012   3.373   0.917   6.764  0.2159  0.1276 -0.4409
   10MOL   C355 9013   3.408   1.020   6.656  0.3247 -0.4928  0.0985
   10MOL   C356 9014   3.298   1.122   6.640 -0.3795  0.5769  0.2760
   10MOL   C357 9015   3.324   1.223   6.532 -0.3233  0.1461 -0.1270
   10MOL   C358 9016   3.200   1.312   6.512  0.2689 -0.1299  0.3257
   10MOL   O359 9017   3.090   1.265   6.512 -0.0124 -0.5193  0.3192
   10MOL   H360 9018   3.674   0.571   7.587  0.4926 -0.3003  1.1044
   10MOL   H361 9019   3.795   0.569   7.324 -0.2885  0.0218  0.1947
   10MOL   H362 9020   3.893   0.503   7.439  0.3351  1.1009 -0.9495
   10MOL   H363 9021   3.841   0.275   7.531 -0.4844  0.4487  0.9089
   10MOL   H364 9022   3.721   0.079   7.504 -0.6633 -0.7438 -0.5339
   10MOL   H365 9023   3.510   0.074   7.362  0.8973 -0.1545  0.1067
   10MOL   H366 9024   3.397   0.274   7.302  1.4993 -0.1122 -0.6883
   10MOL   H367 9025   3.559   0.624   7.349 -1.0286  0.8153 -0.7186
   10MOL   H368 9026   3.413   0.527   7.299  0.2839 -1.3970  1.3226
   10MOL   H369 9027   3.504   0.474   7.105  0.5646  0.4310 -0.7113
   10MOL   H370 9028   3.589   0.551   6.900  0.2357 -1.4238  1.7885
   10MOL   H371 9029   3.743   0.551   6.964  0.1644 -0.2481 -3.0287
   10MOL   H372 9030   3.746   0.711   6.773  0.8091 -1.7201  0.6653
   10MOL   H373 9031   3.805   0.783   6.915  0.6503 -2.2521  0.5874
   10MOL   H374 9032   3.583   0.902   6.950  0.0764 -0.9292  0.6556
   10MOL   H375 9033   3.658   0.938   6.795 -2.2969  2.1454  0.7785
   10MOL   H376 9034   3.444   0.718   6.808  0.8273 -1.6027 -2.4604
   10MOL   H377 9035   3.526   0.789   6.675  0.6236  0.1496  0.3034
   10MOL   H378 9036   3.278   0.865   6.757  2.0875 -3.4673 -0.2266
   10MOL   H379 9037   3.357   0.959   6.863 -1.8289  0.8909 -1.0897
   10MOL   H380 9038   3.428   0.963   6.565  0.3399 -2.0346  1.0409
   10MOL   H381 9039   3.501   1.069   6.683 -0.6097  2.0873 -1.1917
   10MOL   H382 9040   3.213   1.056   6.627 -0.1412  0.1171  0.9978
   10MOL   H383 9041   3.280   1.176   6.733 -0.9490  0.4699  0.2265
   10MOL   H384 9042   3.340   1.169   6.438 -1.0002 -1.2120  0.5176
   10MOL   H385 9043   3.403   1.290   6.565 -1.2222  0.5598  1.2044
   10MOL   N386 9044   3.218   1.442   6.491 -0.0184  0.1906 -0.6088
   10MOL   C387 9045   3.122   1.548   6.511  0.2220  0.1001  0.4335
   10MOL   C388 9046   3.150   1.637   6.629  0.3192  0.3034 -0.5577
   10MOL   C389 9047   3.277   1.641   6.689 -0.1255  0.1390  0.0765
   10MOL   C390 9048   3.291   1.730   6.790  0.4173  0.5634 -0.3572
   10MOL   C391 9049   3.192   1.823   6.829  0.5083  0.5212  0.1671
   10MOL   C392 9050   3.074   1.833   6.762  0.1795  0.4753  0.5694
   10MOL   C393 9051   3.053   1.732   6.666 -0.7251  0.1444  0.7486
   10MOL   C394 9052   2.918   1.743   6.601  0.3510 -0.4280 -0.0673
   10MOL   N395 9053   2.929   1.789   6.463  0.2263  0.3806 -0.0896
   10MOL   C396 9054   2.820   1.774   6.383 -0.6781 -0.9291  0.0235
   10MOL   O397 9055   2.708   1.768   6.423 -0.2770 -0.2806 -0.2521
   10MOL   C398 9056   2.848   1.776   6.227  0.9466 -0.0580  0.2071
   10MOL   C399 9057   2.718   1.797   6.143  0.7734  0.3211 -0.9466
   10MOL   C400 9058   2.667   1.947   6.145  0.4630 -0.0500  0.9987
   10MOL   C401 9059   2.537   1.959   6.072  0.7682  0.4069  0.5294
   10MOL   C402 9060   2.500   2.105   6.039 -0.3816 -0.3615  0.2396
   10MOL   C403 9061   2.600   2.185   5.944 -0.3586 -0.5984 -0.2057
   10MOL   C404 9062   2.560   2.333   5.942  0.3392  0.2936  0.4514
   10MOL   C405 9063   2.425   2.366   5.877  0.7425 -0.1179  0.0928
   10MOL   C406 9064   2.394   2.511   5.893 -0.2481 -0.6757 -0.0108
   10MOL   O407 9065   2.307   2.547   5.972 -0.4527  0.4938  0.3162
   10MOL   H408 9066   3.310   1.469   6.459  0.8047 -2.3617 -0.4760
   10MOL   H409 9067   3.141   1.612   6.425  1.5868  0.7041  1.1763
   10MOL   H410 9068   3.019   1.512   6.512  0.1868  0.2190  1.2958
   10MOL   H411 9069   3.359   1.572   6.669  1.3438  1.2436  2.0709
   10MOL   H412 9070   3.387   1.736   6.839  0.8400  1.0844 -1.2476
   10MOL   H413 9071   3.197   1.900   6.906  1.5187  0.3762  0.2433
   10MOL   H414 9072   3.004   1.909   6.794 -1.6774 -1.0345  0.2013
   10MOL   H415 9073   2.855   1.809   6.660  1.7742  1.0200 -0.1451
   10MOL   H416 9074   2.865   1.648   6.606  0.0505 -0.2196  0.7563
   10MOL   H417 9075   3.022   1.811   6.428  1.0071 -1.5217  0.7351
   10MOL   H418 9076   2.913   1.861   6.204  0.2380 -0.1292 -2.1858
   10MOL   H419 9077   2.906   1.688   6.198  2.8092  1.1732  0.0841
   10MOL   H420 9078   2.641   1.729   6.179  0.5374  1.1622  0.1517
   10MOL   H421 9079   2.730   1.769   6.038  1.6270  1.5651 -1.1946
   10MOL   H422 9080   2.744   2.017   6.113  0.5418 -1.3342 -1.7147
   10MOL   H423 9081   2.649   1.978   6.248 -1.4154  0.8246  0.4243
   10MOL   H424 9082   2.550   1.910   5.975  0.0087 -1.0832  1.1696
   10MOL   H425 9083   2.460   1.901   6.123  2.4250 -1.1239  1.3696
   10MOL   H426 9084   2.404   2.107   5.987  0.2882 -2.3749 -1.1557
   10MOL   H427 9085   2.490   2.156   6.135  0.1072 -0.7666  0.5106
   10MOL   H428 9086   2.599   2.136   5.847  0.6124 -0.1245 -0.4620
   10MOL   H429 9087   2.705   2.185   5.974  0.0446  0.8287 -1.5930
   10MOL   H430 9088   2.635   2.395   5.895 -0.4386  1.8409  1.2181
   10MOL   H431 9089   2.562   2.373   6.044  0.6777 -0.1264  0.6073
   10MOL   H432 9090   2.344   2.314   5.929  0.8395 -0.8286 -0.4516
   10MOL   H433 9091   2.428   2.348   5.770  0.0031  0.0575  0.0408
   10MOL   N434 9092   2.458   2.603   5.826 -0.5668 -0.4846  0.3067
   10MOL   C435 9093   2.435   2.746   5.859 -0.2096  0.2321 -0.0635
   10MOL   C436 9094   2.492   2.834   5.741  0.6126 -0.0551 -0.0826
   10MOL   C437 9095   2.394   2.878   5.653 -0.3044 -0.5075  0.0478
   10MOL   C438 9096   2.437   2.951   5.538 -0.6218 -0.2448  0.0690
   10MOL   C439 9097   2.576   2.975   5.520 -0.4271 -0.6091 -0.0093
   10MOL   C440 9098   2.676   2.928   5.607  0.4090 -0.0208 -0.0128
   10MOL   C441 9099   2.631   2.856   5.721 -0.8184  0.0734  0.8020
   10MOL   C442 9100   2.737   2.817   5.825  0.2875  0.1326  0.1055
   10MOL   N443 9101   2.877   2.853   5.786  0.1147  0.1402 -0.2031
   10MOL   C444 9102   2.982   2.778   5.802 -0.1721 -0.8215  0.3829
   10MOL   O445 9103   2.974   2.676   5.864 -0.3014 -0.1745 -0.8327
   10MOL   C446 9104   3.115   2.839   5.755  0.9710 -0.2941  0.7840
   10MOL   C447 9105   3.168   2.761   5.630 -0.0840  0.4091 -0.2186
   10MOL   C448 9106   3.306   2.810   5.571 -0.8320  0.3324 -0.2314
   10MOL   C449 9107   3.299   2.954   5.510  0.0795  0.4252 -0.4616
   10MOL   C450 9108   3.416   2.995   5.424 -0.5691  0.5431  0.1034
   10MOL   C451 9109   3.545   3.020   5.510  0.7433 -0.2167  0.0631
   10MOL   C452 9110   3.661   3.052   5.417 -0.4571 -0.6606  0.1192
   10MOL   C453 9111   3.779   3.098   5.497 -0.1526 -0.2731  1.0293
   10MOL   C454 9112   3.772   3.238   5.548  0.3709 -0.1950 -0.7749
   10MOL   O455 9113   3.674   3.306   5.524 -0.1831 -0.3917 -0.1897
   10MOL   H456 9114   2.528   2.588   5.755 -2.4752  1.6855 -2.1709
   10MOL   H457 9115   2.482   2.772   5.954 -0.1663 -1.0897  0.2957
   10MOL   H458 9116   2.330   2.773   5.868  0.2611  1.7223  1.1847
   10MOL   H459 9117   2.288   2.863   5.666 -0.6963  0.9398 -1.4052
   10MOL   H460 9118   2.361   2.999   5.477  0.0409 -0.7019 -1.1294
   10MOL   H461 9119   2.599   3.033   5.432 -0.6899  0.5706  0.6942
   10MOL   H462 9120   2.777   2.962   5.588  0.3409  0.8639  1.1125
   10MOL   H463 9121   2.735   2.708   5.820 -2.2490  0.1513  0.2367
   10MOL   H464 9122   2.711   2.840   5.928  1.0959 -3.3186  1.1652
   10MOL   H465 9123   2.881   2.942   5.739 -1.0551  0.0035 -0.5733
   10MOL   H466 9124   3.188   2.852   5.834  2.2740 -0.0976 -0.4255
   10MOL   H467 9125   3.090   2.939   5.718  1.3074 -0.0857  1.1204
   10MOL   H468 9126   3.094   2.765   5.550  0.1260  0.4697 -0.4122
   10MOL   H469 9127   3.182   2.662   5.672 -1.6192  0.9768  1.6955
   10MOL   H470 9128   3.383   2.819   5.647  0.8563  0.0956 -1.8792
   10MOL   H471 9129   3.336   2.735   5.498  0.0537 -0.7035  1.1833
   10MOL   H472 9130   3.205   2.965   5.457  0.6309  0.0714 -1.5403
   10MOL   H473 9131   3.288   3.021   5.595 -1.1267 -2.5790  1.8528
   10MOL   H474 9132   3.423   2.927   5.339 -0.3229 -0.3671  0.8510
   10MOL   H475 9133   3.385   3.089   5.379  0.3659  0.9448  0.2919
   10MOL   H476 9134   3.558   2.930   5.569  0.3525 -0.5815 -0.4034
   10MOL   H477 9135   3.523   3.112   5.565  0.3000 -1.3341  1.8224
   10MOL   H478 9136   3.681   2.972   5.345 -0.6863  0.8599 -1.6807
   10MOL   H479 9137   3.631   3.132   5.349  0.1469  0.0363  0.6625
   10MOL   H480 9138   3.796   3.031   5.582 -0.8103 -1.6586  0.0793
   10MOL   H481 9139   3.869   3.093   5.436 -0.1336  0.9389  0.9491
   10MOL   N482 9140   3.873   3.290   5.625 -1.0304 -0.8825  0.1796
   10MOL   C483 9141   3.864   3.418   5.694 -0.3140 -0.0549  0.1606
   10MOL   C484 9142   3.973   3.513   5.661 -0.3891 -0.2995 -0.3934
   10MOL   C485 9143   4.100   3.497   5.724 -0.3351  0.0140  0.4303
   10MOL   C486 9144   4.209   3.575   5.678 -0.2073  0.4072 -0.0828
   10MOL   C487 9145   4.192   3.678   5.575 -0.7025  0.9224  0.5267
   10MOL   C488 9146   4.067   3.688   5.519 -0.3938  0.3432 -0.6609
   10MOL   C489 9147   3.958   3.608   5.559  0.0456  0.3747 -0.2488
   10MOL   C490 9148   3.821   3.638   5.505 -0.0141 -0.2396 -0.5111
   10MOL   N491 9149   3.793   3.546   5.404 -0.4017 -0.1484 -0.4404
   10MOL   C492 9150   3.846   3.538   5.281  0.7913  0.5837  0.1593
   10MOL   O493 9151   3.893   3.634   5.219 -0.3181  0.1140  0.3791
   10MOL   C494 9152   3.826   3.409   5.203  0.1257 -0.2685  0.4398
   10MOL   C495 9153   3.956   3.327   5.195  0.0364  0.7570 -0.0052
   10MOL   C496 9154   3.934   3.184   5.146  0.0151 -0.5884  0.5014
   10MOL   C497 9155   4.050   3.090   5.182 -0.8567 -0.2757 -0.1181
   10MOL   C498 9156   4.021   2.958   5.125 -0.2604  0.0308 -0.1120
   10MOL   C499 9157   4.121   2.844   5.165 -0.1734 -0.2326 -0.2847
   10MOL   C500 9158   4.058   2.716   5.109  0.1827  0.3689 -0.5904
   10MOL   C501 9159   4.146   2.588   5.129  0.1870  0.3053 -0.0495
   10MOL   C502 9160   4.137   2.542   5.273 -0.3225  0.0736 -0.4536
   10MOL   O503 9161   4.034   2.480   5.315 -0.1157 -0.1904 -0.2272
   10MOL   H504 9162   3.954   3.231   5.641 -1.4633 -1.5942 -0.1895
   10MOL   H505 9163   3.765   3.464   5.689 -0.7935 -1.2288 -1.5720
   10MOL   H506 9164   3.871   3.391   5.799 -2.6861 -0.6067  0.1901
   10MOL   H507 9165   4.133   3.422   5.794  0.6773 -0.9536 -1.0734
   10MOL   H508 9166   4.307   3.547   5.715 -0.6976 -0.6654  0.4200
   10MOL   H509 9167   4.275   3.743   5.551 -0.3569  0.9740  1.8030
   10MOL   H510 9168   4.054   3.756   5.436  1.7716  2.4597  0.6500
   10MOL   H511 9169   3.823   3.742   5.472  0.7171 -0.1497 -0.1950
   10MOL   H512 9170   3.741   3.633   5.579 -0.7981 -0.3530 -1.3608
   10MOL   H513 9171   3.742   3.463   5.431 -1.2656  0.5849  0.1950
   10MOL   H514 9172   3.766   3.427   5.114 -1.8202 -1.6804  1.4187
   10MOL   H515 9173   3.755   3.358   5.267  0.3762 -2.3912 -0.9469
   10MOL   H516 9174   4.010   3.331   5.290 -1.2496  0.4542  0.7485
   10MOL   H517 9175   4.010   3.383   5.119  0.0743  2.7035  1.4233
   10MOL   H518 9176   3.849   3.129   5.184  0.1632 -1.8741 -0.9718
   10MOL   H519 9177   3.915   3.187   5.039  2.1726  1.8754  0.1283
   10MOL   H520 9178   4.141   3.128   5.134 -0.7714 -1.5063 -0.9494
   10MOL   H521 9179   4.064   3.091   5.290 -0.4188 -0.9370 -0.1699
   10MOL   H522 9180   3.923   2.932   5.164 -0.5371 -1.4133 -1.7146
   10MOL   H523 9181   4.013   2.965   5.017  0.0994 -1.2865 -0.2417
   10MOL   H524 9182   4.134   2.832   5.273 -1.9043  0.1490 -0.0205
   10MOL   H525 9183   4.222   2.852   5.124  0.9683 -1.1782  2.2275
   10MOL   H526 9184   3.961   2.698   5.154 -0.5193  0.6873 -1.9627
   10MOL   H527 9185   4.039   2.734   5.003  1.2553 -0.3547 -0.9173
   10MOL   H528 9186   4.250   2.608   5.100  0.1763 -1.5834 -1.4645
   10MOL   H529 9187   4.117   2.507   5.063 -0.2508 -0.0631  0.5920
   10MOL   N530 9188   4.249   2.565   5.349  0.4509 -0.3501 -0.5285
   10MOL   C531 9189   4.268   2.516   5.482  0.0325 -0.3017 -0.4154
   10MOL   C532 9190   4.395   2.568   5.544 -0.3459  0.3843  0.4056
   10MOL   C533 9191   4.503   2.480   5.529 -0.4313  0.2772 -0.7294
   10MOL   C534 9192   4.627   2.509   5.584 -0.1894  0.5849  0.3784
   10MOL   C535 9193   4.645   2.634   5.650  0.5305  0.1920  0.3368
   10MOL   C536 9194   4.538   2.727   5.652 -0.3247  0.0997  0.5506
   10MOL   C537 9195   4.409   2.697   5.595 -0.2554  0.4353  0.2523
   10MOL   C538 9196   4.300   2.805   5.581  0.5044  0.0907 -0.2773
   10MOL   N539 9197   4.217   2.810   5.694  0.0685 -0.3544 -0.0169
   10MOL   C540 9198   4.111   2.893   5.705 -0.1517  0.5642 -0.3563
   10MOL   O541 9199   4.071   2.961   5.612  0.6747  0.5438  0.5264
   10MOL   C542 9200   4.041   2.890   5.841  0.2791 -0.0724  0.2303
   10MOL   C543 9201   4.017   3.027   5.910  0.0958 -0.2076 -0.1654
   10MOL   C544 9202   4.119   3.140   5.880 -0.0841  0.5596 -0.3156
   10MOL   C545 9203   4.247   3.140   5.967 -0.0815 -0.3307  0.2458
   10MOL   C546 9204   4.336   3.264   5.946 -0.0593 -0.2964 -0.3018
   10MOL   C547 9205   4.418   3.272   5.810  0.7785 -0.1194 -1.0006
   10MOL   C548 9206   4.518   3.393   5.808  0.4660 -0.2945  0.4613
   10MOL   C549 9207   4.586   3.428   5.672 -0.5978  0.1106  0.7669
   10MOL   C550 9208   4.677   3.543   5.689 -0.1193 -0.2554 -0.0070
   10MOL   O551 9209   4.756   3.538   5.780 -0.1377  0.2461  0.4950
   10MOL   H552 9210   4.327   2.623   5.321  1.2198 -0.2824  1.6631
   10MOL   H553 9211   4.268   2.407   5.481  0.4893 -0.2964 -2.1725
   10MOL   H554 9212   4.179   2.545   5.538 -0.1172 -0.2258 -0.6914
   10MOL   H555 9213   4.487   2.383   5.483 -1.3782 -0.2640  0.6907
   10MOL   H556 9214   4.705   2.435   5.571 -1.3058 -0.6795  0.7067
   10MOL   H557 9215   4.735   2.646   5.709  1.4127 -0.2122 -0.8917
   10MOL   H558 9216   4.565   2.820   5.698 -0.3940 -0.6953  2.2467
   10MOL   H559 9217   4.236   2.788   5.494 -0.1474 -0.2537  0.2616
   10MOL   H560 9218   4.351   2.898   5.557 -3.7898  2.9621  1.1758
   10MOL   H561 9219   4.238   2.760   5.779  1.2966 -1.4943 -0.9772
   10MOL   H562 9220   4.106   2.832   5.907  4.0986  3.6139 -0.0355
   10MOL   H563 9221   3.947   2.840   5.820 -1.0563  2.6664 -0.6562
   10MOL   H564 9222   3.998   3.011   6.016  1.3315 -2.9272 -0.3029
   10MOL   H565 9223   3.922   3.067   5.873  0.1858 -1.8156 -2.1988
   10MOL   H566 9224   4.133   3.149   5.772 -0.6291  0.9554 -0.3583
   10MOL   H567 9225   4.066   3.234   5.897  1.0055  1.3662 -1.2564
   10MOL   H568 9226   4.224   3.126   6.072 -0.6964  1.4283  0.3464
   10MOL   H569 9227   4.298   3.045   5.948 -2.5838 -1.6697 -0.0932
   10MOL   H570 9228   4.291   3.358   5.978  0.5365 -0.0405 -0.2005
   10MOL   H571 9229   4.407   3.262   6.029  0.2696  2.8565 -0.4382
   10MOL   H572 9230   4.348   3.287   5.728  0.4726 -2.3126 -1.1799
   10MOL   H573 9231   4.470   3.176   5.804  0.6447 -0.3148  0.5925
   10MOL   H574 9232   4.454   3.478   5.832 -1.6197 -2.0998  1.4990
   10MOL   H575 9233   4.588   3.385   5.891  1.9229 -1.7264 -0.8492
   10MOL   H576 9234   4.509   3.447   5.596 -1.7856  0.6434  2.0858
   10MOL   H577 9235   4.635   3.333   5.652 -2.0093 -0.7800  1.4794
   10MOL   N578 9236   4.659   3.656   5.622  0.6040 -0.0063 -0.2468
   10MOL   C579 9237   4.769   3.759   5.619  0.1865 -0.0769 -0.2488
   10MOL   C580 9238   4.714   3.904   5.592 -0.5286 -0.4645  0.5727
   10MOL   C581 9239   4.582   3.933   5.604 -0.7460  0.3211 -0.1062
   10MOL   C582 9240   4.526   4.063   5.599  0.0559 -0.3685  0.8730
   10MOL   C583 9241   4.620   4.169   5.576  0.0385  0.4866 -0.9367
   10MOL   C584 9242   4.754   4.140   5.548  0.2514 -0.1506  1.0461
   10MOL   C585 9243   4.803   4.013   5.563  0.4082  0.7690  0.0634
   10MOL   C586 9244   4.955   3.996   5.556  0.0581 -0.4709  0.2820
   10MOL   N587 9245   5.021   4.016   5.688 -0.0905  0.4357 -0.2482
   10MOL   C588 9246   5.127   3.957   5.746 -0.5159 -0.3558  0.3022
   10MOL   O589 9247   5.184   3.865   5.687 -0.3628  0.0772  0.4168
   10MOL   C590 9248   5.170   4.019   5.880  0.1685  0.4939 -0.2489
   10MOL   C591 9249   5.321   3.989   5.906  0.3822  0.1404 -0.8147
   10MOL   C592 9250   5.377   4.064   6.022  0.2723  0.1891 -0.0967
   10MOL   C593 9251   5.536   4.053   6.045 -0.5625 -0.0205  0.6996
   10MOL   C594 9252   5.618   4.156   5.978  0.8176  1.0395  0.1005
   10MOL   C595 9253   5.633   4.151   5.820 -0.0360 -0.2716  0.0295
   10MOL   C596 9254   5.748   4.250   5.779  1.0453 -0.4240 -0.0583
   10MOL   C597 9255   5.884   4.202   5.818 -0.0243  0.2266  1.0863
   10MOL   C598 9256   6.002   4.282   5.756 -0.5015 -0.4265 -0.0411
   10MOL   O599 9257   6.038   4.384   5.809 -0.1378 -0.3875  0.3153
   10MOL   H600 9258   4.579   3.658   5.560  0.3536 -2.2631 -0.0386
   10MOL   H601 9259   4.827   3.734   5.531 -1.5493 -1.3685 -1.0471
   10MOL   H602 9260   4.833   3.763   5.708 -0.5905 -3.5242  0.5409
   10MOL   H603 9261   4.504   3.860   5.614 -0.8955  0.0994 -2.6928
   10MOL   H604 9262   4.425   4.090   5.623  0.1652 -0.3104  1.2767
   10MOL   H605 9263   4.588   4.271   5.588  2.4617  1.0609  1.1056
   10MOL   H606 9264   4.817   4.227   5.537  1.1638 -0.8925  0.3279
   10MOL   H607 9265   5.005   4.062   5.485 -1.1452  2.6308  2.2442
   10MOL   H608 9266   4.973   3.893   5.525 -2.7706 -0.3464 -2.0049
   10MOL   H609 9267   4.971   4.084   5.743  0.4306  1.5833 -1.1771
   10MOL   H610 9268   5.114   3.975   5.963 -0.2344  0.1495 -0.6989
   10MOL   H611 9269   5.147   4.126   5.883 -1.2544  0.1759  0.3483
   10MOL   H612 9270   5.380   4.022   5.820  0.4090  2.9993  0.2453
   10MOL   H613 9271   5.342   3.886   5.935  3.8288  0.8654 -0.4835
   10MOL   H614 9272   5.335   4.164   6.029 -0.2362 -0.2153  3.4927
   10MOL   H615 9273   5.331   4.015   6.108 -0.1172 -1.9799 -1.4944
   10MOL   H616 9274   5.557   4.065   6.151 -0.5826  0.3711  0.6583
   10MOL   H617 9275   5.569   3.950   6.032 -2.3189 -0.8212  2.3678
   10MOL   H618 9276   5.592   4.261   5.994  2.2997  1.5277 -0.5810
   10MOL   H619 9277   5.714   4.149   6.028  1.1863 -0.4832 -0.7984
   10MOL   H620 9278   5.541   4.169   5.763 -0.5922  0.8907  1.2685
   10MOL   H621 9279   5.654   4.049   5.787  0.3689 -0.3437  0.5060
   10MOL   H622 9280   5.755   4.256   5.671  1.3457  0.4145  0.0017
   10MOL   H623 9281   5.715   4.348   5.814  1.0072 -0.9816  1.5095
   10MOL   H624 9282   5.892   4.202   5.927 -0.1958 -1.1057  1.1022
   10MOL   H625 9283   5.898   4.096   5.798  2.9709  1.1686 -2.3049
   10MOL   N626 9284   6.074   4.223   5.662 -0.2793  0.0099  0.1230
   10MOL   C627 9285   6.197   4.282   5.601 -0.2406  0.3899  0.1146
   10MOL   C628 9286   6.195   4.279   5.450  0.2889  0.0900  0.1005
   10MOL   C629 9287   6.070   4.286   5.380  0.6020  0.2935 -0.2590
   10MOL   C630 9288   6.064   4.306   5.243  0.3157 -0.3078  0.1385
   10MOL   C631 9289   6.183   4.312   5.170  0.0465  0.2981  0.1305
   10MOL   C632 9290   6.310   4.305   5.228 -0.0193 -0.5264 -0.2631
   10MOL   C633 9291   6.316   4.292   5.372 -0.4557  0.2439  0.4215
   10MOL   C634 9292   6.457   4.281   5.439 -0.1522  0.4190 -0.5513
   10MOL   N635 9293   6.501   4.140   5.458  0.2861 -0.0469  0.0861
   10MOL   C636 9294   6.575   4.074   5.372  0.2835 -0.5233  0.2609
   10MOL   O637 9295   6.595   4.111   5.255 -0.1226 -0.2238 -0.8758
   10MOL   C638 9296   6.654   3.956   5.430 -0.5333  0.3110  0.7595
   10MOL   C639 9297   6.732   3.876   5.322 -0.1294  0.3790  0.8070
   10MOL   C640 9298   6.652   3.780   5.226  0.2002 -0.4610 -0.0914
   10MOL   C641 9299   6.721   3.719   5.110  0.2968  0.1818  0.0826
   10MOL   C642 9300   6.639   3.598   5.046  0.7839  0.0747  0.4640
   10MOL   C643 9301   6.702   3.534   4.917 -0.0448 -0.7188  0.0536
   10MOL   C644 9302   6.594   3.479   4.828  0.5061  0.2153  0.2318
   10MOL   C645 9303   6.643   3.429   4.690  0.0995  0.1284  0.1424
   10MOL   C646 9304   6.655   3.542   4.587  0.4526 -0.0395  0.4322
   10MOL   O647 9305   6.561   3.571   4.516  0.0217  0.4797  0.3648
   10MOL   H648 9306   6.041   4.130   5.643 -1.5035  0.0879  1.7299
   10MOL   H649 9307   6.276   4.213   5.630 -2.1420 -1.4986  1.0306
   10MOL   H650 9308   6.221   4.385   5.625 -2.6322  0.7295  1.2460
   10MOL   H651 9309   5.975   4.282   5.431  1.2247 -0.4263  0.8601
   10MOL   H652 9310   5.977   4.297   5.180 -0.3455 -1.6812  1.1975
   10MOL   H653 9311   6.171   4.323   5.064 -0.3868 -1.4728 -0.0134
   10MOL   H654 9312   6.405   4.310   5.177  0.6671  0.6784  1.1062
   10MOL   H655 9313   6.456   4.336   5.533 -0.6591  1.2211 -1.0149
   10MOL   H656 9314   6.525   4.333   5.372  1.7774 -1.1466  0.1623
   10MOL   H657 9315   6.494   4.115   5.556  0.5175  1.0994  0.4105
   10MOL   H658 9316   6.586   3.891   5.483 -0.7557  0.7533  1.0150
   10MOL   H659 9317   6.719   3.993   5.510  0.8697  3.6134 -1.7486
   10MOL   H660 9318   6.806   3.813   5.371  0.3087  0.9575  0.8974
   10MOL   H661 9319   6.796   3.944   5.266  1.6350 -0.0839  2.2258
   10MOL   H662 9320   6.610   3.697   5.283 -1.1793 -0.1822 -0.6761
   10MOL   H663 9321   6.564   3.833   5.189 -0.1417 -1.6278 -1.0141
   10MOL   H664 9322   6.760   3.796   5.043 -1.9184  1.6447  0.4295
   10MOL   H665 9323   6.817   3.676   5.139 -0.3872  0.1586  2.3646
   10MOL   H666 9324   6.629   3.518   5.119  2.2447 -1.0327 -0.5110
   10MOL   H667 9325   6.544   3.644   5.021  0.9437  0.1948  0.0687
   10MOL   H668 9326   6.777   3.462   4.950 -0.4764 -1.2712 -0.1718
   10MOL   H669 9327   6.757   3.617   4.872  5.5264 -3.9152  0.3889
   10MOL   H670 9328   6.541   3.399   4.879 -0.3197 -1.4888 -3.1078
   10MOL   H671 9329   6.508   3.544   4.811 -1.3974 -1.7885  1.8406
   10MOL   H672 9330   6.573   3.354   4.654  0.9131 -1.5697  1.9451
   10MOL   H673 9331   6.731   3.364   4.688  1.4113  1.8997 -1.6598
   10MOL   N674 9332   6.771   3.607   4.576 -0.1728 -0.4892  0.4709
   10MOL   C675 9333   6.790   3.719   4.476 -0.3919  0.4869 -0.1023
   10MOL   C676 9334   6.881   3.668   4.357 -0.7097 -0.3222  0.6610
   10MOL   C677 9335   7.016   3.671   4.385 -0.3070 -0.1502  0.3328
   10MOL   C678 9336   7.103   3.627   4.292  0.4635 -0.0203 -0.0955
   10MOL   C679 9337   7.059   3.580   4.168 -0.5385  0.4231  0.0210
   10MOL   C680 9338   6.920   3.573   4.141  0.6582 -0.7446 -0.0412
   10MOL   C681 9339   6.826   3.623   4.234 -0.1806  0.3612  0.2411
   10MOL   C682 9340   6.679   3.618   4.186 -0.2240 -0.5104  0.1627
   10MOL   N683 9341   6.666   3.646   4.042  0.0825  0.3414  0.1503
   10MOL   C684 9342   6.665   3.771   3.993  0.3535  0.3306  0.3256
   10MOL   O685 9343   6.680   3.874   4.049  0.2358 -0.1360 -0.6911
   10MOL   C686 9344   6.654   3.782   3.837  0.3411  0.1809  0.3397
   10MOL   C687 9345   6.770   3.861   3.768  0.1420  0.0911 -0.0522
   10MOL   C688 9346   6.908   3.796   3.766 -0.2845  0.4195 -0.7891
   10MOL   C689 9347   6.915   3.657   3.691 -0.7434 -0.2671 -0.5327
   10MOL   C690 9348   7.058   3.596   3.666 -0.3744  0.1016  1.1381
   10MOL   C691 9349   7.046   3.452   3.601  0.2281 -0.4148 -0.2542
   10MOL   C692 9350   6.942   3.369   3.667  0.1167  0.1887 -1.1263
   10MOL   C693 9351   6.971   3.330   3.819  0.4433 -0.3930 -0.0037
   10MOL   C694 9352   6.850   3.296   3.910  0.1466 -1.1380 -0.2515
   10MOL   O695 9353   6.737   3.330   3.872 -0.0577  0.2745  0.2797
   10MOL   H696 9354   6.847   3.593   4.641  0.0856 -1.5741 -0.0532
   10MOL   H697 9355   6.845   3.795   4.531 -2.4129  1.2638  0.9171
   10MOL   H698 9356   6.692   3.754   4.444 -1.5695 -2.1798  0.3976
   10MOL   H699 9357   7.053   3.713   4.478  1.4523 -1.7597  0.3819
   10MOL   H700 9358   7.210   3.628   4.306  0.4414  2.1234  0.1621
   10MOL   H701 9359   7.135   3.542   4.101 -0.3806  0.7184  0.0296
   10MOL   H702 9360   6.909   3.537   4.040 -0.3791 -0.2969 -0.0836
   10MOL   H703 9361   6.603   3.670   4.245 -0.4022 -0.2583 -0.2853
   10MOL   H704 9362   6.642   3.517   4.203  0.8526 -0.9191  0.1099
   10MOL   H705 9363   6.654   3.568   3.979 -2.1421  0.1566  0.7586
   10MOL   H706 9364   6.557   3.824   3.809  0.5878  1.1213  0.8864
   10MOL   H707 9365   6.647   3.681   3.797 -2.3953 -0.8652  3.2707
   10MOL   H708 9366   6.773   3.956   3.821 -1.2852  1.0241 -1.5930
   10MOL   H709 9367   6.742   3.870   3.663 -0.5077  1.0656  0.1937
   10MOL   H710 9368   6.975   3.864   3.714  0.1991  0.0862 -0.6066
   10MOL   H711 9369   6.958   3.790   3.863  1.9534  3.2050 -1.7185
   10MOL   H712 9370   6.867   3.595   3.766 -0.4757  1.5653  1.1911
   10MOL   H713 9371   6.838   3.657   3.613 -1.3150 -3.8266 -0.0534
   10MOL   H714 9372   7.118   3.660   3.602  1.5754 -1.6423  1.1242
   10MOL   H715 9373   7.119   3.582   3.756 -0.0661 -2.9546  0.5217
   10MOL   H716 9374   7.150   3.419   3.593  0.2668 -1.2786  3.2973
   10MOL   H717 9375   7.021   3.461   3.495  2.2419  3.6257 -0.5117
   10MOL   H718 9376   6.932   3.272   3.617 -0.8689 -0.1762 -0.2271
   10MOL   H719 9377   6.844   3.414   3.653  0.4381  0.6605 -1.9109
   10MOL   H720 9378   7.023   3.409   3.873 -3.6768  1.4884  1.3901
   10MOL   H721 9379   7.047   3.251   3.822  1.6127  0.5745 -2.6616
   10MOL   N722 9380   6.874   3.248   4.029  0.0133  0.7727  0.0971
   10MOL   C723 9381   6.776   3.231   4.130 -0.4750  0.6791 -0.3055
   10MOL   C724 9382   6.831   3.180   4.256  0.7058 -0.9026 -0.9321
   10MOL   C725 9383   6.828   3.266   4.370  0.2627  0.3695  0.3624
   10MOL   C726 9384   6.889   3.226   4.489  0.3354  0.9017  0.5976
   10MOL   C727 9385   6.934   3.092   4.499 -0.1135  0.3817 -0.3609
   10MOL   C728 9386   6.917   2.998   4.396 -0.1643 -0.0293 -0.8976
   10MOL   C729 9387   6.870   3.043   4.272 -0.7020  1.1595 -0.1123
   10MOL   C730 9388   6.859   2.936   4.161  0.2280 -0.4144 -0.0999
   10MOL   N731 9389   6.715   2.907   4.135 -0.4336  0.1029  0.1508
   10MOL   C732 9390   6.682   2.854   4.019 -0.0508 -0.0451  0.8431
   10MOL   O733 9391   6.764   2.826   3.931  0.1523 -0.0675 -0.5282
   10MOL   C734 9392   6.533   2.839   3.991  0.6222 -0.1941  0.9328
   10MOL   C735 9393   6.451   2.967   3.996 -0.3416 -0.4614 -0.3216
   10MOL   C736 9394   6.414   3.016   4.135  0.5620 -0.0791  0.0036
   10MOL   C737 9395   6.373   3.165   4.135 -0.0433 -0.2320 -0.0714
   10MOL   C738 9396   6.342   3.220   4.280 -0.0370  0.6907  0.2119
   10MOL   C739 9397   6.319   3.371   4.291  0.9595  0.8980  0.0601
   10MOL   C740 9398   6.279   3.415   4.430 -0.2263 -0.0644 -0.0202
   10MOL   C741 9399   6.266   3.564   4.452 -0.2916 -0.3809 -0.6626
   10MOL   C742 9400   6.244   3.595   4.601 -0.7612 -0.0437 -0.0986
   10MOL   O743 9401   6.209   3.505   4.678 -0.4601 -0.0558  0.4097
   10MOL   H744 9402   6.972   3.233   4.049 -0.7002 -3.2555  0.8887
   10MOL   H745 9403   6.685   3.176   4.105 -0.0960 -0.3221  0.5407
   10MOL   H746 9404   6.734   3.331   4.145 -0.8586  0.7653 -1.7900
   10MOL   H747 9405   6.776   3.360   4.358  2.2293  1.1334 -3.0043
   10MOL   H748 9406   6.894   3.294   4.573  0.6491  1.1879  0.3528
   10MOL   H749 9407   6.983   3.067   4.592 -0.5579  2.4355  0.4549
   10MOL   H750 9408   6.947   2.895   4.407 -2.0525 -0.4740  0.2782
   10MOL   H751 9409   6.897   2.844   4.205  1.3954 -0.6983 -1.6318
   10MOL   H752 9410   6.920   2.957   4.073 -0.0718  0.6608 -0.0567
   10MOL   H753 9411   6.648   2.944   4.201  1.2777  2.3747  0.6492
   10MOL   H754 9412   6.491   2.766   4.061  1.0600 -0.0793  1.3201
   10MOL   H755 9413   6.525   2.797   3.891  0.8086 -2.0567  1.6821
   10MOL   H756 9414   6.360   2.950   3.938 -0.2272 -0.0811 -0.6207
   10MOL   H757 9415   6.501   3.047   3.941 -1.5409 -1.1034 -2.3898
   10MOL   H758 9416   6.334   2.958   4.183  0.4309  1.4567  1.6981
   10MOL   H759 9417   6.501   3.010   4.201 -0.8520 -3.4696  1.7073
   10MOL   H760 9418   6.460   3.218   4.098 -1.0010  0.8739 -0.7538
   10MOL   H761 9419   6.283   3.185   4.077 -1.3562  3.2769  3.0068
   10MOL   H762 9420   6.258   3.161   4.317 -1.4084  1.0618 -2.2097
   10MOL   H763 9421   6.428   3.196   4.343  0.6926  0.2973 -0.9344
   10MOL   H764 9422   6.236   3.386   4.221  2.0123 -0.0850 -1.4375
   10MOL   H765 9423   6.404   3.423   4.248  0.6962  2.1741  1.0693
   10MOL   H766 9424   6.191   3.354   4.454 -0.1633 -0.0088  0.3518
   10MOL   H767 9425   6.355   3.377   4.499 -0.6752 -0.4768  0.2586
   10MOL   H768 9426   6.352   3.611   4.405  0.2147  0.3756  0.9664
   10MOL   H769 9427   6.178   3.600   4.399 -0.1779  2.1303  0.7731
   10MOL   N770 9428   6.248   3.718   4.643  0.5461 -0.0546 -0.0802
   10MOL   C771 9429   6.239   3.767   4.780 -0.8935  0.5605 -0.7288
   10MOL   C772 9430   6.358   3.851   4.828  0.4033  0.6165  0.4616
   10MOL   C773 9431   6.482   3.832   4.757  0.2822  0.4832 -0.3525
   10MOL   C774 9432   6.601   3.893   4.801 -0.0855 -0.7608 -0.1343
   10MOL   C775 9433   6.595   4.001   4.889  0.1066  0.0489 -0.0860
   10MOL   C776 9434   6.475   4.026   4.963 -0.4238  0.7835  0.1135
   10MOL   C777 9435   6.357   3.955   4.931 -0.2012  0.1836 -0.0083
   10MOL   C778 9436   6.233   3.976   5.017 -0.4534 -0.2072  0.3014
   10MOL   N779 9437   6.128   4.049   4.950  0.0753  0.0034 -0.1940
   10MOL   C780 9438   5.999   4.031   4.975 -0.1910 -0.1180  0.5164
   10MOL   O781 9439   5.951   3.946   5.049  0.0689 -0.8576  0.7611
   10MOL   C782 9440   5.903   4.120   4.896 -0.4177 -0.2761  0.4474
   10MOL   C783 9441   5.838   4.038   4.781 -0.3026  0.0975 -0.0619
   10MOL   C784 9442   5.761   4.135   4.692 -0.7095  0.6315 -0.6593
   10MOL   C785 9443   5.679   4.085   4.575 -0.6140  0.5366  0.2699
   10MOL   C786 9444   5.769   4.032   4.458 -0.4550 -0.3296 -0.0937
   10MOL   C787 9445   5.824   3.884   4.475 -0.5815 -0.0179 -0.8818
   10MOL   C788 9446   5.889   3.825   4.346  0.2522  0.1726  0.1337
   10MOL   C789 9447   5.795   3.806   4.227  0.3089 -0.4916  0.3217
   10MOL   C790 9448   5.825   3.672   4.151 -0.1194 -0.3493 -0.7089
   10MOL   O791 9449   5.826   3.565   4.214 -0.1985 -0.7959 -0.3689
   10MOL   H792 9450   6.268   3.792   4.577  1.2789  0.7840  1.0716
   10MOL   H793 9451   6.150   3.830   4.788 -2.1039 -1.3018  0.9687
   10MOL   H794 9452   6.217   3.693   4.858  0.2474  1.8642  0.8692
   10MOL   H795 9453   6.488   3.758   4.679  0.8476 -0.2572  0.3808
   10MOL   H796 9454   6.693   3.859   4.757 -0.7615 -2.0734 -0.5531
   10MOL   H797 9455   6.687   4.051   4.914 -1.8180  3.9446 -0.3968
   10MOL   H798 9456   6.480   4.097   5.045  0.2318 -0.1130  0.8681
   10MOL   H799 9457   6.266   4.042   5.098 -0.4695  2.6161 -1.9180
   10MOL   H800 9458   6.207   3.879   5.059  3.1076 -0.7915  1.3551
   10MOL   H801 9459   6.156   4.122   4.886 -0.9411  1.6953  1.2480
   10MOL   H802 9460   5.949   4.205   4.846 -0.0141 -0.8704 -0.2077
   10MOL   H803 9461   5.833   4.150   4.974  1.3537 -0.1675  2.0418
   10MOL   H804 9462   5.766   3.964   4.813  0.6896 -2.0581 -2.6874
   10MOL   H805 9463   5.921   3.993   4.727 -0.2697 -0.8036  0.7401
   10MOL   H806 9464   5.846   4.199   4.669 -0.1874  0.1015 -0.2238
   10MOL   H807 9465   5.693   4.197   4.750 -2.5864  0.1115 -2.2565
   10MOL   H808 9466   5.608   4.011   4.613 -0.7523  0.7246  0.3802
   10MOL   H809 9467   5.610   4.163   4.543  1.6667  2.6172  0.3103
   10MOL   H810 9468   5.709   4.025   4.368 -0.5868  1.8596 -0.2059
   10MOL   H811 9469   5.851   4.099   4.434 -1.4171  1.0151  0.2882
   10MOL   H812 9470   5.737   3.824   4.503 -0.6413  0.1438 -0.7232
   10MOL   H813 9471   5.908   3.878   4.545 -0.0474  3.0353 -1.2144
   10MOL   H814 9472   5.934   3.735   4.387  1.1968 -0.0610 -1.3819
   10MOL   H815 9473   5.976   3.884   4.316  1.1595 -0.8606  0.7189
   10MOL   H816 9474   5.801   3.891   4.158 -0.3953 -0.8825 -0.2246
   10MOL   H817 9475   5.693   3.793   4.263  0.2346  0.7647  0.5865
   10MOL   N818 9476   5.855   3.678   4.020 -0.1193 -0.2976 -0.5189
   10MOL   C819 9477   5.878   3.553   3.942 -0.0983  0.5981  0.2830
   10MOL   C820 9478   6.018   3.535   3.885  0.2954  0.7475 -0.3419
   10MOL   C821 9479   6.123   3.547   3.978 -0.0707 -1.0269  0.6357
   10MOL   C822 9480   6.257   3.516   3.941 -0.0425 -0.3902 -0.6211
   10MOL   C823 9481   6.289   3.485   3.811  0.5660 -0.6243  0.0840
   10MOL   C824 9482   6.184   3.478   3.713  0.3806 -0.1879 -0.6736
   10MOL   C825 9483   6.049   3.497   3.751 -0.3991  0.3378 -0.0465
   10MOL   C826 9484   5.943   3.489   3.647 -0.8428  1.0406 -0.1059
   10MOL   N827 9485   5.870   3.609   3.650 -0.3860  0.4319  0.0253
   10MOL   C828 9486   5.756   3.619   3.584  0.0798 -0.7929 -0.7205
   10MOL   O829 9487   5.713   3.533   3.510 -0.2644  0.1137 -0.2867
   10MOL   C830 9488   5.680   3.747   3.597  0.2576  0.4247 -0.1994
   10MOL   C831 9489   5.549   3.738   3.525  0.3538 -0.4858  0.0862
   10MOL   C832 9490   5.479   3.879   3.511 -0.1547  0.3430  0.1517
   10MOL   C833 9491   5.341   3.859   3.439 -0.3712  0.3895  0.5191
   10MOL   C834 9492   5.304   3.977   3.345 -0.6200  0.0980  0.7079
   10MOL   C835 9493   5.157   3.973   3.290 -0.8281 -0.5684  0.2659
   10MOL   C836 9494   5.117   4.100   3.212  0.2803 -0.5332  0.0826
   10MOL   C837 9495   4.984   4.082   3.131  0.1137 -0.0895 -0.1655
   10MOL   C838 9496   4.870   4.056   3.229 -0.0703  0.0218 -0.0248
   10MOL   O839 9497   4.823   4.156   3.281 -0.5285 -0.1792  0.1866
   10MOL   H840 9498   5.840   3.764   3.970 -0.7398 -0.6141 -0.8916
   10MOL   H841 9499   5.848   3.462   3.994  2.0576 -1.0640 -1.3401
   10MOL   H842 9500   5.801   3.561   3.864  0.2722 -1.3082 -0.2961
   10MOL   H843 9501   6.097   3.579   4.078  3.1942  2.2643  0.5614
   10MOL   H844 9502   6.331   3.525   4.019  0.6541  0.1604 -1.3411
   10MOL   H845 9503   6.389   3.463   3.776  0.0621 -1.6649 -0.7506
   10MOL   H846 9504   6.212   3.445   3.614 -2.3831 -2.1401 -0.8712
   10MOL   H847 9505   5.871   3.408   3.659 -0.0784 -0.0951 -2.7458
   10MOL   H848 9506   5.990   3.478   3.549 -2.1575  1.4080 -0.7856
   10MOL   H849 9507   5.907   3.685   3.706  1.4077  0.6968 -1.4535
   10MOL   H850 9508   5.745   3.824   3.556  1.6338 -0.6075 -0.0264
   10MOL   H851 9509   5.674   3.769   3.704 -0.4013  0.3599 -0.2202
   10MOL   H852 9510   5.481   3.674   3.581  0.4497  0.6784  1.5493
   10MOL   H853 9511   5.548   3.685   3.429  0.3420  1.9434 -1.2921
   10MOL   H854 9512   5.534   3.944   3.443  1.6535 -0.8076  0.4628
   10MOL   H855 9513   5.471   3.933   3.605 -1.6671  1.4273 -0.5888
   10MOL   H856 9514   5.353   3.777   3.368 -0.1905  1.2987 -0.5245
   10MOL   H857 9515   5.251   3.828   3.492  0.5677 -1.6389  0.9778
   10MOL   H858 9516   5.327   4.065   3.405  2.4333  0.5863 -1.0318
   10MOL   H859 9517   5.375   3.984   3.262 -0.3483 -1.9188  0.7446
   10MOL   H860 9518   5.088   3.959   3.374 -2.1668  0.2509 -0.6892
   10MOL   H861 9519   5.152   3.887   3.223 -0.7058 -1.6445  1.6153
   10MOL   H862 9520   5.192   4.125   3.137 -1.1987 -0.3168 -1.3610
   10MOL   H863 9521   5.096   4.184   3.277 -3.2285 -1.8604  0.7897
   10MOL   H864 9522   4.963   4.163   3.062  1.4969 -1.0501 -1.7599
   10MOL   H865 9523   5.001   3.993   3.070 -1.0464 -0.0132 -0.6027
   10MOL   N866 9524   4.817   3.935   3.251 -0.1172 -0.8138 -0.0873
   10MOL   C867 9525   4.705   3.902   3.336  0.3146  0.6452  0.3573
   10MOL   C868 9526   4.581   3.855   3.262 -0.4542  0.0786 -0.0313
   10MOL   C869 9527   4.571   3.721   3.221 -0.2920 -0.2225 -0.3897
   10MOL   C870 9528   4.446   3.674   3.170 -0.4466 -0.1881 -0.2543
   10MOL   C871 9529   4.339   3.767   3.161 -0.8011 -0.4026  0.0488
   10MOL   C872 9530   4.351   3.897   3.200  0.5460 -0.4340 -0.4437
   10MOL   C873 9531   4.473   3.945   3.244 -0.0662 -0.0947  0.3566
   10MOL   C874 9532   4.466   4.092   3.291 -0.2410 -0.6782 -0.1600
   10MOL   N875 9533   4.561   4.178   3.218  0.1858 -0.6165  0.0054
   10MOL   C876 9534   4.525   4.251   3.110  0.3574 -0.1665  0.2689
   10MOL   O877 9535   4.410   4.246   3.055  0.1485  0.0737 -0.9925
   10MOL   C878 9536   4.642   4.330   3.043  0.7744 -0.0155 -0.5171
   10MOL   C879 9537   4.691   4.271   2.907  0.2577  0.2881 -0.6995
   10MOL   C880 9538   4.804   4.345   2.826  0.5848  0.0189 -0.2057
   10MOL   C881 9539   4.751   4.481   2.775  1.1095 -0.0334 -0.2940
   10MOL   C882 9540   4.852   4.556   2.682 -0.3695 -0.4057  0.5749
   10MOL   C883 9541   4.815   4.692   2.619 -0.1094  0.1281 -0.0119
   10MOL   C884 9542   4.940   4.768   2.552  0.1705 -0.1760 -0.3867
   10MOL   C885 9543   4.911   4.916   2.498 -0.3428  0.3425  0.3163
   10MOL   C886 9544   5.008   4.954   2.388  0.2823  0.4531 -0.2846
   10MOL   O887 9545   5.131   4.932   2.403  0.4834  0.5316 -0.1899
   10MOL   H888 9546   4.859   3.851   3.215  0.1549 -1.8005  2.4581
   10MOL   H889 9547   4.732   3.820   3.402  0.1819  0.0716 -0.2933
   10MOL   H890 9548   4.684   3.987   3.401 -0.5722  0.5931  0.1421
   10MOL   H891 9549   4.639   3.638   3.236  1.0562  0.7672 -0.9317
   10MOL   H892 9550   4.427   3.575   3.130 -2.8074 -0.0176  0.3348
   10MOL   H893 9551   4.245   3.734   3.120 -1.1535  1.1666 -0.4765
   10MOL   H894 9552   4.268   3.963   3.182 -0.2526 -1.1299  0.5988
   10MOL   H895 9553   4.478   4.092   3.399 -1.2537  0.4403 -0.0369
   10MOL   H896 9554   4.366   4.129   3.269 -0.0733 -1.0542 -1.6130
   10MOL   H897 9555   4.657   4.186   3.248 -0.6445 -0.6520  2.7979
   10MOL   H898 9556   4.722   4.330   3.117 -0.3458 -4.5795  0.8425
   10MOL   H899 9557   4.613   4.435   3.036  0.9432  0.1220  0.7543
   10MOL   H900 9558   4.608   4.257   2.839  0.6957  0.6658 -1.3187
   10MOL   H901 9559   4.731   4.173   2.935  0.2604  0.7146  0.8169
   10MOL   H902 9560   4.897   4.354   2.883  2.1503 -2.5397 -2.2187
   10MOL   H903 9561   4.835   4.289   2.738 -0.7330 -2.9385  1.1359
   10MOL   H904 9562   4.661   4.468   2.715  0.8879  0.6133 -0.1117
   10MOL   H905 9563   4.713   4.550   2.850 -1.6761 -0.5136 -1.1774
   10MOL   H906 9564   4.948   4.560   2.735 -0.4369 -2.2213  0.8939
   10MOL   H907 9565   4.879   4.502   2.591 -0.5764  0.4235  0.0202
   10MOL   H908 9566   4.780   4.762   2.695  3.3478  1.2380  0.6497
   10MOL   H909 9567   4.738   4.686   2.543 -2.2731  0.2947  2.1103
   10MOL   H910 9568   5.025   4.766   2.619 -0.6513  2.4035  0.8102
   10MOL   H911 9569   4.963   4.705   2.466  1.4791 -1.4466  0.8793
   10MOL   H912 9570   4.805   4.927   2.471 -0.4373 -2.4371 -0.6028
   10MOL   H913 9571   4.923   4.987   2.581 -1.6456  0.1799  0.6531
   10MOL   N914 9572   4.948   5.011   2.278 -0.2296 -0.3151  0.6600
   10MOL   C915 9573   5.026   5.046   2.167  0.7982 -1.1286 -0.3954
   10MOL   C916 9574   5.012   5.198   2.139 -0.1351  0.2448  0.0197
   10MOL   C917 9575   4.903   5.248   2.059 -0.0216 -0.0640 -0.0506
   10MOL   C918 9576   4.886   5.378   2.034  0.1037 -0.6622  0.2268
   10MOL   C919 9577   4.983   5.470   2.076  0.0013  0.2016 -0.2086
   10MOL   C920 9578   5.090   5.425   2.151 -0.7784  0.2446 -0.4771
   10MOL   C921 9579   5.108   5.287   2.184 -0.0338 -0.5351  0.3135
   10MOL   C922 9580   5.220   5.246   2.283 -0.2896 -0.7172  0.1685
   10MOL   N923 9581   5.303   5.356   2.341 -0.3910  0.1063 -0.6462
   10MOL   C924 9582   5.276   5.421   2.462 -1.3660  0.0911 -0.4618
   10MOL   O925 9583   5.193   5.379   2.546  0.6409  0.5771 -0.3695
   10MOL   C926 9584   5.349   5.553   2.483  0.3250 -0.7322  0.5274
   10MOL   C927 9585   5.490   5.539   2.544  0.3386 -0.0865 -0.1286
   10MOL   C928 9586   5.556   5.665   2.591 -0.2514 -0.2347  0.0128
   10MOL   C929 9587   5.700   5.646   2.640 -0.2867  0.0101  0.0334
   10MOL   C930 9588   5.773   5.782   2.666  0.3381 -0.4351 -0.0400
   10MOL   C931 9589   5.923   5.766   2.675  0.4074  0.2248  0.2005
   10MOL   C932 9590   6.013   5.891   2.671 -0.5523 -0.8252 -0.7805
   10MOL   C933 9591   6.159   5.860   2.651  0.3336 -0.0835 -0.1232
   10MOL   C934 9592   6.203   5.816   2.512 -0.3407  0.1698 -0.5195
   10MOL   O935 9593   6.229   5.698   2.491 -0.1152  0.4262  0.2756
   10MOL   H936 9594   4.853   5.043   2.279  0.5355  2.2216 -1.8231
   10MOL   H937 9595   5.130   5.017   2.174  1.8151  2.3364 -0.6272
   10MOL   H938 9596   4.989   4.990   2.081  1.9118 -1.5473 -0.6059
   10MOL   H939 9597   4.839   5.175   2.013  0.8704 -0.2740 -0.9738
   10MOL   H940 9598   4.807   5.406   1.966 -0.5769 -0.9367  0.9126
   10MOL   H941 9599   4.981   5.573   2.041  0.7169  0.4193  0.3873
   10MOL   H942 9600   5.174   5.486   2.180 -0.0187 -1.0049  0.0090
   10MOL   H943 9601   5.290   5.169   2.253 -0.1325 -1.3285  2.0298
   10MOL   H944 9602   5.162   5.210   2.368 -0.1310 -2.7124 -0.5591
   10MOL   H945 9603   5.369   5.395   2.275 -1.7265  1.8608 -0.9779
   10MOL   H946 9604   5.291   5.611   2.555  0.4592 -0.0568  0.0853
   10MOL   H947 9605   5.354   5.618   2.396  1.3789 -2.0466 -0.4111
   10MOL   H948 9606   5.552   5.497   2.465  0.4017  1.1301 -0.7464
   10MOL   H949 9607   5.501   5.461   2.620 -0.8749  2.4554  2.7836
   10MOL   H950 9608   5.546   5.732   2.506  0.2692 -0.9121 -0.5844
   10MOL   H951 9609   5.492   5.704   2.670 -0.2012 -3.3751  1.6632
   10MOL   H952 9610   5.717   5.576   2.722  4.1996  0.7718 -0.0945
   10MOL   H953 9611   5.741   5.588   2.557  1.0431  1.4946 -0.3968
   10MOL   H954 9612   5.734   5.834   2.753 -0.9511 -0.0232 -0.8473
   10MOL   H955 9613   5.752   5.850   2.583  0.0871  0.4869  0.7795
   10MOL   H956 9614   5.952   5.710   2.764 -2.8521  1.5620  2.1911
   10MOL   H957 9615   5.949   5.711   2.585  1.1391 -1.6015  1.4966
   10MOL   H958 9616   6.007   5.960   2.756 -0.0521  0.1815 -1.5579
   10MOL   H959 9617   5.982   5.951   2.585  2.4345  1.6932 -0.1930
   10MOL   H960 9618   6.185   5.792   2.732 -1.7030  0.3146  0.9024
   10MOL   H961 9619   6.223   5.949   2.653  0.6939 -0.3490  0.2191
   10MOL   H962 9620   6.200   5.894   2.436 -0.9756  1.1771  0.5249
   11MOL     N1 9621   2.154   0.867   2.594 -0.1258 -0.1125  0.3506
   11MOL     C2 9622   2.234   0.792   2.687  0.4719  0.0991 -0.0216
   11MOL     C3 9623   2.164   0.688   2.774 -0.2251  0.6314 -0.3101
   11MOL     C4 9624   2.145   0.558   2.723  0.0866 -0.4582 -0.1094
   11MOL     C5 9625   2.062   0.463   2.784 -0.3678  0.2625  0.2485
   11MOL     C6 9626   1.995   0.500   2.897 -0.1932 -0.0385 -0.6293
   11MOL     C7 9627   2.007   0.625   2.950  0.0119 -0.2855 -0.0607
   11MOL     C8 9628   2.093   0.724   2.892 -0.9002 -0.3252  0.2652
   11MOL     C9 9629   2.110   0.860   2.956 -0.3577 -0.3064 -0.3417
   11MOL    N10 9630   2.063   0.870   3.096  0.6192 -0.2711 -0.4202
   11MOL    C11 9631   1.949   0.920   3.142  0.0373 -0.3631  0.6119
   11MOL    O12 9632   1.887   1.003   3.070 -0.0198  0.1719  0.9149
   11MOL    C13 9633   1.905   0.878   3.281 -0.0183  0.0193  0.2787
   11MOL    C14 9634   1.857   0.735   3.305 -1.0010  0.3658 -0.4611
   11MOL    C15 9635   1.722   0.693   3.245 -0.0761 -0.0766 -0.5223
   11MOL    C16 9636   1.701   0.542   3.241  0.4950  0.5007  1.0013
   11MOL    C17 9637   1.580   0.495   3.151 -0.4072  0.6009 -0.5524
   11MOL    C18 9638   1.443   0.560   3.195  0.2216  0.3128  0.0575
   11MOL    C19 9639   1.392   0.530   3.339  0.6916  0.1806 -0.4309
   11MOL    C20 9640   1.292   0.634   3.392 -0.3274  0.3294 -0.1636
   11MOL    C21 9641   1.341   0.772   3.435 -1.0184  0.1327  0.2001
   11MOL    O22 9642   1.326   0.863   3.355  0.1323  0.0540  0.1174
   11MOL    H23 9643   2.132   0.964   2.615 -2.8888 -0.1493 -1.9541
   11MOL    H24 9644   2.328   0.772   2.636  1.2325  1.0832  0.9625
   11MOL    H25 9645   2.247   0.877   2.754  0.7687 -0.2314  0.3410
   11MOL    H26 9646   2.209   0.532   2.640 -0.5171  0.1336 -0.7703
   11MOL    H27 9647   2.057   0.360   2.753 -2.3658 -0.3734  2.4586
   11MOL    H28 9648   1.937   0.424   2.946  0.9717 -0.9075 -0.5644
   11MOL    H29 9649   1.947   0.648   3.037 -0.4950  2.1097 -0.9886
   11MOL    H30 9650   2.056   0.925   2.888 -0.0843  0.2280 -0.0443
   11MOL    H31 9651   2.215   0.887   2.953 -0.4684  0.0220 -1.1866
   11MOL    H32 9652   2.121   0.829   3.169  0.2687  1.2393  0.7438
   11MOL    H33 9653   1.828   0.949   3.310  0.0963  0.0480  0.5139
   11MOL    H34 9654   1.996   0.894   3.339  0.8355 -1.8524 -0.5040
   11MOL    H35 9655   1.855   0.719   3.413  2.3115 -1.1053 -0.5405
   11MOL    H36 9656   1.933   0.667   3.265  0.6350  0.6171  2.1164
   11MOL    H37 9657   1.648   0.733   3.315  0.1085  1.7973 -1.3682
   11MOL    H38 9658   1.695   0.746   3.153  0.0355  0.6837 -0.1230
   11MOL    H39 9659   1.791   0.504   3.192 -0.7074 -0.8866 -0.2007
   11MOL    H40 9660   1.702   0.513   3.346 -0.4521  0.2656  0.9494
   11MOL    H41 9661   1.600   0.501   3.044  3.3136 -1.3430 -0.0302
   11MOL    H42 9662   1.593   0.389   3.168  1.4164  1.1856  1.9916
   11MOL    H43 9663   1.357   0.546   3.129  1.0173  1.8933 -1.3415
   11MOL    H44 9664   1.448   0.668   3.199 -1.2414  0.3495  1.2730
   11MOL    H45 9665   1.360   0.427   3.355 -1.8759  0.7514 -1.7030
   11MOL    H46 9666   1.482   0.528   3.402  1.4523  1.1418 -1.4544
   11MOL    H47 9667   1.222   0.599   3.467  0.2486  1.6131  0.9828
   11MOL    H48 9668   1.242   0.641   3.295  0.8034  2.6107 -0.6089
   11MOL    H49 9669   2.200   0.874   2.504 -0.3833 -2.1875  0.0336
   11MOL    N50 9670   1.398   0.783   3.553 -0.0206  0.2766 -0.0214
   11MOL    C51 9671   1.442   0.915   3.596 -0.4522 -0.4216  0.0289
   11MOL    C52 9672   1.483   0.933   3.742 -0.1874  0.0032  0.0935
   11MOL    C53 9673   1.401   1.002   3.835 -0.3434 -0.1242 -0.5207
   11MOL    C54 9674   1.421   1.010   3.972  0.2802 -0.2519  0.2803
   11MOL    C55 9675   1.537   0.943   4.017  0.1465 -0.6507 -0.9520
   11MOL    C56 9676   1.618   0.873   3.931 -0.1026 -0.1301 -0.0064
   11MOL    C57 9677   1.597   0.863   3.794  0.0050 -0.4210 -0.5303
   11MOL    C58 9678   1.695   0.784   3.701 -0.1989  0.5559 -0.0714
   11MOL    N59 9679   1.709   0.649   3.746 -0.1604  0.0586  0.1058
   11MOL    C60 9680   1.622   0.548   3.735 -0.2199 -0.7314  0.2309
   11MOL    O61 9681   1.517   0.550   3.677 -0.0537  0.1676 -0.2747
   11MOL    C62 9682   1.667   0.424   3.817  0.8464 -0.4058  0.0194
   11MOL    C63 9683   1.624   0.298   3.746 -0.0244  0.5525  0.2508
   11MOL    C64 9684   1.700   0.271   3.610 -0.2649 -0.4869 -0.2474
   11MOL    C65 9685   1.722   0.120   3.588 -0.9408 -0.8016  0.1190
   11MOL    C66 9686   1.774   0.091   3.448  0.0073  0.0772 -0.8424
   11MOL    C67 9687   1.782   7.736   3.417 -0.7093  0.9343  0.0197
   11MOL    C68 9688   1.905   7.666   3.476 -0.0043  0.2311  0.1631
   11MOL    C69 9689   1.886   7.512   3.487 -0.0972  0.8727  0.6053
   11MOL    C70 9690   1.909   7.447   3.345  0.1389  0.2478  0.4395
   11MOL    O71 9691   1.902   7.520   3.247  0.4149 -0.1397 -0.0963
   11MOL    H72 9692   1.424   0.703   3.608  0.2590  0.0823 -0.4351
   11MOL    H73 9693   1.366   0.986   3.563  0.2147  0.0180 -0.5936
   11MOL    H74 9694   1.529   0.940   3.535  0.5691 -1.1156  1.1921
   11MOL    H75 9695   1.312   1.054   3.803  0.4564  0.5503 -1.6842
   11MOL    H76 9696   1.354   1.065   4.036 -0.6897  0.6687 -1.4948
   11MOL    H77 9697   1.555   0.954   4.123 -1.3460  1.2929 -0.8773
   11MOL    H78 9698   1.701   0.816   3.969  0.2820 -0.3104 -1.1056
   11MOL    H79 9699   1.789   0.840   3.698 -0.8848  1.8001  1.0221
   11MOL    H80 9700   1.652   0.774   3.601  0.1235 -0.6142 -0.0940
   11MOL    H81 9701   1.772   0.631   3.823  0.1912  0.1603 -0.1569
   11MOL    H82 9702   1.615   0.427   3.913 -1.0263 -2.2397 -0.8932
   11MOL    H83 9703   1.772   0.425   3.844  1.3545 -0.9097 -1.8536
   11MOL    H84 9704   1.517   0.299   3.727 -0.0582 -0.2045  0.3682
   11MOL    H85 9705   1.646   0.225   3.825  2.5275  0.2073 -0.7161
   11MOL    H86 9706   1.657   0.328   3.527  0.0488  2.7118  1.7116
   11MOL    H87 9707   1.801   0.310   3.622  0.4457 -3.1692  3.0785
   11MOL    H88 9708   1.800   0.076   3.649 -0.2852 -1.0890 -0.9094
   11MOL    H89 9709   1.624   0.071   3.592 -0.7003 -1.2366  0.6596
   11MOL    H90 9710   1.707   0.140   3.379 -0.3082  2.2150  0.9379
   11MOL    H91 9711   1.876   0.130   3.439  0.3963 -1.0055 -1.2287
   11MOL    H92 9712   1.786   7.737   3.308  1.8211 -1.1674  0.0490
   11MOL    H93 9713   1.690   7.689   3.452  1.4135 -2.2334  1.5320
   11MOL    H94 9714   1.918   7.700   3.579 -0.6284  0.5804  0.1273
   11MOL    H95 9715   1.995   7.702   3.426 -1.3460  0.8349 -1.8869
   11MOL    H96 9716   1.784   7.483   3.512  0.0381 -3.2298 -3.0296
   11MOL    H97 9717   1.953   7.470   3.561  1.1765 -0.2918 -1.1697
   11MOL    N98 9718   1.958   7.324   3.348  0.1923  0.0940  0.1385
   11MOL    C99 9719   2.013   7.253   3.230 -0.1044  0.4251  0.1143
   11MOL   C100 9720   2.168   7.271   3.223 -0.3819 -0.6695 -0.3169
   11MOL   C101 9721   2.245   7.207   3.323  0.2823  0.1519  0.5550
   11MOL   C102 9722   2.386   7.197   3.319  0.3137  0.2737  1.1002
   11MOL   C103 9723   2.451   7.247   3.200  0.1976 -0.2584  0.0560
   11MOL   C104 9724   2.375   7.321   3.103  0.1364 -0.0483  0.0650
   11MOL   C105 9725   2.236   7.320   3.109  0.3555  0.4349 -0.1052
   11MOL   C106 9726   2.164   7.399   3.000 -0.4273 -0.6391 -0.3214
   11MOL   N107 9727   2.096   7.518   3.055  0.3067  0.3241  0.3077
   11MOL   C108 9728   2.103   7.644   3.007  0.6566 -0.6116 -0.4435
   11MOL   O109 9729   2.184   7.674   2.922 -0.6293  0.1208  0.2957
   11MOL   C110 9730   2.000   7.753   3.050  0.3100 -0.6997 -0.0072
   11MOL   C111 9731   2.029   0.105   2.997  0.5467  0.7425 -0.1366
   11MOL   C112 9732   2.110   0.200   3.079 -0.3615  0.7416  0.2614
   11MOL   C113 9733   2.024   0.261   3.188 -0.1238  0.3285 -0.3085
   11MOL   C114 9734   2.111   0.339   3.285 -0.5888  0.1041  0.3978
   11MOL   C115 9735   2.039   0.401   3.408  0.1701  0.1219 -0.4028
   11MOL   C116 9736   2.119   0.513   3.488  0.4456 -0.8161 -0.6094
   11MOL   C117 9737   2.039   0.584   3.595  0.0424 -0.0696 -0.9804
   11MOL   C118 9738   2.067   0.522   3.732  0.4754  0.0887 -0.4563
   11MOL   O119 9739   2.061   0.397   3.754  0.4598  0.2342 -0.3424
   11MOL   H120 9740   1.986   7.288   3.438  1.8591  2.3341  0.5735
   11MOL   H121 9741   2.005   7.147   3.253 -0.3926  0.0160 -1.8175
   11MOL   H122 9742   1.965   7.274   3.135  0.9804 -1.3019 -0.8403
   11MOL   H123 9743   2.209   7.164   3.415  0.1161 -1.4589 -0.2508
   11MOL   H124 9744   2.445   7.169   3.405  1.6944 -1.5438 -0.3918
   11MOL   H125 9745   2.559   7.248   3.193  0.0938  0.2901 -1.8065
   11MOL   H126 9746   2.424   7.366   3.018  0.4707 -0.1220  0.2171
   11MOL   H127 9747   2.090   7.337   2.950 -2.2379  0.9512  0.2807
   11MOL   H128 9748   2.234   7.432   2.923 -0.2050  0.8289  0.4735
   11MOL   H129 9749   2.051   7.505   3.144  1.9288  2.0699  1.4008
   11MOL   H130 9750   2.011   7.763   3.158 -3.9690 -0.1862  0.4610
   11MOL   H131 9751   1.899   7.712   3.042  0.2211 -0.4272 -0.3119
   11MOL   H132 9752   1.934   0.152   2.972  0.8039  1.3625  0.0596
   11MOL   H133 9753   2.078   0.102   2.900  0.7780  3.6465 -0.1557
   11MOL   H134 9754   2.202   0.154   3.115  0.2602  1.3999 -0.4690
   11MOL   H135 9755   2.142   0.275   3.007 -0.8351 -0.5800 -1.3788
   11MOL   H136 9756   1.954   0.330   3.140  2.0482  0.0361 -4.1060
   11MOL   H137 9757   1.975   0.179   3.239  1.8861 -0.4664  0.3846
   11MOL   H138 9758   2.193   0.285   3.332 -1.5817 -0.6470  1.3056
   11MOL   H139 9759   2.155   0.423   3.232 -0.8372 -0.6834 -1.0718
   11MOL   H140 9760   2.020   0.325   3.484 -0.2678  0.2582 -0.3758
   11MOL   H141 9761   1.946   0.435   3.363 -0.0777 -2.6531 -2.0864
   11MOL   H142 9762   2.221   0.492   3.522 -0.0233 -1.9908  0.1092
   11MOL   H143 9763   2.133   0.585   3.407  0.1055  0.1373  0.1614
   11MOL   H144 9764   1.934   0.576   3.566 -0.4316 -0.8017  0.9125
   11MOL   H145 9765   2.066   0.690   3.603  1.4235 -0.3212 -2.0915
   11MOL   N146 9766   2.095   0.611   3.828 -0.3756 -0.2343  0.3626
   11MOL   C147 9767   2.143   0.565   3.959 -0.2470  0.7832 -0.3435
   11MOL   C148 9768   2.208   0.677   4.029 -0.4961 -0.7240  0.4450
   11MOL   C149 9769   2.353   0.694   4.017  0.0328 -0.4010 -0.5108
   11MOL   C150 9770   2.419   0.802   4.067 -0.5258  0.0397 -0.1668
   11MOL   C151 9771   2.354   0.889   4.151  0.1994  0.3461 -0.5569
   11MOL   C152 9772   2.214   0.873   4.182  0.1757  0.0453 -0.7144
   11MOL   C153 9773   2.142   0.773   4.110 -0.6237 -0.3072  0.2990
   11MOL   C154 9774   1.994   0.753   4.137  0.3752  0.0619  0.1010
   11MOL   N155 9775   1.944   0.865   4.221  0.0987  0.0254  0.0674
   11MOL   C156 9776   1.819   0.872   4.262  0.4221  0.1488  0.0678
   11MOL   O157 9777   1.735   0.797   4.223 -0.0710 -0.4192  0.0164
   11MOL   C158 9778   1.798   0.980   4.369 -0.2677 -0.0691  0.3083
   11MOL   C159 9779   1.691   1.083   4.331 -0.1936  0.2831 -0.5020
   11MOL   C160 9780   1.730   1.175   4.218 -0.8083  0.0878  0.4922
   11MOL   C161 9781   1.618   1.272   4.178  0.2201 -0.0701  0.4506
   11MOL   C162 9782   1.657   1.348   4.052  0.3276  0.4259  0.0955
   11MOL   C163 9783   1.558   1.458   4.010 -0.5393  0.5466 -0.1405
   11MOL   C164 9784   1.596   1.534   3.887 -0.2196  0.5591 -0.3572
   11MOL   C165 9785   1.483   1.611   3.815  0.4440  0.4258 -0.2702
   11MOL   C166 9786   1.532   1.664   3.678  0.1342  0.0732 -1.1551
   11MOL   O167 9787   1.604   1.596   3.607 -0.1120 -0.3976 -0.0701
   11MOL   H168 9788   2.094   0.709   3.804  1.5503 -0.4847 -0.8432
   11MOL   H169 9789   2.216   0.489   3.932 -1.8472 -1.0484  0.3164
   11MOL   H170 9790   2.060   0.519   4.014 -2.9565  1.7231 -3.4668
   11MOL   H171 9791   2.397   0.619   3.953 -1.4344 -1.6898 -0.0489
   11MOL   H172 9792   2.525   0.817   4.054 -0.8764  2.4293 -0.4946
   11MOL   H173 9793   2.418   0.970   4.185  1.1664 -0.9805  0.8368
   11MOL   H174 9794   2.180   0.944   4.257 -0.2266 -0.4475 -0.4316
   11MOL   H175 9795   1.977   0.657   4.186  0.1366 -0.9343 -1.8534
   11MOL   H176 9796   1.944   0.762   4.040 -0.4531 -0.6131  0.4552
   11MOL   H177 9797   2.014   0.917   4.272  1.8682 -0.7571 -1.5253
   11MOL   H178 9798   1.892   1.032   4.387  0.3125 -1.9114  2.8271
   11MOL   H179 9799   1.772   0.937   4.466 -0.5180  0.8500  0.6556
   11MOL   H180 9800   1.695   1.155   4.413  1.6592  0.8882 -1.0959
   11MOL   H181 9801   1.590   1.044   4.320 -0.5509  1.2472 -0.6813
   11MOL   H182 9802   1.828   1.221   4.231 -0.5014 -0.7721  1.2912
   11MOL   H183 9803   1.735   1.121   4.124  1.1860  2.8141 -1.0484
   11MOL   H184 9804   1.526   1.214   4.179  1.1789 -1.7012 -1.5964
   11MOL   H185 9805   1.605   1.347   4.256 -1.2466 -0.9255  1.0500
   11MOL   H186 9806   1.755   1.392   4.073 -0.2564  1.7721  0.0354
   11MOL   H187 9807   1.664   1.283   3.965  0.0565  1.6473 -0.8604
   11MOL   H188 9808   1.559   1.537   4.085 -0.2238  1.0413 -0.6623
   11MOL   H189 9809   1.455   1.424   4.002 -0.7255  1.9179 -5.9956
   11MOL   H190 9810   1.668   1.609   3.920 -0.4340  0.6980 -0.1987
   11MOL   H191 9811   1.650   1.474   3.815  2.2554 -1.0388  2.7014
   11MOL   H192 9812   1.450   1.700   3.869  0.6514  0.0531  0.4684
   11MOL   H193 9813   1.399   1.543   3.798  0.6086  0.3156 -0.6402
   11MOL   N194 9814   1.490   1.783   3.639  0.3540  0.4076 -0.2856
   11MOL   C195 9815   1.398   1.879   3.701 -1.1663  0.5188  0.1051
   11MOL   C196 9816   1.363   1.997   3.614 -0.7029 -0.3647 -0.6803
   11MOL   C197 9817   1.353   1.976   3.473  0.0002 -0.2004  0.4513
   11MOL   C198 9818   1.324   2.077   3.386  0.4734 -0.2055 -0.1303
   11MOL   C199 9819   1.291   2.201   3.444  0.0391  0.1058  0.1398
   11MOL   C200 9820   1.286   2.225   3.587 -0.9757  0.1901 -0.3948
   11MOL   C201 9821   1.336   2.127   3.671 -0.0386  0.2014 -0.1107
   11MOL   C202 9822   1.342   2.153   3.823 -0.3314  0.7463  0.5640
   11MOL   N203 9823   1.294   2.288   3.857  0.3928 -0.2491  0.6065
   11MOL   C204 9824   1.367   2.393   3.882  0.2378 -0.7446  0.4262
   11MOL   O205 9825   1.489   2.392   3.894 -0.8871 -0.0489 -0.0496
   11MOL   C206 9826   1.294   2.526   3.899 -0.3014  0.5423 -0.5931
   11MOL   C207 9827   1.307   2.617   3.776  0.1724 -0.4284 -0.6014
   11MOL   C208 9828   1.385   2.753   3.794  0.3990  0.3505 -0.1008
   11MOL   C209 9829   1.371   2.845   3.670 -0.3164 -0.0435  0.2288
   11MOL   C210 9830   1.442   2.789   3.545 -0.5573 -0.2979 -0.5965
   11MOL   C211 9831   1.501   2.893   3.455  0.0839 -0.3809 -0.5976
   11MOL   C212 9832   1.415   3.013   3.409 -0.2455 -0.1217 -0.6931
   11MOL   C213 9833   1.494   3.107   3.327 -0.7147 -0.3852 -0.7779
   11MOL   C214 9834   1.600   3.194   3.402  0.3138 -0.3460  0.7519
   11MOL   O215 9835   1.560   3.285   3.473 -0.1043  0.0743  0.0863
   11MOL   H216 9836   1.530   1.804   3.549 -0.3550  0.4458 -0.5958
   11MOL   H217 9837   1.304   1.829   3.725 -0.6716  0.4581  1.9436
   11MOL   H218 9838   1.449   1.903   3.794 -1.4604  0.9776  0.1490
   11MOL   H219 9839   1.366   1.880   3.426  1.7870  0.0015  0.4741
   11MOL   H220 9840   1.315   2.054   3.280 -0.2588 -1.9358  0.2857
   11MOL   H221 9841   1.259   2.277   3.373 -0.1730  0.8293  1.0006
   11MOL   H222 9842   1.250   2.321   3.623 -0.1632  0.5695 -0.5876
   11MOL   H223 9843   1.445   2.133   3.851 -0.8459 -0.5287  1.5605
   11MOL   H224 9844   1.277   2.083   3.874  1.0322 -1.3049 -0.4612
   11MOL   H225 9845   1.195   2.306   3.852  0.5935  1.4604  2.2976
   11MOL   H226 9846   1.325   2.562   3.996  0.9147 -1.5479 -0.1686
   11MOL   H227 9847   1.188   2.508   3.916 -0.4073  1.0364 -0.7247
   11MOL   H228 9848   1.349   2.561   3.693 -0.2835 -0.2007 -0.9904
   11MOL   H229 9849   1.206   2.642   3.743 -0.6147 -0.7650  1.5057
   11MOL   H230 9850   1.361   2.807   3.885  0.5465  0.7639 -0.3040
   11MOL   H231 9851   1.488   2.724   3.816  0.0447 -0.0514  1.0481
   11MOL   H232 9852   1.270   2.866   3.635  0.7523  1.8080 -1.8233
   11MOL   H233 9853   1.406   2.943   3.704 -0.3316 -0.5681  1.7924
   11MOL   H234 9854   1.524   2.733   3.590  0.3689 -0.0097 -1.9056
   11MOL   H235 9855   1.374   2.719   3.495  0.1099 -0.9712 -0.5786
   11MOL   H236 9856   1.545   2.857   3.362  0.3269 -0.0601 -0.6109
   11MOL   H237 9857   1.594   2.926   3.503 -0.7490  1.2050 -0.0314
   11MOL   H238 9858   1.370   3.056   3.499 -0.3694 -2.0660  0.2141
   11MOL   H239 9859   1.336   2.977   3.343 -0.6694 -1.0373  0.2988
   11MOL   H240 9860   1.542   3.052   3.247  2.6858  3.1075 -1.2845
   11MOL   H241 9861   1.421   3.167   3.272 -0.7603 -1.8079 -2.3218
   11MOL   N242 9862   1.729   3.169   3.371  0.0663  0.1756  0.3881
   11MOL   C243 9863   1.843   3.239   3.427 -0.1523 -0.1788  0.1156
   11MOL   C244 9864   1.974   3.163   3.392 -0.5398  0.4875 -0.7374
   11MOL   C245 9865   2.073   3.237   3.325 -0.2871  0.4230 -0.7663
   11MOL   C246 9866   2.200   3.182   3.302  0.7981 -0.1613 -0.2468
   11MOL   C247 9867   2.226   3.052   3.344 -0.2249 -0.5005 -0.0944
   11MOL   C248 9868   2.128   2.969   3.393 -0.5132  0.1632 -0.4535
   11MOL   C249 9869   2.007   3.029   3.431  0.4370  0.0466  0.5101
   11MOL   C250 9870   1.903   2.953   3.514 -0.1717 -0.8797  0.0319
   11MOL   N251 9871   1.886   3.030   3.634 -0.0113 -0.0789  0.2498
   11MOL   C252 9872   1.789   2.991   3.721 -0.4482 -0.6579 -0.5896
   11MOL   O253 9873   1.739   2.881   3.714  0.6671 -0.2118 -0.5357
   11MOL   C254 9874   1.747   3.085   3.838  0.2137 -0.9557 -0.9845
   11MOL   C255 9875   1.603   3.069   3.885 -0.3834  0.2818  0.3460
   11MOL   C256 9876   1.572   3.162   4.004  0.5609 -0.5480  0.1293
   11MOL   C257 9877   1.620   3.111   4.138 -0.5631  0.1429  0.3927
   11MOL   C258 9878   1.593   3.195   4.264  0.0223  0.8000 -0.2860
   11MOL   C259 9879   1.447   3.227   4.297 -0.0568  0.1100 -0.1568
   11MOL   C260 9880   1.415   3.308   4.428 -0.1886 -0.0995 -0.5828
   11MOL   C261 9881   1.267   3.329   4.459 -0.3836 -0.0834  0.7345
   11MOL   C262 9882   1.179   3.387   4.354 -0.4815  1.0282  0.0885
   11MOL   O263 9883   1.208   3.498   4.312  0.0432 -0.3684 -0.1762
   11MOL   H264 9884   1.747   3.095   3.304  1.7164  0.6948  0.2163
   11MOL   H265 9885   1.833   3.333   3.373 -2.5673  0.4676  1.6117
   11MOL   H266 9886   1.840   3.259   3.534  1.4345 -0.7438  0.2871
   11MOL   H267 9887   2.053   3.332   3.278  1.1345  0.4487 -1.3487
   11MOL   H268 9888   2.274   3.238   3.247 -0.4504  1.7158 -0.0717
   11MOL   H269 9889   2.328   3.018   3.333 -0.9628 -2.5491 -0.7893
   11MOL   H270 9890   2.133   2.863   3.416 -2.2043 -0.1048 -1.2255
   11MOL   H271 9891   1.933   2.849   3.529  2.8046 -0.3989 -2.2321
   11MOL   H272 9892   1.808   2.934   3.465  0.9346 -1.9641 -1.7421
   11MOL   H273 9893   1.938   3.116   3.644  1.5161 -1.1193  1.3995
   11MOL   H274 9894   1.754   3.177   3.780 -1.0664  0.3462  0.8689
   11MOL   H275 9895   1.824   3.093   3.915 -0.9136  0.7703 -0.0012
   11MOL   H276 9896   1.573   2.967   3.910 -0.2858 -0.3243 -1.9443
   11MOL   H277 9897   1.552   3.085   3.790  1.6116  0.2127 -0.7513
   11MOL   H278 9898   1.465   3.181   4.004  1.0252  2.3293  2.2132
   11MOL   H279 9899   1.617   3.258   3.980 -2.3593  0.9347  0.4087
   11MOL   H280 9900   1.575   3.014   4.158  0.5703 -0.7036 -1.0452
   11MOL   H281 9901   1.725   3.088   4.118 -0.3896  1.4242 -0.2783
   11MOL   H282 9902   1.638   3.132   4.340 -0.4250  1.2740  0.3828
   11MOL   H283 9903   1.644   3.291   4.256  1.1134  0.1178 -1.6490
   11MOL   H284 9904   1.384   3.138   4.303 -0.5226  0.4992  0.8361
   11MOL   H285 9905   1.408   3.269   4.204  0.4048 -0.5850 -0.6685
   11MOL   H286 9906   1.450   3.249   4.512 -0.2096 -0.0074 -0.5091
   11MOL   H287 9907   1.469   3.403   4.431  0.4730 -0.2391 -4.7314
   11MOL   H288 9908   1.227   3.233   4.493  0.7959 -0.1948  1.8666
   11MOL   H289 9909   1.263   3.398   4.543 -0.9712  0.6208  0.1354
   11MOL   N290 9910   1.069   3.317   4.313  0.0033  0.1961 -0.7566
   11MOL   C291 9911   0.990   3.352   4.197 -0.1821  0.4485 -0.3061
   11MOL   C292 9912   1.034   3.268   4.073 -0.4127  0.0531 -0.7444
   11MOL   C293 9913   1.136   3.172   4.074 -0.3177 -0.1022  0.4893
   11MOL   C294 9914   1.164   3.090   3.962 -0.3128 -0.6007 -0.7484
   11MOL   C295 9915   1.099   3.118   3.839 -0.5220  0.5909  0.5825
   11MOL   C296 9916   0.998   3.211   3.829  0.2379  0.0618 -0.6856
   11MOL   C297 9917   0.976   3.294   3.944 -0.1957 -0.0643 -0.1254
   11MOL   C298 9918   0.883   3.412   3.925 -0.8886 -0.8111  0.3505
   11MOL   N299 9919   0.919   3.486   3.804  0.1086 -0.7736 -0.0494
   11MOL   C300 9920   0.851   3.580   3.746 -0.8241 -0.3449 -0.4040
   11MOL   O301 9921   0.751   3.630   3.798 -0.1290  0.4329 -0.1795
   11MOL   C302 9922   0.887   3.595   3.594  0.1152  0.0168 -0.3750
   11MOL   C303 9923   0.821   3.714   3.530  0.8507 -0.1204  0.5824
   11MOL   C304 9924   0.867   3.854   3.584  0.6668  0.3184 -0.2483
   11MOL   C305 9925   0.816   3.968   3.495 -0.4021 -0.2587 -0.7896
   11MOL   C306 9926   0.668   3.981   3.488 -0.1336 -0.1910 -0.0541
   11MOL   C307 9927   0.623   4.069   3.368 -0.7506 -0.2422  0.2058
   11MOL   C308 9928   0.656   4.009   3.231 -0.7630  0.5493 -0.0024
   11MOL   C309 9929   0.595   4.093   3.115 -0.6746 -0.4563  0.1786
   11MOL   C310 9930   0.695   4.119   3.001  0.0190  0.0766 -0.0132
   11MOL   O311 9931   0.775   4.034   2.963  0.3408  0.2348 -0.0570
   11MOL   H312 9932   1.037   3.242   4.372  1.5122  0.7900  0.8511
   11MOL   H313 9933   0.890   3.329   4.234  0.0312  0.6330  0.3827
   11MOL   H314 9934   1.001   3.458   4.171 -1.3794  0.2136 -1.8892
   11MOL   H315 9935   1.176   3.145   4.170  0.3149  0.9682  0.5382
   11MOL   H316 9936   1.238   3.011   3.961 -0.3740 -0.7044  0.9834
   11MOL   H317 9937   1.105   3.061   3.747 -0.6416  0.0647  0.8983
   11MOL   H318 9938   0.948   3.225   3.734 -1.2344  0.9172  0.1935
   11MOL   H319 9939   0.880   3.486   4.004 -0.7143 -0.7730  0.3219
   11MOL   H320 9940   0.786   3.366   3.904 -0.2247 -1.7075 -0.8183
   11MOL   H321 9941   1.014   3.472   3.773 -0.0319  0.1924 -0.9548
   11MOL   H322 9942   0.994   3.607   3.581  0.0439  1.0468 -0.0904
   11MOL   H323 9943   0.880   3.501   3.540  0.4548  0.6273 -1.5056
   11MOL   H324 9944   0.713   3.718   3.546  0.5372 -0.1491 -1.3849
   11MOL   H325 9945   0.838   3.708   3.422  3.1654  1.7674  0.8145
   11MOL   H326 9946   0.976   3.856   3.579  0.8252 -0.9099  1.9900
   11MOL   H327 9947   0.852   3.869   3.691  0.5553 -0.6569 -0.1277
   11MOL   H328 9948   0.854   4.063   3.531  0.0958 -0.4596 -0.7708
   11MOL   H329 9949   0.867   3.960   3.399  0.3166  1.1892 -0.5348
   11MOL   H330 9950   0.618   3.884   3.479 -0.0287 -0.1381 -1.2362
   11MOL   H331 9951   0.633   4.024   3.582  1.6472  0.2809  0.4140
   11MOL   H332 9952   0.651   4.173   3.383 -0.2020 -0.8017  3.5189
   11MOL   H333 9953   0.514   4.072   3.369 -0.8036 -1.4447 -0.2371
   11MOL   H334 9954   0.764   4.003   3.218 -0.4775 -1.3586  2.8786
   11MOL   H335 9955   0.603   3.914   3.224  0.4829 -0.1577 -0.0680
   11MOL   H336 9956   0.518   4.039   3.060  0.5807 -0.1148 -1.9991
   11MOL   H337 9957   0.545   4.186   3.142  1.1354  0.1693  1.5504
   11MOL   N338 9958   0.688   4.241   2.954  0.6765  0.2665  0.5356
   11MOL   C339 9959   0.760   4.291   2.836  0.7092  0.4297 -0.3268
   11MOL   C340 9960   0.879   4.381   2.877 -0.0938  0.0832  0.4155
   11MOL   C341 9961   1.009   4.318   2.862 -0.9813  0.0059  0.1267
   11MOL   C342 9962   1.120   4.378   2.917  0.4015  0.0514  0.3762
   11MOL   C343 9963   1.110   4.508   2.972 -0.1304  0.1788  0.3823
   11MOL   C344 9964   0.988   4.577   2.976  0.0366 -0.7831 -0.0674
   11MOL   C345 9965   0.871   4.505   2.931 -0.0780  0.0229  0.1640
   11MOL   C346 9966   0.743   4.586   2.959 -0.5485 -0.1052  0.0429
   11MOL   N347 9967   0.745   4.617   3.102 -0.3458  0.3078  0.1899
   11MOL   C348 9968   0.702   4.543   3.207  0.4037 -0.7601 -0.0465
   11MOL   O349 9969   0.635   4.441   3.199 -0.6364  0.0561 -0.0466
   11MOL   C350 9970   0.723   4.607   3.349 -0.2598 -0.2093 -0.2004
   11MOL   C351 9971   0.750   4.506   3.462 -0.0055 -0.5158 -0.9048
   11MOL   C352 9972   0.899   4.484   3.491 -0.3220  0.2056 -0.1273
   11MOL   C353 9973   0.913   4.414   3.627 -0.1928 -0.2116  0.2490
   11MOL   C354 9974   1.053   4.421   3.686  0.0316  1.0092  0.8394
   11MOL   C355 9975   1.053   4.325   3.808 -0.4253  0.4340  0.6373
   11MOL   C356 9976   1.199   4.320   3.854  0.2346  0.2645 -0.2103
   11MOL   C357 9977   1.210   4.246   3.989 -0.1784 -0.3666  0.1245
   11MOL   C358 9978   1.333   4.294   4.073  0.3518  0.2468  0.0541
   11MOL   O359 9979   1.441   4.239   4.068 -0.0528 -0.2315 -0.0991
   11MOL   H360 9980   0.613   4.302   2.983  1.4292  1.5145 -0.0661
   11MOL   H361 9981   0.796   4.209   2.774  0.0550 -1.2367  1.4447
   11MOL   H362 9982   0.698   4.359   2.779  0.1789 -0.1407 -0.4415
   11MOL   H363 9983   1.023   4.222   2.814  0.8503 -0.6811  1.9812
   11MOL   H364 9984   1.216   4.337   2.891  0.4800 -2.0155  3.7072
   11MOL   H365 9985   1.200   4.560   3.004  0.8130  0.2307 -2.2283
   11MOL   H366 9986   0.987   4.680   3.009  1.1567 -1.1063  1.0009
   11MOL   H367 9987   0.643   4.547   2.941 -0.6457  0.0183  0.3151
   11MOL   H368 9988   0.754   4.681   2.906 -0.4798 -0.1747 -0.0702
   11MOL   H369 9989   0.767   4.712   3.126  0.2540 -0.1034  1.3320
   11MOL   H370 9990   0.622   4.644   3.366 -0.6176 -1.1665 -0.2244
   11MOL   H371 9991   0.801   4.682   3.336 -1.3515  1.0136  0.1994
   11MOL   H372 9992   0.712   4.404   3.453 -3.9740  0.6343  1.4392
   11MOL   H373 9993   0.700   4.549   3.549  0.8475 -1.5469  0.1133
   11MOL   H374 9994   0.947   4.425   3.414 -0.6575 -1.0627  0.6128
   11MOL   H375 9995   0.950   4.580   3.504 -0.8250  0.3860  0.5656
   11MOL   H376 9996   0.890   4.314   3.592  0.3187 -0.4709  0.6648
   11MOL   H377 9997   0.843   4.443   3.706  0.6653  3.8140 -0.3353
   11MOL   H378 9998   1.120   4.377   3.613 -1.7587 -0.0917 -0.1575
   11MOL   H379 9999   1.097   4.517   3.714  1.8377 -0.3751  2.9263
   11MOL   H38010000   0.996   4.235   3.783 -2.1428  1.0278  2.2788
   11MOL   H38110001   0.988   4.369   3.884  0.6612 -0.0734  1.8915
   11MOL   H38210002   1.249   4.254   3.783 -3.5942 -1.9357 -1.0429
   11MOL   H38310003   1.245   4.419   3.853 -1.1539  0.9361  0.8196
   11MOL   H38410004   1.229   4.140   3.971  1.1172 -0.2920  0.9887
   11MOL   H38510005   1.117   4.248   4.044 -0.1933  0.7102  0.0813
   11MOL   N38610006   1.324   4.414   4.133 -0.5866 -0.1399 -0.1198
   11MOL   C38710007   1.424   4.476   4.216 -0.2991  0.1297  0.0177
   11MOL   C38810008   1.534   4.560   4.147  0.3414  0.6339  0.2220
   11MOL   C38910009   1.496   4.664   4.058  0.0389  0.3447 -0.3272
   11MOL   C39010010   1.585   4.759   4.010 -0.9350 -0.7295  0.3644
   11MOL   C39110011   1.723   4.738   4.037  0.0966 -0.3850  0.2033
   11MOL   C39210012   1.766   4.628   4.109  0.2404 -0.3501  0.2519
   11MOL   C39310013   1.672   4.537   4.166  0.2176  0.0168  1.2381
   11MOL   C39410014   1.732   4.422   4.236 -0.0419  0.6364  0.5308
   11MOL   N39510015   1.700   4.299   4.166  0.7331 -0.2437 -0.5602
   11MOL   C39610016   1.783   4.201   4.136 -0.4490  0.2659 -0.7735
   11MOL   O39710017   1.903   4.221   4.123 -0.3233 -0.1658  0.2864
   11MOL   C39810018   1.723   4.062   4.107 -0.9183 -0.7023 -0.6418
   11MOL   C39910019   1.814   3.947   4.158  0.3631  0.2505 -0.1674
   11MOL   C40010020   1.739   3.870   4.270  0.7446  0.2170 -0.8864
   11MOL   C40110021   1.829   3.789   4.361  0.4522 -0.0423 -0.3289
   11MOL   C40210022   1.745   3.691   4.443  0.1940  0.2131 -0.5582
   11MOL   C40310023   1.665   3.756   4.557  0.5088 -0.3009  0.0579
   11MOL   C40410024   1.543   3.677   4.613 -0.1687 -0.8347 -0.5023
   11MOL   C40510025   1.421   3.666   4.524  0.1390 -0.4292  0.2129
   11MOL   C40610026   1.349   3.801   4.493 -0.2152  0.0251 -0.4799
   11MOL   O40710027   1.317   3.866   4.592  0.3652  0.1386 -0.7453
   11MOL   H40810028   1.228   4.446   4.140 -0.7616 -0.8492  0.7334
   11MOL   H40910029   1.367   4.556   4.264  2.0904  2.5025 -0.9686
   11MOL   H41010030   1.459   4.407   4.292  1.8034  1.0074 -0.1323
   11MOL   H41110031   1.392   4.667   4.030  0.2127  0.6659 -0.9452
   11MOL   H41210032   1.555   4.835   3.940 -1.8719 -0.0639  1.4749
   11MOL   H41310033   1.789   4.808   3.989 -1.8537  1.7368  0.5199
   11MOL   H41410034   1.872   4.621   4.121  0.3092  0.6359  0.3198
   11MOL   H41510035   1.691   4.417   4.337  1.1688  0.4281  1.0246
   11MOL   H41610036   1.841   4.421   4.247 -0.0215 -0.2633  0.2824
   11MOL   H41710037   1.603   4.274   4.156  0.3628  1.3751 -1.1687
   11MOL   H41810038   1.623   4.051   4.147 -0.6556 -0.1035  0.1940
   11MOL   H41910039   1.723   4.054   3.998 -3.1220 -0.4798 -0.6768
   11MOL   H42010040   1.902   3.991   4.204 -0.2886  0.2531  1.1218
   11MOL   H42110041   1.850   3.877   4.083  3.8467  0.6143  1.0991
   11MOL   H42210042   1.662   3.803   4.233 -0.1065  1.4145 -1.3195
   11MOL   H42310043   1.686   3.945   4.328  1.6504 -0.1000  0.3526
   11MOL   H42410044   1.905   3.737   4.303  1.8943  1.7982 -0.1742
   11MOL   H42510045   1.884   3.868   4.413  0.0626 -0.1504  0.2465
   11MOL   H42610046   1.677   3.642   4.374  0.3433  1.5679 -1.6956
   11MOL   H42710047   1.811   3.619   4.491  1.9070  1.0810 -1.5215
   11MOL   H42810048   1.630   3.858   4.537  0.6596 -0.4564 -1.0221
   11MOL   H42910049   1.728   3.771   4.645  0.0855  0.0540  0.3001
   11MOL   H43010050   1.514   3.735   4.701 -0.2428 -0.5410 -0.7182
   11MOL   H43110051   1.564   3.581   4.659  0.7606 -1.3968 -2.0664
   11MOL   H43210052   1.355   3.597   4.576 -0.1410 -1.0204 -0.9105
   11MOL   H43310053   1.457   3.625   4.429  1.6411  1.2197  0.0488
   11MOL   N43410054   1.343   3.839   4.366  0.1962  0.2278  0.6627
   11MOL   C43510055   1.284   3.965   4.322  0.4984  0.7629  0.9293
   11MOL   C43610056   1.324   4.093   4.402  0.2689  0.0606  0.4792
   11MOL   C43710057   1.459   4.105   4.449  0.1623  0.0324  0.4703
   11MOL   C43810058   1.492   4.233   4.502  0.5006  0.3896  0.2569
   11MOL   C43910059   1.397   4.336   4.525  0.1088 -0.3953 -0.1168
   11MOL   C44010060   1.264   4.318   4.487  0.3280  0.0725  0.2354
   11MOL   C44110061   1.230   4.198   4.420  0.5120 -0.1025  0.1278
   11MOL   C44210062   1.087   4.171   4.378  0.1894  0.1645  0.4057
   11MOL   N44310063   0.994   4.276   4.403  0.3049 -0.0813  0.0184
   11MOL   C44410064   0.979   4.392   4.333 -0.6626  0.1084 -0.4970
   11MOL   O44510065   1.061   4.433   4.252  0.0506 -0.1442 -0.3036
   11MOL   C44610066   0.880   4.497   4.385 -0.8317 -0.3955 -0.5038
   11MOL   C44710067   0.746   4.487   4.308 -0.1476  0.7420  0.6240
   11MOL   C44810068   0.641   4.594   4.350  0.3953  0.2274 -1.4060
   11MOL   C44910069   0.596   4.582   4.497  0.2081 -0.5584 -0.3837
   11MOL   C45010070   0.580   4.718   4.567  0.0936  0.1768 -0.4629
   11MOL   C45110071   0.474   4.814   4.506 -0.3940 -0.3725  0.2712
   11MOL   C45210072   0.328   4.760   4.521  0.0559 -0.0953  0.6600
   11MOL   C45310073   0.221   4.830   4.437 -0.1144  0.0340 -0.2572
   11MOL   C45410074   0.082   4.765   4.463 -0.5344 -1.0953  0.2133
   11MOL   O45510075   0.073   4.648   4.489  0.9388 -0.0559 -0.5577
   11MOL   H45610076   1.374   3.773   4.297  0.0544  0.8346  0.0004
   11MOL   H45710077   1.179   3.942   4.338  0.5617  0.8128  1.4363
   11MOL   H45810078   1.307   3.982   4.217  0.2874 -1.5763  0.4849
   11MOL   H45910079   1.525   4.019   4.447 -0.7694 -0.8019  3.3402
   11MOL   H46010080   1.590   4.244   4.545  0.8115  0.5050 -0.4772
   11MOL   H46110081   1.422   4.437   4.555 -2.4721  0.5606 -1.0391
   11MOL   H46210082   1.199   4.404   4.498  1.6574  1.0224  0.8483
   11MOL   H46310083   1.062   4.092   4.449  0.7858  0.8714  1.4207
   11MOL   H46410084   1.081   4.144   4.273 -0.5070  2.3495 -0.1364
   11MOL   H46510085   0.924   4.259   4.474 -0.2104 -0.8358 -0.6618
   11MOL   H46610086   0.922   4.596   4.397 -0.2336 -0.6663 -0.3764
   11MOL   H46710087   0.858   4.469   4.488  1.2758  0.4577  0.2000
   11MOL   H46810088   0.707   4.389   4.335  1.1485  0.3747  1.1952
   11MOL   H46910089   0.758   4.492   4.200  0.4488 -3.3970  0.4127
   11MOL   H47010090   0.686   4.693   4.345 -1.0289  0.9814  0.1241
   11MOL   H47110091   0.553   4.590   4.285 -1.5559 -2.3559  1.2432
   11MOL   H47210092   0.496   4.537   4.498 -0.3825  0.7595  0.9840
   11MOL   H47310093   0.670   4.541   4.566  1.4231  1.8390 -0.2395
   11MOL   H47410094   0.551   4.691   4.669 -0.9165  1.8655 -0.2892
   11MOL   H47510095   0.676   4.769   4.561 -0.0991  0.4788 -1.0132
   11MOL   H47610096   0.491   4.838   4.401 -0.3779 -2.1638 -0.1627
   11MOL   H47710097   0.470   4.909   4.559  0.8107  0.0575 -0.3858
   11MOL   H47810098   0.317   4.658   4.484 -1.7979  1.0654 -2.1907
   11MOL   H47910099   0.302   4.778   4.625  0.5684  1.5409  0.5234
   11MOL   H48010100   0.221   4.937   4.457  0.3786  0.1094 -0.6477
   11MOL   H48110101   0.251   4.814   4.334 -1.9738  1.5419 -1.0738
   11MOL   N48210102   7.766   4.840   4.450  0.2948 -0.8116  0.6956
   11MOL   C48310103   7.626   4.800   4.458 -0.0199  0.2002  0.0636
   11MOL   C48410104   7.550   4.846   4.578  0.3352 -0.1009  0.3638
   11MOL   C48510105   7.515   4.982   4.585  0.3005 -0.0742  0.7217
   11MOL   C48610106   7.456   5.036   4.699  0.3284 -0.3852 -0.8200
   11MOL   C48710107   7.424   4.955   4.811  0.1729  0.9813  0.0165
   11MOL   C48810108   7.455   4.815   4.802 -0.5916 -0.5112  0.5304
   11MOL   C48910109   7.517   4.760   4.688 -0.7909 -0.6421 -0.0467
   11MOL   C49010110   7.574   4.614   4.693 -0.3635 -0.2688 -0.2846
   11MOL   N49110111   7.718   4.611   4.710 -0.7233  0.0442 -0.0546
   11MOL   C49210112   7.776   4.571   4.827  0.7631 -0.3218 -0.0516
   11MOL   O49310113   7.706   4.553   4.933 -0.1879 -0.3951  0.5688
   11MOL   C49410114   0.141   4.570   4.825  0.2394  0.4785  0.1741
   11MOL   C49510115   0.202   4.439   4.769  0.5280  0.1720 -0.0099
   11MOL   C49610116   0.228   4.321   4.865  0.9369 -0.0879 -0.1323
   11MOL   C49710117   0.110   4.258   4.930 -0.0399 -0.2340  0.2044
   11MOL   C49810118   0.016   4.190   4.832 -0.0490  0.6153  0.3909
   11MOL   C49910119   7.668   4.154   4.888  0.2460 -0.1130  0.7184
   11MOL   C50010120   7.545   4.124   4.799  0.6263  0.3264 -0.5927
   11MOL   C50110121   7.558   3.977   4.745  0.6485 -0.1107  0.7076
   11MOL   C50210122   7.497   3.878   4.836  0.2189  0.4651 -0.2818
   11MOL   O50310123   7.385   3.899   4.884  0.5152 -0.0470 -0.0261
   11MOL   H50410124   7.790   4.937   4.466  0.4502 -0.9697  1.4600
   11MOL   H50510125   7.591   4.840   4.362 -0.8418 -2.3681 -0.7333
   11MOL   H50610126   7.615   4.692   4.453 -1.8695  0.4179 -1.2648
   11MOL   H50710127   7.549   5.048   4.507 -0.1217 -0.8252 -0.1023
   11MOL   H50810128   7.433   5.141   4.706 -1.2871 -0.6992 -1.1476
   11MOL   H50910129   7.375   4.985   4.903 -0.7425 -0.5616  0.0535
   11MOL   H51010130   7.443   4.747   4.885  0.9914 -0.8294  0.5206
   11MOL   H51110131   7.535   4.556   4.609  0.5357 -1.0708 -0.1590
   11MOL   H51210132   7.524   4.562   4.775  1.8694  1.8615  2.5531
   11MOL   H51310133   7.778   4.639   4.633 -1.1155  2.4790  0.4895
   11MOL   H51410134   0.178   4.583   4.927 -0.0705 -1.4665  0.5528
   11MOL   H51510135   0.181   4.657   4.772 -2.3967  1.1955 -0.7294
   11MOL   H51610136   0.299   4.453   4.720  0.8923  0.2761  0.7356
   11MOL   H51710137   0.149   4.407   4.680  1.0073  0.5042 -0.4201
   11MOL   H51810138   0.278   4.243   4.808  1.3011  1.5743 -2.1739
   11MOL   H51910139   0.298   4.355   4.941 -0.1408 -1.0911  1.3198
   11MOL   H52010140   0.142   4.189   5.008  0.7396  0.7739  0.7932
   11MOL   H52110141   0.057   4.339   4.980  0.9675  1.0554 -0.7828
   11MOL   H52210142   0.001   4.250   4.742 -0.2690  1.1549  0.7878
   11MOL   H52310143   0.067   4.101   4.794 -0.5182  1.3315 -2.0505
   11MOL   H52410144   7.634   4.240   4.947  0.1923  0.1060  0.3692
   11MOL   H52510145   7.675   4.078   4.966 -0.0365  0.7376  1.5919
   11MOL   H52610146   7.453   4.124   4.858  0.4894  0.7415 -0.8044
   11MOL   H52710147   7.523   4.195   4.720  1.4882  1.3124  0.0364
   11MOL   H52810148   7.664   3.957   4.728  1.2649  0.1436  3.9413
   11MOL   H52910149   7.501   3.985   4.653 -0.5124  1.1201  1.5188
   11MOL   N53010150   7.562   3.762   4.850 -0.1796  0.3663  0.0631
   11MOL   C53110151   7.696   3.727   4.815 -0.0896  0.4139  1.1458
   11MOL   C53210152   7.719   3.698   4.659  0.0530  0.4419  0.7186
   11MOL   C53310153   7.622   3.620   4.595 -0.3558  0.5920  0.4294
   11MOL   C53410154   7.642   3.587   4.459  0.6819  1.0872  0.3716
   11MOL   C53510155   7.754   3.636   4.390  0.6161 -0.1373  0.2235
   11MOL   C53610156   0.061   3.718   4.453 -0.4399 -0.3681 -0.3900
   11MOL   C53710157   0.047   3.741   4.589  0.2052 -0.5410 -0.7495
   11MOL   C53810158   0.164   3.813   4.659 -0.9666 -0.3998 -0.0137
   11MOL   N53910159   0.262   3.726   4.714 -0.4023 -0.0771 -0.2161
   11MOL   C54010160   0.394   3.753   4.726 -0.5906  0.1615 -0.5684
   11MOL   O54110161   0.447   3.859   4.702 -0.2038  0.2812  0.1095
   11MOL   C54210162   0.477   3.654   4.794  0.2039  0.3729 -0.0097
   11MOL   C54310163   0.523   3.709   4.933  0.3388  0.0292  0.5163
   11MOL   C54410164   0.625   3.614   5.011  0.0823  0.2965  0.5580
   11MOL   C54510165   0.598   3.463   5.022 -0.0414  0.8227  1.0413
   11MOL   C54610166   0.672   3.410   5.147 -0.4446 -0.5096  1.5356
   11MOL   C54710167   0.698   3.257   5.134  0.4634  0.0043  0.7917
   11MOL   C54810168   0.757   3.193   5.262  0.0099  0.4121 -1.2342
   11MOL   C54910169   0.746   3.043   5.265 -0.7127 -0.2677 -0.7221
   11MOL   C55010170   0.835   2.988   5.150 -0.4113 -0.9380  0.2972
   11MOL   O55110171   0.937   3.052   5.110  0.0458  0.1442  0.2589
   11MOL   H55210172   7.512   3.700   4.912 -1.0768  1.3098  0.2934
   11MOL   H55310173   7.722   3.634   4.865  0.0680 -0.9599 -1.3759
   11MOL   H55410174   7.768   3.792   4.865  0.4725  0.1069  0.7340
   11MOL   H55510175   7.540   3.575   4.648 -0.9042  1.7047  0.5458
   11MOL   H55610176   7.586   3.506   4.416 -0.3668  2.8495 -1.6882
   11MOL   H55710177   7.779   3.605   4.289 -1.6458  1.0176 -0.7067
   11MOL   H55810178   0.146   3.761   4.402 -0.4364  0.8822  0.6558
   11MOL   H55910179   0.137   3.883   4.738 -0.6492 -0.7487  0.4023
   11MOL   H56010180   0.219   3.874   4.587  0.0168  1.2899  2.1196
   11MOL   H56110181   0.219   3.641   4.747  0.9986 -0.3804  0.8885
   11MOL   H56210182   0.563   3.623   4.734 -0.2857 -0.0320 -0.5090
   11MOL   H56310183   0.422   3.561   4.806  1.5661 -0.6282 -1.3862
   11MOL   H56410184   0.436   3.738   4.993  0.0214 -0.3088  0.2165
   11MOL   H56510185   0.576   3.804   4.926 -0.3633  0.3218 -0.8685
   11MOL   H56610186   0.721   3.615   4.960  0.7420  0.1886  1.7817
   11MOL   H56710187   0.629   3.651   5.113 -0.4061  0.4565  0.5222
   11MOL   H56810188   0.491   3.440   5.025  0.0187  0.3127 -0.3083
   11MOL   H56910189   0.629   3.413   4.930  0.2132 -0.0892  1.6177
   11MOL   H57010190   0.764   3.465   5.161  0.9947 -2.8541  1.6040
   11MOL   H57110191   0.604   3.434   5.229 -3.4016 -0.7291 -0.7372
   11MOL   H57210192   0.762   3.226   5.051  2.1919  1.0714  1.6988
   11MOL   H57310193   0.602   3.213   5.106  0.3738  0.9308 -0.3553
   11MOL   H57410194   0.864   3.215   5.270 -0.0194 -0.0350  0.4909
   11MOL   H57510195   0.708   3.240   5.347 -2.5174 -2.4549 -1.0188
   11MOL   H57610196   0.648   2.998   5.277 -1.1496  1.2354  1.8135
   11MOL   H57710197   0.779   3.009   5.364 -2.3749  1.0055  0.2994
   11MOL   N57810198   0.815   2.868   5.099  0.6007  0.4248 -0.0931
   11MOL   C57910199   0.875   2.807   4.977  0.6926  0.1559  0.2545
   11MOL   C58010200   0.769   2.719   4.918 -0.5981  1.0516 -0.1349
   11MOL   C58110201   0.693   2.770   4.815 -0.3386  0.0143 -0.3413
   11MOL   C58210202   0.588   2.696   4.757 -0.7965 -0.0205 -0.1065
   11MOL   C58310203   0.558   2.571   4.810 -0.4399  0.1493 -0.3132
   11MOL   C58410204   0.631   2.521   4.924 -0.6390  0.0831  0.0031
   11MOL   C58510205   0.739   2.593   4.971 -0.0530  0.3697  0.6927
   11MOL   C58610206   0.825   2.548   5.094  0.3468 -0.2373 -0.1480
   11MOL   N58710207   0.746   2.462   5.180 -0.6783 -0.2207  0.1933
   11MOL   C58810208   0.768   2.332   5.184 -0.1903  0.4289 -0.3637
   11MOL   O58910209   0.838   2.272   5.101 -0.0449 -0.2201  0.2389
   11MOL   C59010210   0.693   2.247   5.283 -0.3452 -0.3891  0.1912
   11MOL   C59110211   0.768   2.117   5.327  0.1115 -0.0500  0.1798
   11MOL   C59210212   0.676   2.009   5.392  0.0751 -0.6285  0.2836
   11MOL   C59310213   0.595   2.055   5.520 -0.6806 -0.1713  0.1733
   11MOL   C59410214   0.473   1.965   5.556 -0.3461 -0.4800  0.1482
   11MOL   C59510215   0.423   1.996   5.700  0.1294  0.3063 -0.4572
   11MOL   C59610216   0.285   1.933   5.734  0.0608  0.1218  0.0648
   11MOL   C59710217   0.213   1.972   5.868  0.9794  0.0428  0.6168
   11MOL   C59810218   0.187   2.129   5.886  1.0597 -0.4736 -0.3887
   11MOL   O59910219   0.279   2.203   5.875  0.1692  0.0605 -0.2786
   11MOL   H60010220   0.752   2.816   5.159  0.9772  0.8213  0.6495
   11MOL   H60110221   0.960   2.744   5.004  0.0695 -0.1018  1.6662
   11MOL   H60210222   0.897   2.878   4.898 -0.2958  0.4492  0.2344
   11MOL   H60310223   0.713   2.873   4.789 -0.7714  0.4937  1.2048
   11MOL   H60410224   0.536   2.731   4.669 -1.7096 -1.9953 -0.3843
   11MOL   H60510225   0.494   2.503   4.757  1.1420 -0.5490 -1.3820
   11MOL   H60610226   0.609   2.429   4.976 -1.7308  0.9976  1.2096
   11MOL   H60710227   0.838   2.629   5.165 -0.3250 -0.0428 -0.2399
   11MOL   H60810228   0.921   2.505   5.064 -0.0407 -1.7539  0.6956
   11MOL   H60910229   0.685   2.519   5.237 -0.2521  0.5792 -0.1334
   11MOL   H61010230   0.597   2.213   5.244  0.8528 -3.1585 -0.4592
   11MOL   H61110231   0.680   2.297   5.379 -1.3821  1.1120 -0.7049
   11MOL   H61210232   0.845   2.154   5.393  0.7799 -0.1965 -0.5101
   11MOL   H61310233   0.822   2.067   5.246  0.7559  0.2580  0.4188
   11MOL   H61410234   0.609   1.963   5.320  0.9035 -1.2027 -0.1325
   11MOL   H61510235   0.732   1.917   5.410  0.2179 -0.6852 -0.4258
   11MOL   H61610236   0.666   2.067   5.601  0.9792  0.3258 -1.3405
   11MOL   H61710237   0.547   2.152   5.503 -0.3364 -0.0886 -0.3489
   11MOL   H61810238   0.398   1.988   5.479  0.3194  1.2304 -0.0106
   11MOL   H61910239   0.496   1.859   5.541  1.8468 -0.0886  0.6827
   11MOL   H62010240   0.419   2.104   5.710  0.7090  0.4583 -1.7555
   11MOL   H62110241   0.496   1.956   5.770 -1.1634  1.2284  1.4279
   11MOL   H62210242   0.224   1.936   5.643 -1.1623 -1.0766  0.8350
   11MOL   H62310243   0.302   1.826   5.736 -0.3836  0.0527  0.1467
   11MOL   H62410244   0.119   1.917   5.869  0.4564  0.9176  0.7406
   11MOL   H62510245   0.269   1.946   5.958  2.3697  2.3135  0.4651
   11MOL   N62610246   0.063   2.167   5.917 -0.0218  0.0267 -0.5541
   11MOL   C62710247   0.001   2.300   5.940 -0.0275 -0.2170  0.8700
   11MOL   C62810248   7.681   2.334   5.844 -0.1768 -0.2160  0.2853
   11MOL   C62910249   7.551   2.301   5.885  0.1493  0.6040  0.3175
   11MOL   C63010250   7.441   2.309   5.799 -0.0539 -0.5178 -0.5533
   11MOL   C63110251   7.455   2.362   5.671 -1.0951 -0.5278 -0.5238
   11MOL   C63210252   7.584   2.390   5.623 -0.0282 -0.3693  0.1352
   11MOL   C63310253   7.695   2.386   5.710  0.6374 -0.3002  0.4751
   11MOL   C63410254   0.037   2.446   5.661  0.6699  0.3577  0.0032
   11MOL   N63510255   0.138   2.357   5.601  0.4989  0.0664 -0.4024
   11MOL   C63610256   0.178   2.345   5.474  0.2583  0.8972 -0.0769
   11MOL   O63710257   0.171   2.439   5.396 -0.1291 -0.0566 -0.0023
   11MOL   C63810258   0.245   2.213   5.429 -0.0545 -0.5544  0.1508
   11MOL   C63910259   0.241   2.190   5.272 -0.7935  0.1465 -0.6699
   11MOL   C64010260   0.122   2.101   5.226 -0.3123 -0.5713  0.4874
   11MOL   C64110261   0.128   2.075   5.073 -0.1143 -0.5514  0.3062
   11MOL   C64210262   0.042   1.955   5.029  0.1012  0.5530  0.3221
   11MOL   C64310263   0.089   1.818   5.086  0.0752 -0.2344  0.1195
   11MOL   C64410264   0.024   1.697   5.022 -0.9287 -0.1432 -0.3015
   11MOL   C64510265   7.672   1.663   5.058  0.8094  0.3985  0.0810
   11MOL   C64610266   7.602   1.571   4.950  0.4643  0.0882  0.4568
   11MOL   O64710267   7.657   1.469   4.910 -0.3776 -0.1372 -0.4281
   11MOL   H64810268   0.002   2.088   5.932  0.1607 -0.2459 -1.2652
   11MOL   H64910269   0.081   2.374   5.943 -2.7738  2.8677  0.9103
   11MOL   H65010270   7.747   2.297   6.039 -0.5431  0.4860  0.6684
   11MOL   H65110271   7.542   2.243   5.976 -1.0291 -1.6282 -1.1606
   11MOL   H65210272   7.346   2.267   5.829 -0.6830  1.0173 -0.3915
   11MOL   H65310273   7.370   2.356   5.605 -1.6844 -0.7048  0.2436
   11MOL   H65410274   7.601   2.411   5.519 -0.0038 -0.5125  0.1112
   11MOL   H65510275   0.066   2.512   5.742  0.8459  0.5408 -0.2102
   11MOL   H65610276   0.009   2.509   5.577 -2.4467 -0.8413  0.0453
   11MOL   H65710277   0.177   2.289   5.663  1.4577  1.8992  1.0473
   11MOL   H65810278   0.211   2.125   5.484 -0.9273  0.8803  1.9581
   11MOL   H65910279   0.352   2.225   5.448 -0.0560 -0.4753  0.1100
   11MOL   H66010280   0.331   2.133   5.251  0.7806  0.9507  3.4435
   11MOL   H66110281   0.256   2.285   5.220 -3.0376  1.9587  1.8531
   11MOL   H66210282   0.117   2.012   5.288  0.6098 -0.7322  0.3408
   11MOL   H66310283   0.022   2.141   5.241 -0.1423  0.6834 -1.5485
   11MOL   H66410284   0.087   2.158   5.015  0.7452 -0.6876 -0.5080
   11MOL   H66510285   0.225   2.059   5.026 -0.2357  1.7234 -0.7861
   11MOL   H66610286   7.729   1.973   5.060 -0.9260 -0.5413 -2.2692
   11MOL   H66710287   0.054   1.949   4.920 -0.5714 -1.3784  0.3368
   11MOL   H66810288   0.075   1.809   5.193  0.9134 -4.3411 -0.0251
   11MOL   H66910289   0.198   1.809   5.083  0.3304  1.8069  2.1771
   11MOL   H67010290   0.031   1.708   4.914  1.2775  1.0232 -0.0754
   11MOL   H67110291   0.092   1.620   5.058 -0.7968 -1.3935 -3.1508
   11MOL   H67210292   7.613   1.753   5.074  0.6858  0.3372 -0.0306
   11MOL   H67310293   7.662   1.608   5.152  2.0230  0.9459  0.5436
   11MOL   N67410294   7.481   1.611   4.911  0.4022  0.1379 -0.1233
   11MOL   C67510295   7.392   1.534   4.829  0.0186 -0.4474  0.4136
   11MOL   C67610296   7.246   1.559   4.861  0.0312 -0.7083  0.0618
   11MOL   C67710297   7.157   1.564   4.753  0.5219 -0.7051 -0.2658
   11MOL   C67810298   7.018   1.578   4.775  0.5730 -0.3613  0.2013
   11MOL   C67910299   6.971   1.576   4.908  0.4789  0.7727  0.3899
   11MOL   C68010300   7.054   1.559   5.014 -1.0130 -0.2593  0.2258
   11MOL   C68110301   7.193   1.553   4.991  0.3314  0.0535 -0.1371
   11MOL   C68210302   7.272   1.522   5.113 -0.2911 -0.0321 -0.4849
   11MOL   N68310303   7.329   1.636   5.187  0.0598 -0.4094  0.6351
   11MOL   C68410304   7.361   1.634   5.316  0.3579 -0.1757 -0.8225
   11MOL   O68510305   7.328   1.539   5.388  0.2937 -0.1809  0.1119
   11MOL   C68610306   7.433   1.759   5.371 -0.7239 -0.0447 -0.5505
   11MOL   C68710307   7.581   1.749   5.423  0.0120 -0.2916  0.0285
   11MOL   C68810308   7.634   1.876   5.496  0.0094  0.0738  0.2506
   11MOL   C68910309   7.627   2.008   5.408 -0.5486 -0.6271 -0.4787
   11MOL   C69010310   7.499   2.085   5.434 -0.2829 -0.1295  0.0033
   11MOL   C69110311   7.485   2.209   5.339  0.7012 -0.0124  0.0664
   11MOL   C69210312   7.460   2.166   5.195  0.3492  0.9759  0.3483
   11MOL   C69310313   7.465   2.278   5.088  0.5889  0.6575  0.4930
   11MOL   C69410314   7.603   2.333   5.057  0.0721 -0.0104  1.2026
   11MOL   O69510315   7.679   2.277   4.973  0.3617 -0.4906 -0.5706
   11MOL   H69610316   7.448   1.699   4.946 -0.5877  1.1471 -3.4224
   11MOL   H69710317   7.421   1.430   4.816 -1.2103 -0.8251  0.6661
   11MOL   H69810318   7.415   1.584   4.734  2.2177 -1.7507  0.2275
   11MOL   H69910319   7.194   1.568   4.652  2.1408  3.3191  0.3932
   11MOL   H70010320   6.950   1.608   4.696  1.4242  1.9856  0.3228
   11MOL   H70110321   6.868   1.598   4.933  0.1691  0.2128 -0.3868
   11MOL   H70210322   7.018   1.553   5.116  3.4127 -2.0200  1.8291
   11MOL   H70310323   7.353   1.451   5.097  0.3869  0.6152  0.0038
   11MOL   H70410324   7.209   1.469   5.184  3.2989 -2.6760  0.8603
   11MOL   H70510325   7.332   1.725   5.139  0.4650  0.7540  2.7295
   11MOL   H70610326   7.368   1.799   5.449 -0.1656  3.0401 -1.5965
   11MOL   H70710327   7.411   1.842   5.303  0.9589  0.2898 -0.7092
   11MOL   H70810328   7.652   1.742   5.341 -0.7098  0.8887 -0.7154
   11MOL   H70910329   7.597   1.657   5.480 -2.1008 -0.0319  1.1411
   11MOL   H71010330   7.583   1.895   5.591 -0.9735  0.7715 -0.4017
   11MOL   H71110331   7.740   1.862   5.517  0.3276  3.1430  0.9210
   11MOL   H71210332   7.705   2.081   5.429 -0.7195 -0.8168  0.8881
   11MOL   H71310333   7.650   1.986   5.304  0.9108 -0.8038 -0.1228
   11MOL   H71410334   7.407   2.026   5.428 -0.2950 -0.1311  0.1850
   11MOL   H71510335   7.501   2.114   5.540 -0.4137 -1.9663  0.5161
   11MOL   H71610336   7.564   2.285   5.346  0.7495  0.0253 -0.8770
   11MOL   H71710337   7.400   2.263   5.380  1.2464  1.5359 -0.7849
   11MOL   H71810338   7.369   2.108   5.183  2.0463 -1.4355 -1.3024
   11MOL   H71910339   7.536   2.095   5.165 -0.2079 -0.5507  2.4886
   11MOL   H72010340   7.394   2.355   5.118 -0.6595 -0.5815  0.7664
   11MOL   H72110341   7.418   2.239   4.997 -0.3623 -2.4867  2.2799
   11MOL   N72210342   7.632   2.452   5.113 -0.5646  0.0818  0.0241
   11MOL   C72310343   7.768   2.517   5.115  0.0332 -0.0606  0.1613
   11MOL   C72410344   7.778   2.624   5.005 -0.4809 -0.3812  0.6202
   11MOL   C72510345   7.698   2.740   5.025 -0.3782  0.2691 -0.1851
   11MOL   C72610346   7.707   2.848   4.939 -0.0756 -1.1586 -0.4636
   11MOL   C72710347   0.008   2.837   4.827  0.4408  0.0484 -0.1807
   11MOL   C72810348   0.085   2.721   4.800  0.0755  0.3443 -0.2414
   11MOL   C72910349   0.079   2.610   4.891  0.1580 -0.7204  0.2756
   11MOL   C73010350   0.177   2.493   4.883  0.5364  0.3649 -0.5895
   11MOL   N73110351   0.121   2.377   4.822 -0.1045 -0.0623 -0.1981
   11MOL   C73210352   0.166   2.330   4.701  0.0489 -0.9162 -0.0157
   11MOL   O73310353   0.263   2.373   4.637  0.2726 -0.4076  0.2408
   11MOL   C73410354   0.080   2.213   4.652 -0.1345  0.1360  0.3592
   11MOL   C73510355   0.070   2.217   4.493  0.2146 -0.4074  0.4681
   11MOL   C73610356   7.777   2.346   4.449 -0.5227  0.1054  0.5206
   11MOL   C73710357   7.637   2.358   4.522  0.4953 -0.4143 -0.0563
   11MOL   C73810358   7.545   2.458   4.444 -0.9354  0.0372  0.0490
   11MOL   C73910359   7.563   2.606   4.477  0.6968 -0.1041 -0.3769
   11MOL   C74010360   7.536   2.697   4.358  0.4284  0.0774 -0.5293
   11MOL   C74110361   7.615   2.682   4.226  0.1634  0.2632  0.1919
   11MOL   C74210362   7.553   2.755   4.102 -0.2224  0.9711 -0.4377
   11MOL   O74310363   7.517   2.876   4.111 -0.2633  0.3532 -0.4882
   11MOL   H74410364   7.563   2.496   5.174 -1.2205 -1.2151  0.2303
   11MOL   H74510365   0.053   2.438   5.110  1.0197  0.9346 -1.0794
   11MOL   H74610366   0.007   2.560   5.212 -1.8886  0.0351  0.7079
   11MOL   H74710367   7.621   2.730   5.100 -1.0207 -1.3450 -1.0340
   11MOL   H74810368   7.654   2.941   4.953 -0.6003 -1.4106 -0.7515
   11MOL   H74910369   0.006   2.923   4.761 -0.2746  1.0004  1.0618
   11MOL   H75010370   0.148   2.720   4.712 -1.8238  2.4682 -1.6647
   11MOL   H75110371   0.205   2.451   4.979  2.6371  0.7581 -1.0136
   11MOL   H75210372   0.266   2.535   4.835  0.4838  0.0433 -0.9744
   11MOL   H75310373   0.046   2.330   4.870 -1.6175  1.3708 -1.1078
   11MOL   H75410374   7.773   2.227   4.701  0.3573  2.1227  0.8227
   11MOL   H75510375   0.111   2.120   4.701 -0.2923 -0.4853 -0.7097
   11MOL   H75610376   0.027   2.126   4.452  0.6994 -0.0407 -0.9001
   11MOL   H75710377   0.172   2.229   4.455  0.0533 -0.1866  0.0971
   11MOL   H75810378   0.045   2.433   4.480 -0.4206  0.4814 -0.6862
   11MOL   H75910379   7.762   2.340   4.341 -0.3316 -0.9530  0.5471
   11MOL   H76010380   7.588   2.260   4.520  1.3043 -0.8091 -0.9360
   11MOL   H76110381   7.652   2.397   4.622  1.0667 -2.6017  0.7381
   11MOL   H76210382   7.545   2.435   4.337  0.0896  2.0287 -0.4138
   11MOL   H76310383   7.448   2.424   4.479 -0.0478 -1.5316  1.0479
   11MOL   H76410384   7.658   2.630   4.524  0.2545 -0.2261  0.5957
   11MOL   H76510385   7.486   2.621   4.553 -0.4280 -0.9426 -1.3380
   11MOL   H76610386   7.436   2.674   4.322  0.2402 -0.5819  0.4034
   11MOL   H76710387   7.529   2.802   4.387 -0.7613 -0.0364 -0.3674
   11MOL   H76810388   7.715   2.719   4.247  0.1437  0.9295 -0.8140
   11MOL   H76910389   7.640   2.579   4.201  1.0923  0.3634  0.6910
   11MOL   N77010390   7.537   2.681   3.997  0.3765  0.9517  0.0135
   11MOL   C77110391   7.500   2.736   3.866 -0.0262 -0.5708  0.4416
   11MOL   C77210392   7.423   2.635   3.772 -0.3341 -0.1077  0.1210
   11MOL   C77310393   7.375   2.511   3.813 -0.1773  0.0562 -0.1950
   11MOL   C77410394   7.322   2.419   3.715  0.1243 -0.7074 -0.2057
   11MOL   C77510395   7.312   2.455   3.577 -0.0255 -0.0356  0.0972
   11MOL   C77610396   7.356   2.586   3.535 -0.4735 -0.7781  0.2233
   11MOL   C77710397   7.412   2.672   3.634  0.6135  0.0559  0.1177
   11MOL   C77810398   7.449   2.813   3.588 -0.1359  0.0463 -0.1824
   11MOL   N77910399   7.589   2.810   3.537  0.3512  0.4176 -0.2684
   11MOL   C78010400   7.664   2.920   3.562 -0.2091  0.3051  0.3089
   11MOL   O78110401   7.636   3.009   3.641  0.3514  0.3495 -0.1564
   11MOL   C78210402   0.009   2.919   3.493 -0.0659 -0.1539 -0.1263
   11MOL   C78310403   0.127   2.900   3.584  0.0598 -0.0321 -0.3206
   11MOL   C78410404   0.130   2.762   3.655 -0.4952  0.1617  0.2053
   11MOL   C78510405   0.254   2.722   3.739 -0.1376  0.2920 -0.3946
   11MOL   C78610406   0.379   2.721   3.651  0.3359 -0.4150  0.3107
   11MOL   C78710407   0.372   2.621   3.532 -0.3781  0.2034 -0.6046
   11MOL   C78810408   0.499   2.624   3.438  0.4387  0.0531  0.4768
   11MOL   C78910409   0.490   2.565   3.296 -0.6673 -0.0907  0.5001
   11MOL   C79010410   0.635   2.554   3.248 -0.1782 -0.2376 -0.0917
   11MOL   O79110411   0.690   2.647   3.192  0.3365  0.0855 -0.4564
   11MOL   H79210412   7.561   2.583   4.003 -0.9640  0.7304  2.6512
   11MOL   H79310413   7.438   2.826   3.873 -1.0633 -1.2242 -0.3203
   11MOL   H79410414   7.584   2.759   3.802 -1.4340 -0.1495 -1.2990
   11MOL   H79510415   7.385   2.480   3.916 -1.7862  1.3924  0.3938
   11MOL   H79610416   7.297   2.318   3.744  0.7884 -1.5930 -2.5514
   11MOL   H79710417   7.268   2.384   3.509  4.4562  0.1119 -3.1727
   11MOL   H79810418   7.351   2.611   3.430  1.0112  2.9255  0.9687
   11MOL   H79910419   7.424   2.890   3.660 -1.6784  0.1915 -0.8477
   11MOL   H80010420   7.399   2.832   3.493  1.2466 -1.9536 -1.3530
   11MOL   H80110421   7.613   2.748   3.462 -1.0206  0.0360 -0.3931
   11MOL   H80210422   0.027   3.019   3.453  2.0936 -1.6112 -2.9957
   11MOL   H80310423   0.006   2.841   3.417 -1.4967  0.4976 -0.7643
   11MOL   H80410424   0.117   2.981   3.656  0.6483 -1.8548  1.8944
   11MOL   H80510425   0.223   2.902   3.531 -0.7503 -1.2840 -1.8647
   11MOL   H80610426   0.112   2.687   3.578  3.1190 -1.0169  0.4046
   11MOL   H80710427   0.044   2.762   3.722 -1.2217  2.2392 -0.6838
   11MOL   H80810428   0.273   2.803   3.809  0.5777  0.7843 -1.1540
   11MOL   H80910429   0.232   2.622   3.778 -1.9538 -0.8163 -4.0926
   11MOL   H81010430   0.405   2.818   3.610 -2.4641  0.8672  1.4327
   11MOL   H81110431   0.474   2.707   3.704  0.2604  0.6121  0.7366
   11MOL   H81210432   0.283   2.634   3.470 -1.1397 -1.4132  0.1169
   11MOL   H81310433   0.374   2.520   3.573 -0.3875  0.2958 -0.3803
   11MOL   H81410434   0.578   2.578   3.498  1.4116  0.2706 -0.6270
   11MOL   H81510435   0.524   2.729   3.425 -2.1706  0.6787  0.2696
   11MOL   H81610436   0.427   2.618   3.225 -1.2682 -0.9098  0.4280
   11MOL   H81710437   0.448   2.465   3.300 -0.8608 -0.0594 -0.7396
   11MOL   N81810438   0.701   2.440   3.277  1.0701  0.0917 -0.2845
   11MOL   C81910439   0.849   2.420   3.278  0.8221  0.3927  0.2705
   11MOL   C82010440   0.898   2.384   3.422 -0.2855 -0.4314 -0.0450
   11MOL   C82110441   0.909   2.483   3.518  0.7351  0.4637  0.2130
   11MOL   C82210442   0.934   2.462   3.652  0.9656  0.3579 -0.0529
   11MOL   C82310443   0.931   2.325   3.695 -0.0791 -0.8006 -0.3800
   11MOL   C82410444   0.929   2.222   3.598 -0.1522  0.5225  0.3308
   11MOL   C82510445   0.917   2.253   3.459  0.5731 -0.2291 -0.7443
   11MOL   C82610446   0.901   2.136   3.363  0.0550  0.0881 -0.0503
   11MOL   N82710447   1.022   2.108   3.282  0.0014  0.2413 -0.1161
   11MOL   C82810448   1.022   2.050   3.162  0.3387  0.3385  0.5597
   11MOL   O82910449   0.918   2.014   3.117  0.4729  0.2918 -0.0604
   11MOL   C83010450   1.150   2.050   3.071 -0.0853 -0.1453 -0.1374
   11MOL   C83110451   1.137   1.996   2.930  0.0078 -0.1065  0.4358
   11MOL   C83210452   1.109   1.843   2.921  0.5691 -0.4342  0.3182
   11MOL   C83310453   1.102   1.803   2.765  0.1039 -0.3820 -0.2297
   11MOL   C83410454   1.039   1.661   2.741 -0.3113 -0.3511 -0.1937
   11MOL   C83510455   1.060   1.608   2.595 -0.1540  0.0430 -1.1646
   11MOL   C83610456   0.993   1.472   2.554 -0.1854 -0.1742 -0.0226
   11MOL   C83710457   1.042   1.354   2.636  0.6824  0.0352  0.5794
   11MOL   C83810458   1.192   1.319   2.614  0.3362  0.3059 -0.1550
   11MOL   O83910459   1.229   1.258   2.516 -0.0245  0.2462  0.2457
   11MOL   H84010460   0.645   2.358   3.261 -2.3052  1.4957  3.6008
   11MOL   H84110461   0.864   2.347   3.199 -0.3712  3.1174 -2.5772
   11MOL   H84210462   0.898   2.513   3.250 -0.7536  0.6407 -1.7262
   11MOL   H84310463   0.905   2.586   3.483  0.9597  0.6426  0.7110
   11MOL   H84410464   0.938   2.546   3.719  0.8474  0.0449  0.3488
   11MOL   H84510465   0.927   2.302   3.801 -1.4052 -1.2376 -0.5214
   11MOL   H84610466   0.937   2.124   3.641  0.1508  0.9572  1.2679
   11MOL   H84710467   0.803   2.144   3.316 -1.3209 -1.5306  2.3792
   11MOL   H84810468   0.890   2.052   3.432  2.2359  0.1202  0.3557
   11MOL   H84910469   1.110   2.140   3.320  0.5976 -0.6450 -0.7511
   11MOL   H85010470   1.217   1.976   3.116 -0.4278 -0.1349  0.3945
   11MOL   H85110471   1.197   2.148   3.083  1.2807 -0.8720  0.6279
   11MOL   H85210472   1.234   2.003   2.882 -0.8177  1.1031 -1.1286
   11MOL   H85310473   1.058   2.040   2.869  1.2130 -1.6860 -2.3958
   11MOL   H85410474   1.011   1.814   2.957  0.4925 -0.0530  0.4165
   11MOL   H85510475   1.186   1.785   2.971  1.4971  1.9615  1.7236
   11MOL   H85610476   1.047   1.881   2.713 -0.3814  0.3139  1.2906
   11MOL   H85710477   1.202   1.794   2.723  0.1964 -3.2438  0.4812
   11MOL   H85810478   1.080   1.590   2.813  1.5809  0.9951  0.1186
   11MOL   H85910479   0.932   1.663   2.758 -0.2823 -2.7720  0.3476
   11MOL   H86010480   1.166   1.594   2.578 -0.5515 -1.4478 -2.5557
   11MOL   H86110481   1.017   1.681   2.526 -0.6173 -0.9173 -1.9032
   11MOL   H86210482   1.004   1.448   2.448  2.6160 -0.3378  0.2476
   11MOL   H86310483   0.884   1.475   2.554 -0.2601 -2.0267 -1.2099
   11MOL   H86410484   1.022   1.356   2.743  0.4917  0.1396  0.5420
   11MOL   H86510485   0.994   1.264   2.597  3.8274 -1.0536 -1.0277
   11MOL   N86610486   1.269   1.329   2.717 -0.0192  0.1064 -0.2069
   11MOL   C86710487   1.413   1.314   2.717 -0.1616 -0.7021  0.0871
   11MOL   C86810488   1.478   1.445   2.673 -0.1256  0.5272 -0.3122
   11MOL   C86910489   1.473   1.557   2.757 -0.3599 -0.5701  0.1928
   11MOL   C87010490   1.512   1.692   2.727  0.8512 -0.3009 -0.2326
   11MOL   C87110491   1.557   1.711   2.598  0.2010 -0.3975  0.0278
   11MOL   C87210492   1.573   1.604   2.508 -0.4003  0.6484 -0.3073
   11MOL   C87310493   1.539   1.473   2.548 -0.6859  0.3122 -0.2125
   11MOL   C87410494   1.565   1.365   2.447  0.0124 -0.0442 -0.4612
   11MOL   N87510495   1.667   1.392   2.341  0.7390  0.4959 -0.1745
   11MOL   C87610496   1.641   1.383   2.211  0.3520 -0.3684  0.2069
   11MOL   O87710497   1.528   1.379   2.167  0.3083  0.5770  1.0256
   11MOL   C87810498   1.760   1.392   2.109 -0.2874 -0.2029  0.0816
   11MOL   C87910499   1.727   1.435   1.965 -0.1747  0.7352 -0.0540
   11MOL   C88010500   1.683   1.318   1.874 -0.0933  0.5361  0.6416
   11MOL   C88110501   1.643   1.374   1.736 -0.3334 -0.4810  0.1676
   11MOL   C88210502   1.745   1.461   1.659 -0.1839 -0.2686  0.5276
   11MOL   C88310503   1.696   1.496   1.524 -0.2872 -0.2606 -0.2419
   11MOL   C88410504   1.805   1.579   1.455  0.2944  0.1278  0.3727
   11MOL   C88510505   1.760   1.623   1.321 -0.0805  0.0500 -0.4281
   11MOL   C88610506   1.761   1.506   1.213 -0.1948 -0.1297 -0.6261
   11MOL   O88710507   1.838   1.411   1.233  0.3399  0.6825  0.1692
   11MOL   H88810508   1.230   1.380   2.795  2.2002  0.7717  0.4976
   11MOL   H88910509   1.442   1.301   2.821  0.6116 -0.0949 -0.0436
   11MOL   H89010510   1.438   1.236   2.645 -2.6020  0.9250 -2.6310
   11MOL   H89110511   1.431   1.555   2.857 -0.5697 -1.0822  0.0998
   11MOL   H89210512   1.505   1.767   2.805 -1.1289 -1.4513  0.7118
   11MOL   H89310513   1.577   1.813   2.567 -1.1275  0.1831  0.9891
   11MOL   H89410514   1.614   1.618   2.409 -0.0664 -1.8275 -0.5454
   11MOL   H89510515   1.468   1.338   2.405 -0.3630  0.6438 -0.0523
   11MOL   H89610516   1.616   1.282   2.494  2.6140  0.5460 -2.1080
   11MOL   H89710517   1.754   1.436   2.370  1.2744  0.3745 -1.5763
   11MOL   H89810518   1.802   1.291   2.105 -0.6320 -0.3532  0.2584
   11MOL   H89910519   1.837   1.464   2.136  0.0481 -0.7469  0.6073
   11MOL   H90010520   1.817   1.478   1.921 -0.8087  0.5081 -1.6000
   11MOL   H90110521   1.657   1.518   1.976 -0.4183  0.2448  2.3022
   11MOL   H90210522   1.759   1.242   1.858 -0.3139  0.4827 -0.1800
   11MOL   H90310523   1.594   1.274   1.918  1.2135 -2.5364  0.3631
   11MOL   H90410524   1.616   1.284   1.681  1.7860  0.1674 -2.0545
   11MOL   H90510525   1.553   1.436   1.741  0.7175  1.1168 -0.3695
   11MOL   H90610526   1.760   1.557   1.707  0.5955 -0.0828 -0.0853
   11MOL   H90710527   1.838   1.405   1.652  0.1466  0.4648 -1.2856
   11MOL   H90810528   1.613   1.568   1.525  0.5418  0.7200 -0.5951
   11MOL   H90910529   1.666   1.410   1.464 -1.0392 -0.1370 -0.0448
   11MOL   H91010530   1.806   1.669   1.516 -3.6263 -0.1463  0.9976
   11MOL   H91110531   1.906   1.540   1.442  0.4533 -0.2755  2.6726
   11MOL   H91210532   1.659   1.665   1.323 -0.2511 -0.3217  3.5123
   11MOL   H91310533   1.834   1.694   1.286  1.8718 -1.8524 -0.2833
   11MOL   N91410534   1.700   1.526   1.099 -0.4531  0.8089 -0.4009
   11MOL   C91510535   1.702   1.441   0.975 -0.0409 -0.2796 -0.4662
   11MOL   C91610536   1.593   1.333   0.966 -0.6204  0.1971 -0.1424
   11MOL   C91710537   1.523   1.302   1.087  0.0728 -0.6357 -0.1996
   11MOL   C91810538   1.424   1.204   1.084  0.7342  0.3540  0.3535
   11MOL   C91910539   1.396   1.129   0.967 -0.1442  0.6636 -0.6612
   11MOL   C92010540   1.481   1.151   0.853 -0.1239 -0.2746 -0.3374
   11MOL   C92110541   1.569   1.262   0.845 -0.3628 -0.2137 -0.7991
   11MOL   C92210542   1.667   1.267   0.733  0.2120  0.4972  0.6737
   11MOL   N92310543   1.786   1.200   0.774  0.1393 -0.5717 -0.0165
   11MOL   C92410544   1.910   1.258   0.772 -0.1786 -0.0225 -0.4184
   11MOL   O92510545   1.943   1.365   0.721  1.1453 -0.2636  0.1903
   11MOL   C92610546   2.020   1.175   0.838  0.5926 -0.5626  0.1086
   11MOL   C92710547   2.126   1.252   0.915 -0.4936  0.0569 -0.0935
   11MOL   C92810548   2.090   1.317   1.047 -0.1107  0.2108  0.7628
   11MOL   C92910549   2.170   1.445   1.072 -0.0790  0.2685  0.0886
   11MOL   C93010550   2.129   1.569   0.988 -1.0012  0.1087 -0.8399
   11MOL   C93110551   2.189   1.701   1.034  0.0144  0.0203  0.4035
   11MOL   C93210552   2.126   1.828   0.984  0.1820 -0.1318 -0.2393
   11MOL   C93310553   2.157   1.829   0.833 -0.2894  0.3908  0.9772
   11MOL   C93410554   2.127   1.965   0.777 -0.5005  0.9029  0.5037
   11MOL   O93510555   2.020   1.985   0.714  0.4000 -0.1432 -0.1464
   11MOL   H93610556   1.638   1.605   1.093 -1.8647 -0.2561 -0.3370
   11MOL   H93710557   1.690   1.512   0.893 -0.6712 -0.0673 -0.1878
   11MOL   H93810558   1.803   1.401   0.967 -1.0824 -3.1377  0.0010
   11MOL   H93910559   1.553   1.345   1.181 -2.6449 -0.0269  0.4137
   11MOL   H94010560   1.374   1.165   1.172 -0.8713  2.8473  0.5843
   11MOL   H94110561   1.325   1.048   0.976  1.1384 -0.3666  0.6514
   11MOL   H94210562   1.471   1.083   0.769  2.0305 -1.4070  0.2996
   11MOL   H94310563   1.687   1.371   0.707 -0.4055  0.2288 -0.9734
   11MOL   H94410564   1.639   1.218   0.639  0.8786 -1.2556  1.3793
   11MOL   H94510565   1.780   1.110   0.820  1.0855 -0.8658 -0.4473
   11MOL   H94610566   2.062   1.121   0.753  1.1851 -2.4828  1.5859
   11MOL   H94710567   1.973   1.093   0.894 -1.2081  1.9647  2.4027
   11MOL   H94810568   2.165   1.323   0.842  0.6160  0.4549  0.8766
   11MOL   H94910569   2.204   1.178   0.929  0.0292  0.5892 -0.1517
   11MOL   H95010570   1.987   1.348   1.025 -0.3557 -1.3210 -0.2917
   11MOL   H95110571   2.092   1.248   1.132  0.8147 -0.6970  0.0121
   11MOL   H95210572   2.182   1.460   1.179 -2.8842  1.5224  0.2603
   11MOL   H95310573   2.272   1.428   1.035 -0.0140 -0.3410  0.5364
   11MOL   H95410574   2.020   1.570   0.985 -1.0660 -2.3818 -0.2278
   11MOL   H95510575   2.154   1.544   0.885  1.7437  0.4699 -0.3003
   11MOL   H95610576   2.179   1.710   1.142  0.8914  1.5981  0.3738
   11MOL   H95710577   2.296   1.708   1.012 -0.2218 -0.5435 -0.9736
   11MOL   H95810578   2.169   1.916   1.031 -0.9652  0.4994 -0.3676
   11MOL   H95910579   2.021   1.823   1.013 -0.2226 -1.1890 -1.7955
   11MOL   H96010580   2.096   1.753   0.785  1.2098  1.0166 -1.9808
   11MOL   H96110581   2.263   1.811   0.818 -0.2984  0.2016  1.1377
   11MOL   H96210582   2.194   2.049   0.793 -0.9929  0.9791  2.2287
   12MOL     N110583   0.152   6.765   5.619 -0.3704 -0.2424 -0.5030
   12MOL     C210584   0.223   6.680   5.529 -0.6786  0.3072 -0.1355
   12MOL     C310585   0.371   6.722   5.506  0.4836  0.2506  0.2126
   12MOL     C410586   0.472   6.675   5.600  0.2013  0.7876 -0.4162
   12MOL     C510587   0.607   6.702   5.584 -0.9507 -0.2763 -0.0678
   12MOL     C610588   0.650   6.782   5.478 -0.2193  0.4103  0.4529
   12MOL     C710589   0.550   6.829   5.386 -0.0321 -0.0258 -0.3771
   12MOL     C810590   0.412   6.806   5.398  0.0805  0.1251 -0.2710
   12MOL     C910591   0.298   6.864   5.311  0.2087 -0.0296 -0.4818
   12MOL    N1010592   0.341   6.919   5.185 -0.2056 -0.4384  0.3067
   12MOL    C1110593   0.387   6.850   5.080  0.4615  0.6472  0.1392
   12MOL    O1210594   0.391   6.723   5.079 -0.2786 -0.1627 -0.5697
   12MOL    C1310595   0.411   6.924   4.945 -1.3052  0.1097 -0.3548
   12MOL    C1410596   0.551   6.929   4.881 -0.2563  0.4876  0.1583
   12MOL    C1510597   0.631   7.048   4.936 -0.2589 -0.1577 -0.0374
   12MOL    C1610598   0.584   7.182   4.875 -0.1827  0.0405  0.8995
   12MOL    C1710599   0.687   7.295   4.907 -0.3089 -0.0784  0.0827
   12MOL    C1810600   0.652   7.440   4.851  0.4534 -0.0296  0.2853
   12MOL    C1910601   0.552   7.511   4.941 -0.2283  0.1427 -0.1050
   12MOL    C2010602   0.485   7.628   4.868  0.3383  0.2199 -0.4210
   12MOL    C2110603   0.564   7.760   4.884 -0.1931 -0.1181 -0.9488
   12MOL    O2210604   0.585   0.011   4.999  0.0547  0.2597  0.3157
   12MOL    H2310605   0.114   6.712   5.696 -1.1199  0.7799 -0.1617
   12MOL    H2410606   0.236   6.593   5.594  1.9599 -0.0235 -1.0556
   12MOL    H2510607   0.173   6.663   5.433  0.4738  0.8491 -0.8392
   12MOL    H2610608   0.437   6.611   5.679 -2.0919  0.6637 -1.4800
   12MOL    H2710609   0.682   6.666   5.653 -0.8935 -0.8961 -0.4488
   12MOL    H2810610   0.751   6.811   5.456 -0.5461  1.5295  0.4289
   12MOL    H2910611   0.585   6.900   5.314  0.5806 -0.5618 -0.6057
   12MOL    H3010612   0.256   6.950   5.363  1.2465 -1.0759  2.1502
   12MOL    H3110613   0.221   6.792   5.282 -0.7336  0.9296 -0.4073
   12MOL    H3210614   0.325   7.017   5.168  0.5222 -0.4361 -0.4094
   12MOL    H3310615   0.367   7.023   4.961  0.5282  1.1580 -1.6186
   12MOL    H3410616   0.338   6.873   4.882 -1.8916 -0.9135  1.1278
   12MOL    H3510617   0.544   6.939   4.773 -2.4829  0.3942  0.2676
   12MOL    H3610618   0.606   6.835   4.889 -1.0324  0.2077  2.5486
   12MOL    H3710619   0.640   7.041   5.044  0.4351 -2.5903 -0.2308
   12MOL    H3810620   0.736   7.039   4.909  0.2468  0.8232  1.5424
   12MOL    H3910621   0.564   7.177   4.768 -3.0812  1.3915  1.3281
   12MOL    H4010622   0.486   7.214   4.911 -2.5598 -4.1001 -1.4935
   12MOL    H4110623   0.698   7.295   5.016 -1.5998 -3.1110  0.2713
   12MOL    H4210624   0.789   7.261   4.892  1.3853  3.7910  2.2889
   12MOL    H4310625   0.611   7.432   4.750  0.2124  2.4306  0.1673
   12MOL    H4410626   0.738   7.505   4.840 -0.4757  1.9974  4.0528
   12MOL    H4510627   0.469   7.445   4.967  0.7634 -1.0719  0.0376
   12MOL    H4610628   0.593   7.548   5.034  0.2514 -1.4213  0.3273
   12MOL    H4710629   0.392   7.655   4.917  0.4242 -0.7700  0.2905
   12MOL    H4810630   0.464   7.613   4.762 -3.1497  4.8143 -0.5311
   12MOL    H4910631   0.072   6.802   5.571 -0.1426  1.5278  0.4427
   12MOL    N5010632   0.604   0.033   4.774 -0.7501 -0.3501  0.0841
   12MOL    C5110633   0.703   0.144   4.762 -0.0893 -0.2490 -0.3600
   12MOL    C5210634   0.650   0.262   4.681 -0.1720  0.0425  0.2832
   12MOL    C5310635   0.566   0.219   4.573 -0.2482  0.1081 -0.3827
   12MOL    C5410636   0.513   0.312   4.486 -0.4078  0.3796  0.6256
   12MOL    C5510637   0.527   0.450   4.516 -0.0510 -0.2644  0.6775
   12MOL    C5610638   0.611   0.498   4.620  0.4196  0.0270 -0.3697
   12MOL    C5710639   0.666   0.400   4.708 -1.0762 -0.2368  0.1172
   12MOL    C5810640   0.729   0.451   4.842 -0.2486  0.8981  0.4436
   12MOL    N5910641   0.862   0.494   4.815 -0.1571  0.3297  0.0973
   12MOL    C6010642   0.926   0.583   4.894  0.9945 -0.0366 -0.1224
   12MOL    O6110643   0.858   0.654   4.968 -0.0034  0.0565 -0.0197
   12MOL    C6210644   1.074   0.598   4.872 -0.8426 -0.4224 -0.3539
   12MOL    C6310645   1.148   0.686   4.978  0.1318  0.2781  0.0234
   12MOL    C6410646   1.213   0.809   4.923  0.1759  0.5182  0.5110
   12MOL    C6510647   1.107   0.920   4.891  0.6940  0.3465  0.0903
   12MOL    C6610648   1.161   1.053   4.841 -0.0471 -0.1401  0.5343
   12MOL    C6710649   1.058   1.165   4.859  0.2795  0.0879 -0.6710
   12MOL    C6810650   1.113   1.302   4.805  0.5010 -0.2849 -0.0104
   12MOL    C6910651   1.037   1.430   4.843  0.2202  0.3645  0.2726
   12MOL    C7010652   0.897   1.462   4.778 -0.0352 -0.0773  0.9695
   12MOL    O7110653   0.834   1.375   4.723  0.5640 -0.1519  0.2337
   12MOL    H7210654   0.574   7.776   4.690 -1.4516  2.2044 -1.1356
   12MOL    H7310655   0.782   0.101   4.701  0.9537 -0.4338  1.0965
   12MOL    H7410656   0.745   0.163   4.861 -2.2813  1.4418  0.2772
   12MOL    H7510657   0.548   0.115   4.551  2.2139 -0.3628 -0.2826
   12MOL    H7610658   0.445   0.291   4.404  0.8643 -0.2708 -0.2870
   12MOL    H7710659   0.475   0.527   4.461 -0.3680 -1.2117 -0.3593
   12MOL    H7810660   0.606   0.601   4.652  2.8326  0.1440 -0.2748
   12MOL    H7910661   0.729   0.371   4.917 -0.6894 -0.0398 -0.5407
   12MOL    H8010662   0.658   0.523   4.882 -1.4248 -0.1195  0.2303
   12MOL    H8110663   0.911   0.455   4.735 -1.3769  0.1380 -0.5731
   12MOL    H8210664   1.092   0.633   4.770  1.7024  0.1946  0.2663
   12MOL    H8310665   1.115   0.497   4.875 -0.4626 -0.2204  1.7530
   12MOL    H8410666   1.225   0.619   5.017  0.4558  1.4220  1.3964
   12MOL    H8510667   1.087   0.719   5.062  1.8729  1.3486  0.8992
   12MOL    H8610668   1.272   0.849   5.005  1.3056 -1.0283  0.4843
   12MOL    H8710669   1.282   0.789   4.841 -0.8876  2.4062 -0.8757
   12MOL    H8810670   1.022   0.883   4.833 -0.9822  1.8721  1.5096
   12MOL    H8910671   1.067   0.949   4.988  2.2983  2.0903  0.2615
   12MOL    H9010672   1.257   1.084   4.882 -0.3545  1.2146  0.2709
   12MOL    H9110673   1.172   1.037   4.734 -0.3271  1.1624  0.2922
   12MOL    H9210674   1.025   1.181   4.962 -0.5118  3.0838 -1.3403
   12MOL    H9310675   0.967   1.138   4.805  0.4856  0.5707 -1.2748
   12MOL    H9410676   1.126   1.308   4.697  0.5557  2.8072  0.1367
   12MOL    H9510677   1.218   1.316   4.833  0.4039 -1.9262  1.3112
   12MOL    H9610678   1.103   1.515   4.828 -0.3590  1.0954  1.7744
   12MOL    H9710679   1.024   1.412   4.949 -2.4587 -0.6309 -0.1779
   12MOL    N9810680   0.845   1.583   4.802 -0.0183 -0.3528 -0.3039
   12MOL    C9910681   0.722   1.634   4.730 -0.8599  0.5254 -0.0194
   12MOL   C10010682   0.741   1.690   4.589 -0.4965 -0.5391  0.1784
   12MOL   C10110683   0.833   1.795   4.570 -0.1845  0.1314  0.0989
   12MOL   C10210684   0.847   1.853   4.438  0.0074  0.5351  0.2923
   12MOL   C10310685   0.757   1.814   4.339 -1.0424 -0.0243  0.3807
   12MOL   C10410686   0.675   1.703   4.358 -0.0386 -0.2261  0.1421
   12MOL   C10510687   0.663   1.640   4.479  0.2736  0.9791 -0.8871
   12MOL   C10610688   0.576   1.521   4.478  0.0062  0.1822  0.1776
   12MOL   N10710689   0.660   1.399   4.490  0.2140  0.1036 -0.2732
   12MOL   C10810690   0.674   1.308   4.392 -0.0164  0.1895  0.1579
   12MOL   O10910691   0.634   1.329   4.277 -0.3498 -0.0103  0.0691
   12MOL   C11010692   0.747   1.180   4.432 -0.1720  0.0906  0.5562
   12MOL   C11110693   0.898   1.174   4.418 -0.5537 -0.1356  0.2944
   12MOL   C11210694   0.960   1.044   4.482 -0.7953 -0.0282  0.2248
   12MOL   C11310695   1.114   1.035   4.458  0.1391 -0.1111  0.6959
   12MOL   C11410696   1.180   0.895   4.479  0.4076  0.1913 -0.2238
   12MOL   C11510697   1.332   0.902   4.469 -0.0215  0.5395  0.3572
   12MOL   C11610698   1.392   0.773   4.528 -0.2228  0.0176 -0.2146
   12MOL   C11710699   1.542   0.767   4.509  0.1024 -0.1603 -0.2551
   12MOL   C11810700   1.598   0.631   4.544  0.0688 -0.1862  0.3180
   12MOL   O11910701   1.546   0.569   4.640 -0.3651 -0.6056 -0.7031
   12MOL   H12010702   0.907   1.646   4.852  2.6294 -3.9232  1.1336
   12MOL   H12110703   0.649   1.554   4.743 -0.0297 -0.2290  0.0560
   12MOL   H12210704   0.687   1.717   4.791 -1.6751  0.8702 -0.9562
   12MOL   H12310705   0.887   1.833   4.655  0.5037 -1.5067  0.4157
   12MOL   H12410706   0.906   1.942   4.423  0.6108  0.0759 -0.0673
   12MOL   H12510707   0.739   1.871   4.249 -0.9487  2.2098  1.7618
   12MOL   H12610708   0.605   1.683   4.278  2.7815 -1.3949 -2.1108
   12MOL   H12710709   0.519   1.522   4.386  1.1519  2.9453 -0.5483
   12MOL   H12810710   0.503   1.528   4.559 -0.0178 -0.3940  0.2124
   12MOL   H12910711   0.707   1.394   4.580  0.2208  1.5397 -0.1908
   12MOL   H13010712   0.692   1.109   4.371 -2.2804  0.2006  2.2637
   12MOL   H13110713   0.724   1.162   4.537 -1.2595 -0.0784  0.2879
   12MOL   H13210714   0.948   1.262   4.458  1.3714  0.5508 -3.3798
   12MOL   H13310715   0.920   1.170   4.311 -0.8704  0.6314  0.1934
   12MOL   H13410716   0.947   1.036   4.590 -1.5536 -1.7535  0.0280
   12MOL   H13510717   0.915   0.955   4.439  2.8637 -1.8614  0.0782
   12MOL   H13610718   1.140   1.066   4.357 -4.8734  1.1214 -0.3758
   12MOL   H13710719   1.160   1.112   4.520 -1.3863 -0.2850  2.0851
   12MOL   H13810720   1.165   0.869   4.583  0.1639 -0.7212 -0.4839
   12MOL   H13910721   1.142   0.815   4.415  3.7630 -1.7058  0.0389
   12MOL   H14010722   1.358   0.986   4.534 -1.7957  3.3220 -2.4014
   12MOL   H14110723   1.363   0.923   4.367  1.7222 -0.2064  0.7039
   12MOL   H14210724   1.357   0.766   4.631 -1.9210  3.8248 -0.4719
   12MOL   H14310725   1.343   0.681   4.494 -0.2697  0.2459 -0.7749
   12MOL   H14410726   1.594   0.839   4.572 -0.9622  0.1240  0.3125
   12MOL   H14510727   1.577   0.797   4.411  0.2145  2.3424  0.4965
   12MOL   N14610728   1.708   0.586   4.479 -0.0673 -0.4415  0.2968
   12MOL   C14710729   1.778   0.460   4.489  0.1288  0.8573 -0.1425
   12MOL   C14810730   1.824   0.411   4.350  0.3050  0.7371 -0.3602
   12MOL   C14910731   1.962   0.381   4.336  0.2535  0.4197 -0.1682
   12MOL   C15010732   2.013   0.332   4.216 -0.4363  0.1602  0.0304
   12MOL   C15110733   1.925   0.303   4.108 -0.6118 -0.2962 -0.4675
   12MOL   C15210734   1.790   0.327   4.126  0.1017 -0.2926 -0.1482
   12MOL   C15310735   1.732   0.378   4.248 -0.0624  0.4667 -0.6048
   12MOL   C15410736   1.581   0.393   4.261  0.3124 -0.6304  0.8578
   12MOL   N15510737   1.526   0.499   4.172 -0.0577 -0.0428 -0.2325
   12MOL   C15610738   1.394   0.525   4.173 -0.6592 -0.7921 -0.3727
   12MOL   O15710739   1.312   0.465   4.236  0.3966 -0.8915  0.0510
   12MOL   C15810740   1.345   0.651   4.101 -0.0156  0.3462  0.0186
   12MOL   C15910741   1.207   0.634   4.029 -0.6316  0.2980  0.0008
   12MOL   C16010742   1.210   0.567   3.893 -0.2307 -0.7780 -0.7595
   12MOL   C16110743   1.280   0.429   3.888 -0.4158  0.0494 -0.2269
   12MOL   C16210744   1.200   0.316   3.954 -0.3853 -0.7019  0.6118
   12MOL   C16310745   1.276   0.195   3.989 -0.0183 -0.1256 -0.5259
   12MOL   C16410746   1.191   0.091   4.061  0.2267 -1.2371  0.2335
   12MOL   C16510747   1.281   7.784   4.150  0.3022 -0.6595  0.0033
   12MOL   C16610748   1.199   7.699   4.246 -0.0315 -0.4187  0.1169
   12MOL   O16710749   1.074   7.693   4.236 -0.1607 -0.1260  0.5984
   12MOL   H16810750   1.731   0.640   4.396 -3.4108 -0.7955 -0.9231
   12MOL   H16910751   1.710   0.390   4.538  0.1690 -2.4114 -4.4665
   12MOL   H17010752   1.871   0.478   4.545  0.1752  0.8967 -0.2321
   12MOL   H17110753   2.026   0.413   4.417 -0.4307  2.9376 -0.5609
   12MOL   H17210754   2.120   0.330   4.203 -0.6123  0.3719 -1.6600
   12MOL   H17310755   1.965   0.273   4.012  0.0390  0.7080 -0.5209
   12MOL   H17410756   1.729   0.298   4.041  0.8911 -1.4703 -0.3303
   12MOL   H17510757   1.551   0.409   4.365 -2.3605 -0.1797  0.0505
   12MOL   H17610758   1.526   0.304   4.231 -0.2373  0.1338 -0.4310
   12MOL   H17710759   1.586   0.560   4.117 -0.9117 -0.1108 -1.2592
   12MOL   H17810760   1.418   0.692   4.031  1.1492 -2.3721 -0.3915
   12MOL   H17910761   1.330   0.728   4.178 -0.4192 -1.0809  1.3861
   12MOL   H18010762   1.154   0.729   4.024 -1.3132 -0.0430  0.5665
   12MOL   H18110763   1.146   0.562   4.085 -1.7703  1.6741  0.5798
   12MOL   H18210764   1.107   0.568   3.857  0.0311 -1.2301 -1.5447
   12MOL   H18310765   1.270   0.632   3.828 -0.9189 -0.3433 -0.9690
   12MOL   H18410766   1.292   0.392   3.787  1.7829  2.6907 -0.9628
   12MOL   H18510767   1.382   0.437   3.926 -0.1679 -0.2480 -0.8326
   12MOL   H18610768   1.162   0.356   4.048 -0.4571  0.1176  0.2335
   12MOL   H18710769   1.109   0.299   3.896 -0.1532  3.1301 -1.0505
   12MOL   H18810770   1.356   0.224   4.057  1.1372  1.3309 -2.4414
   12MOL   H18910771   1.314   0.160   3.893  2.0028  2.4763 -0.7370
   12MOL   H19010772   1.114   0.134   4.124  0.7257  0.9439 -0.6060
   12MOL   H19110773   1.134   0.030   3.991  0.5945 -0.0817 -1.0812
   12MOL   H19210774   1.367   0.044   4.194  0.3548 -0.2572 -0.5554
   12MOL   H19310775   1.338   7.714   4.089 -0.3544 -1.1158 -0.0941
   12MOL   N19410776   1.268   7.632   4.337  0.4784 -0.5602 -0.4138
   12MOL   C19510777   1.217   7.547   4.450  0.5939 -0.4272 -0.0045
   12MOL   C19610778   1.180   7.618   4.580  0.8640 -0.5580  0.6417
   12MOL   C19710779   1.288   7.679   4.649 -0.5115  0.3401  0.4055
   12MOL   C19810780   1.268   7.735   4.777 -0.6236  0.1035  0.2118
   12MOL   C19910781   1.145   7.739   4.838  0.2195  0.1006  0.0322
   12MOL   C20010782   1.038   7.678   4.770  0.8449  0.1381 -0.6907
   12MOL   C20110783   1.059   7.609   4.645  0.5247  0.0271  0.0905
   12MOL   C20210784   0.937   7.534   4.579  0.1001  0.0931 -0.0592
   12MOL   N20310785   0.884   7.598   4.456 -0.2181 -0.3479  0.3898
   12MOL   C20410786   0.768   7.660   4.444 -0.0873  0.2289 -0.3725
   12MOL   O20510787   0.680   7.661   4.530 -0.0881 -0.9198 -0.0451
   12MOL   C20610788   0.744   7.712   4.306  0.1788  0.1870  0.2106
   12MOL   C20710789   0.604   7.686   4.253  0.6162  0.0774  0.3419
   12MOL   C20810790   0.592   7.756   4.112 -0.3019  0.1004  0.3057
   12MOL   C20910791   0.583   0.113   4.122  0.3087 -0.2927 -0.1621
   12MOL   C21010792   0.495   0.172   4.015  0.3427  0.1221  0.4941
   12MOL   C21110793   0.468   0.326   4.015  0.2882  1.1774 -1.0172
   12MOL   C21210794   0.426   0.391   4.145 -0.1676  0.0443  0.9722
   12MOL   C21310795   0.386   0.540   4.142  0.4896 -0.7376  0.0833
   12MOL   C21410796   0.323   0.589   4.277  0.5015 -0.0102  1.2745
   12MOL   O21510797   0.240   0.510   4.323  0.2953  0.0590 -0.0297
   12MOL   H21610798   1.369   7.636   4.340  0.4792 -0.9822  0.1459
   12MOL   H21710799   1.129   7.495   4.414  1.7595 -0.3957 -3.0723
   12MOL   H21810800   1.277   7.458   4.468 -0.1583 -0.3557  2.9901
   12MOL   H21910801   1.387   7.684   4.606 -0.5667 -0.5851  0.1416
   12MOL   H22010802   1.344   7.783   4.837  0.0054 -1.1808  0.4659
   12MOL   H22110803   1.141   7.783   4.937 -2.2425 -2.9633  1.4090
   12MOL   H22210804   0.940   7.678   4.816  1.6325 -0.7044  1.0047
   12MOL   H22310805   0.859   7.533   4.655  0.8344 -3.7557  0.7027
   12MOL   H22410806   0.959   7.431   4.551 -0.1399 -0.6995  2.5481
   12MOL   H22510807   0.947   7.612   4.378 -1.3214 -1.0838 -0.6421
   12MOL   H22610808   0.813   7.661   4.238  1.3357  0.1552  1.3835
   12MOL   H22710809   0.766   0.029   4.310 -1.2509  0.4922  0.0931
   12MOL   H22810810   0.589   7.578   4.239 -1.6743  0.4087  0.0914
   12MOL   H22910811   0.531   7.729   4.322 -1.6920  0.3279 -2.1712
   12MOL   H23010812   0.669   7.738   4.038 -1.5496  4.9400 -2.3750
   12MOL   H23110813   0.506   7.706   4.067 -0.7026 -1.4257  2.6461
   12MOL   H23210814   0.561   0.146   4.223 -0.0628 -0.4415 -0.1924
   12MOL   H23310815   0.681   0.158   4.110  0.0453  0.4675  0.5129
   12MOL   H23410816   0.522   0.131   3.918 -0.7851 -0.0116  0.2301
   12MOL   H23510817   0.401   0.119   4.030 -0.3651  1.7243  1.8816
   12MOL   H23610818   0.389   0.350   3.943  0.1730  2.3031 -0.5274
   12MOL   H23710819   0.550   0.386   3.977  0.5570  0.4055 -1.6847
   12MOL   H23810820   0.506   0.385   4.219 -0.0933 -0.0494  0.8838
   12MOL   H23910821   0.344   0.330   4.183 -0.4236 -0.3722 -0.2559
   12MOL   H24010822   0.484   0.585   4.126 -0.2884  0.4818 -1.3433
   12MOL   H24110823   0.326   0.571   4.057  0.9389 -1.1176 -0.3768
   12MOL   N24210824   0.348   0.711   4.327  0.5307  0.5004 -0.8537
   12MOL   C24310825   0.281   0.765   4.450  0.0060  0.2343  0.3043
   12MOL   C24410826   0.365   0.859   4.535 -0.0141 -0.0086  0.0503
   12MOL   C24510827   0.502   0.826   4.548 -0.7415  0.0132 -0.1595
   12MOL   C24610828   0.585   0.918   4.613 -0.3417 -0.7861  1.0885
   12MOL   C24710829   0.531   1.034   4.684 -0.5598 -0.5848  0.3861
   12MOL   C24810830   0.391   1.057   4.681 -0.3580 -0.0379 -0.1046
   12MOL   C24910831   0.311   0.976   4.602  0.1364  0.0687 -0.4645
   12MOL   C25010832   0.170   1.021   4.596 -0.2349  0.6300 -1.0980
   12MOL   N25110833   0.076   0.924   4.637 -0.2107  0.0205  0.3539
   12MOL   C25210834   7.759   0.881   4.566  0.5271  0.4226  0.0035
   12MOL   O25310835   7.731   0.905   4.447 -0.1503 -0.1098 -0.4337
   12MOL   C25410836   7.673   0.789   4.648  1.5041  0.2579 -0.3212
   12MOL   C25510837   7.661   0.655   4.569  0.2628  0.5634 -0.0619
   12MOL   C25610838   7.622   0.533   4.666 -0.6794  0.5397  0.6952
   12MOL   C25710839   7.589   0.398   4.596 -0.6354  0.1810 -0.1708
   12MOL   C25810840   7.551   0.295   4.707 -0.5313  0.4760 -0.0186
   12MOL   C25910841   7.542   0.147   4.658  0.2672  0.7731  0.2281
   12MOL   C26010842   7.505   0.061   4.780  0.3531 -0.3400 -0.4423
   12MOL   C26110843   7.618   0.044   4.883 -1.0362  0.0733  0.2903
   12MOL   C26210844   7.738   7.758   4.836  0.1122 -0.0726 -0.4999
   12MOL   O26310845   7.728   7.636   4.822  0.1326  0.6911 -0.6216
   12MOL   H26410846   0.425   0.768   4.296  0.6102  1.3708  0.9165
   12MOL   H26510847   0.180   0.799   4.427  0.5547  2.4381  1.0430
   12MOL   H26610848   0.273   0.682   4.520  0.7606  1.6888  2.1296
   12MOL   H26710849   0.544   0.745   4.492 -0.9716  0.3131 -0.7735
   12MOL   H26810850   0.691   0.903   4.609 -0.2715  0.1143 -0.8088
   12MOL   H26910851   0.599   1.092   4.743 -0.5555 -0.7801  0.5737
   12MOL   H27010852   0.354   1.143   4.736  0.2008  0.4705 -0.5274
   12MOL   H27110853   0.149   1.060   4.496 -1.9698 -3.4712 -2.4018
   12MOL   H27210854   0.163   1.099   4.672  0.4915  0.2494 -0.6386
   12MOL   H27310855   0.083   0.889   4.732  0.3654  0.0902  0.3411
   12MOL   H27410856   7.579   0.843   4.651  0.7060 -0.9914 -2.0217
   12MOL   H27510857   7.705   0.783   4.752 -1.1630 -0.9631  0.4718
   12MOL   H27610858   7.759   0.637   4.525  0.3416  0.6163  0.0894
   12MOL   H27710859   7.575   0.655   4.501 -0.3013  0.0432  0.6458
   12MOL   H27810860   7.538   0.558   4.730 -0.8653  1.2656  0.1791
   12MOL   H27910861   7.700   0.521   4.741 -1.1899  2.0751  1.4903
   12MOL   H28010862   7.508   0.406   4.523  0.4760 -1.5341 -1.6494
   12MOL   H28110863   7.676   0.360   4.542  0.4775  1.6181  0.5827
   12MOL   H28210864   7.629   0.293   4.783 -0.4183 -2.2019 -0.1586
   12MOL   H28310865   7.453   0.321   4.748  0.0907  1.3415  0.9310
   12MOL   H28410866   7.633   0.125   4.603 -1.6843  1.8171 -3.6291
   12MOL   H28510867   7.463   0.145   4.582 -1.1696 -0.7750  1.7007
   12MOL   H28610868   7.417   0.103   4.827  2.2572  4.1713 -0.6667
   12MOL   H28710869   7.490   7.749   4.745 -1.5033 -1.2582  2.8065
   12MOL   H28810870   7.651   0.139   4.924 -5.2058  1.4787  0.5351
   12MOL   H28910871   7.581   7.784   4.972 -0.8162  1.8145  1.3716
   12MOL   N29010872   0.049   0.043   4.784 -0.0081 -0.6575  0.5722
   12MOL   C29110873   0.178   7.778   4.735 -0.1542  0.0390  0.0067
   12MOL   C29210874   0.201   7.778   4.584 -0.1338  0.1241 -0.0500
   12MOL   C29310875   0.242   7.661   4.522 -0.7053 -0.7388  0.2073
   12MOL   C29410876   0.253   7.646   4.382 -0.2829  0.0842  0.1900
   12MOL   C29510877   0.247   7.764   4.304  0.0187 -0.1571 -0.2178
   12MOL   C29610878   0.225   0.097   4.364  0.4112 -0.5328 -1.0025
   12MOL   C29710879   0.197   0.108   4.503  0.0144 -0.2403  0.0875
   12MOL   C29810880   0.171   0.250   4.566 -0.3064 -0.4215 -0.1958
   12MOL   N29910881   0.270   0.292   4.672 -0.0535 -0.2288  0.3176
   12MOL   C30010882   0.229   0.332   4.796  0.1929 -0.8908 -0.5045
   12MOL   O30110883   0.114   0.321   4.831 -0.1097  0.1278  0.6376
   12MOL   C30210884   0.339   0.385   4.888 -0.2324  0.5213 -0.1484
   12MOL   C30310885   0.293   0.493   4.992 -0.0246 -0.0285  0.0355
   12MOL   C30410886   0.276   0.637   4.940  0.0652  0.5204  0.2593
   12MOL   C30510887   0.382   0.738   4.988 -0.4135  0.2884  0.0126
   12MOL   C30610888   0.357   0.899   4.977 -0.5687 -0.1548 -0.5556
   12MOL   C30710889   0.285   0.963   5.093 -0.9378  0.7199  0.0406
   12MOL   C30810890   0.249   1.107   5.075 -0.3472  0.3787  0.4223
   12MOL   C30910891   0.181   1.140   5.213  0.5644 -0.5741 -0.3064
   12MOL   C31010892   0.111   1.278   5.218 -0.7537  1.0889 -0.3160
   12MOL   O31110893   0.134   1.350   5.125  0.6614 -0.4088 -0.2420
   12MOL   H31210894   0.045   0.144   4.788 -1.2796 -0.6955  0.5018
   12MOL   H31310895   0.260   0.035   4.790 -1.5754 -0.4735  2.6651
   12MOL   H31410896   0.177   7.674   4.766 -1.7309 -0.1327 -0.5703
   12MOL   H31510897   0.239   7.569   4.578 -0.8002 -0.6466  0.3530
   12MOL   H31610898   0.266   7.549   4.337 -1.1287 -0.6407  1.4733
   12MOL   H31710899   0.272   7.750   4.200  0.4033 -0.1302 -0.1277
   12MOL   H31810900   0.226   0.189   4.306 -3.2752 -0.0340 -0.3790
   12MOL   H31910901   0.068   0.247   4.601 -2.0117 -1.9468 -4.9065
   12MOL   H32010902   0.156   0.325   4.488 -1.0858  0.1557  0.4905
   12MOL   H32110903   0.361   0.329   4.649 -0.5072  0.4030 -0.5184
   12MOL   H32210904   0.388   0.297   4.931  1.0400  0.1057 -2.3733
   12MOL   H32310905   0.418   0.423   4.823  1.3580  1.4975  2.2762
   12MOL   H32410906   0.363   0.498   5.075 -1.0868 -4.3223  1.3190
   12MOL   H32510907   0.204   0.459   5.046  0.0563 -0.3912 -0.0575
   12MOL   H32610908   0.174   0.659   4.970 -1.3636 -1.5185 -2.8794
   12MOL   H32710909   0.264   0.640   4.832 -0.5692 -1.2016  0.2713
   12MOL   H32810910   0.415   0.725   5.091 -1.9388  1.1868  0.6432
   12MOL   H32910911   0.480   0.720   4.943 -0.6688 -0.9059 -0.0689
   12MOL   H33010912   0.453   0.950   4.986 -2.6394  3.9872 -0.6280
   12MOL   H33110913   0.310   0.923   4.881  0.4437  1.7853 -0.5993
   12MOL   H33210914   0.339   0.956   5.187  0.8564 -0.6710 -1.0628
   12MOL   H33310915   0.184   0.924   5.105 -0.5466 -0.4427 -0.3523
   12MOL   H33410916   0.339   1.167   5.056  1.8092 -2.9519 -0.1992
   12MOL   H33510917   0.183   1.111   4.988  0.6814 -1.3112 -0.4607
   12MOL   H33610918   0.100   1.071   5.237  1.6111 -1.5891  0.3478
   12MOL   H33710919   0.256   1.145   5.292  1.2137 -0.7268 -0.9172
   12MOL   N33810920   0.040   1.315   5.324  0.3211 -0.0524 -0.0001
   12MOL   C33910921   7.773   1.439   5.358  0.5279  0.1872 -0.7881
   12MOL   C34010922   0.008   1.463   5.504  0.1642  0.3011 -0.1309
   12MOL   C34110923   7.718   1.384   5.593  0.1034  0.3138 -0.2928
   12MOL   C34210924   7.740   1.394   5.728 -0.4456 -0.7703 -0.4056
   12MOL   C34310925   0.050   1.476   5.781  0.1240  0.2417  0.3550
   12MOL   C34410926   0.130   1.554   5.694 -0.4891  0.4836 -0.5359
   12MOL   C34510927   0.107   1.554   5.552  0.5715 -0.1303  0.5982
   12MOL   C34610928   0.174   1.662   5.464 -0.3194  0.4410  0.2190
   12MOL   N34710929   0.292   1.611   5.389 -0.2393 -0.1648 -0.0827
   12MOL   C34810930   0.374   1.705   5.335 -0.7073  0.3784  0.0035
   12MOL   O34910931   0.348   1.822   5.316 -0.5312  0.2668 -0.3420
   12MOL   C35010932   0.508   1.650   5.283  0.7798 -0.5512  0.1843
   12MOL   C35110933   0.492   1.618   5.130 -0.2519 -0.0425  0.3561
   12MOL   C35210934   0.614   1.535   5.087 -0.1679  0.6415  0.3038
   12MOL   C35310935   0.622   1.389   5.130 -0.0915  0.1642 -0.9308
   12MOL   C35410936   0.753   1.334   5.085 -0.0129  0.3893  0.4639
   12MOL   C35510937   0.781   1.184   5.128 -0.5431  0.1420 -0.0913
   12MOL   C35610938   0.704   1.081   5.035 -0.5511 -0.0911 -0.6081
   12MOL   C35710939   0.733   0.932   5.048  0.2908  0.0383  0.2266
   12MOL   C35810940   0.688   0.866   5.180  1.1380  0.6171 -0.2442
   12MOL   O35910941   0.589   0.907   5.241  0.4514 -0.5945  0.9961
   12MOL   H36010942   0.033   1.239   5.391 -1.0925  2.3281  2.7126
   12MOL   H36110943   0.023   1.521   5.298 -1.2323  0.3938 -1.6878
   12MOL   H36210944   7.666   1.430   5.341  0.5221 -0.8866 -0.2166
   12MOL   H36310945   7.645   1.312   5.561  2.2474 -1.0187 -2.4204
   12MOL   H36410946   7.680   1.331   5.791  0.7160 -0.7932  0.7132
   12MOL   H36510947   0.057   1.484   5.889  0.3017 -2.5694  0.5720
   12MOL   H36610948   0.199   1.626   5.734 -0.0274 -0.5104  0.4779
   12MOL   H36710949   0.189   1.763   5.502  0.0184  0.4007  0.1983
   12MOL   H36810950   0.092   1.688   5.397 -0.3491  0.2320  0.1740
   12MOL   H36910951   0.316   1.514   5.406  0.8679  0.2857  1.0050
   12MOL   H37010952   0.540   1.557   5.329 -0.6193 -2.3895 -2.4188
   12MOL   H37110953   0.589   1.722   5.295 -0.1793  0.8610 -1.4774
   12MOL   H37210954   0.489   1.710   5.072  2.4984  0.7122  1.3317
   12MOL   H37310955   0.395   1.572   5.111  0.2511 -1.1865  0.4962
   12MOL   H37410956   0.610   1.530   4.978  0.0118 -2.4834  0.3874
   12MOL   H37510957   0.707   1.591   5.097  0.8805 -1.2462  1.3555
   12MOL   H37610958   0.538   1.327   5.098 -0.3505  0.2637 -0.4486
   12MOL   H37710959   0.608   1.376   5.237  0.9956  0.6234 -0.7240
   12MOL   H37810960   0.752   1.342   4.976  0.4861 -0.1802  0.4190
   12MOL   H37910961   0.838   1.393   5.119  0.1011 -0.3250  1.4178
   12MOL   H38010962   0.761   1.162   5.233 -0.8010  1.6884  0.1988
   12MOL   H38110963   0.889   1.173   5.117 -0.6903  1.4038 -3.3882
   12MOL   H38210964   0.597   1.097   5.043 -0.6783 -1.0386 -0.3546
   12MOL   H38310965   0.728   1.113   4.933 -0.5269 -0.0875 -0.6018
   12MOL   H38410966   0.842   0.934   5.051  0.2535  2.9296  0.5303
   12MOL   H38510967   0.697   0.869   4.966 -2.5261 -0.0240  1.4258
   12MOL   N38610968   0.759   0.756   5.220  0.2543  0.1360  0.0723
   12MOL   C38710969   0.749   0.671   5.339 -0.0908 -0.4134 -0.1693
   12MOL   C38810970   0.677   0.538   5.312 -0.1262  0.2366 -0.0406
   12MOL   C38910971   0.643   0.494   5.180 -0.0405 -0.5076 -0.1677
   12MOL   C39010972   0.595   0.366   5.154  0.3798  0.2319 -1.0260
   12MOL   C39110973   0.574   0.276   5.262  0.2209 -0.5933 -0.5943
   12MOL   C39210974   0.616   0.315   5.388 -0.0983  0.1914  0.7377
   12MOL   C39310975   0.657   0.445   5.418  0.4151  0.1374  0.7249
   12MOL   C39410976   0.672   0.486   5.568  0.0747 -0.5022  0.5324
   12MOL   N39510977   0.544   0.475   5.641  0.1292 -0.0930 -0.4222
   12MOL   C39610978   0.542   0.485   5.773 -0.4279 -0.0857 -0.2591
   12MOL   O39710979   0.645   0.515   5.831  0.4858  0.5157 -0.3459
   12MOL   C39810980   0.400   0.476   5.847  0.2702  0.3565  0.3699
   12MOL   C39910981   0.330   0.333   5.830  0.5032 -0.6215  0.7267
   12MOL   C40010982   0.196   0.330   5.912  0.0192 -0.6738  0.3546
   12MOL   C40110983   0.137   0.186   5.928  0.4407  0.3962  0.3084
   12MOL   C40210984   0.001   0.191   6.000  0.2490 -0.1285 -1.2471
   12MOL   C40310985   7.735   0.055   6.020 -0.6031  0.5582 -0.5588
   12MOL   C40410986   7.600   0.051   6.101 -0.1115 -0.2790 -0.0537
   12MOL   C40510987   7.482   0.127   6.035  0.4748 -0.2662 -0.5656
   12MOL   C40610988   7.466   0.274   6.049 -0.1019 -0.2089 -0.2407
   12MOL   O40710989   7.530   0.326   6.146 -0.3644 -0.2276 -0.2655
   12MOL   H40810990   0.839   0.742   5.160  0.6203 -0.1391  0.6237
   12MOL   H40910991   0.849   0.664   5.383 -1.0361 -3.9390  1.6131
   12MOL   H41010992   0.686   0.723   5.411  0.0056  0.7010 -0.8734
   12MOL   H41110993   0.651   0.554   5.090 -0.3768 -1.7933 -1.0564
   12MOL   H41210994   0.562   0.333   5.056 -2.5451  0.6654 -0.2281
   12MOL   H41310995   0.541   0.175   5.244  1.1786 -0.5564 -2.7059
   12MOL   H41410996   0.614   0.242   5.468  0.7133 -0.5009  0.1300
   12MOL   H41510997   0.711   0.587   5.571 -1.5467  0.2696 -2.6839
   12MOL   H41610998   0.745   0.416   5.609  0.0554 -0.6541  0.3072
   12MOL   H41710999   0.468   0.433   5.590  0.1344 -2.1553  1.1959
   12MOL   H41811000   0.426   0.494   5.951  2.3820  1.1571 -0.2568
   12MOL   H41911001   0.353   0.563   5.801 -0.8427 -0.5538 -0.2306
   12MOL   H42011002   0.387   0.246   5.864 -2.6549 -2.4263  1.6764
   12MOL   H42111003   0.315   0.310   5.725  1.5569 -0.3573  0.5206
   12MOL   H42211004   0.117   0.395   5.874  1.1118  1.2457  1.2832
   12MOL   H42311005   0.222   0.369   6.010  0.9559  0.0184 -0.1556
   12MOL   H42411006   0.119   0.164   5.823 -0.2152  0.6727  0.3586
   12MOL   H42511007   0.210   0.115   5.966  1.6348  0.8788 -1.0415
   12MOL   H42611008   0.005   0.237   6.098 -0.9443 -2.9356  0.1919
   12MOL   H42711009   7.726   0.253   5.937 -0.3559 -0.1619 -0.6664
   12MOL   H42811010   0.013   0.002   6.087  1.2654  0.7239 -2.2613
   12MOL   H42911011   7.735   7.779   5.933  0.5808 -2.8988  1.9606
   12MOL   H43011012   7.624   0.087   6.201 -1.1306  2.7407 -0.8552
   12MOL   H43111013   7.561   7.740   6.117  0.5347 -0.6330 -0.6524
   12MOL   H43211014   7.391   0.077   6.067  0.6119 -0.4016 -0.3889
   12MOL   H43311015   7.485   0.107   5.928 -0.9217  1.0154 -0.8593
   12MOL   N43411016   7.391   0.338   5.954 -0.1222  0.4593  0.7672
   12MOL   C43511017   7.400   0.481   5.927  0.3951 -0.4778  0.2487
   12MOL   C43611018   7.455   0.508   5.786  0.5706 -0.1855 -0.2948
   12MOL   C43711019   7.586   0.560   5.781  0.0606  0.2341 -0.0590
   12MOL   C43811020   7.659   0.567   5.661 -0.5587  0.1523  0.1983
   12MOL   C43911021   7.593   0.507   5.549 -0.2598 -0.1787  0.7979
   12MOL   C44011022   7.466   0.457   5.550 -0.6484 -0.4328 -0.4646
   12MOL   C44111023   7.393   0.471   5.668  0.3301  0.0417  0.5830
   12MOL   C44211024   7.244   0.440   5.661  0.3794 -0.1256  0.3957
   12MOL   N44311025   7.221   0.300   5.625 -0.0665 -0.3941 -0.3456
   12MOL   C44411026   7.171   0.210   5.705  0.1301  0.3340 -0.6610
   12MOL   O44511027   7.148   0.238   5.824  0.2583  0.2057 -0.2462
   12MOL   C44611028   7.180   0.064   5.666 -0.3583 -0.6943  0.0300
   12MOL   C44711029   7.137   7.745   5.767 -0.3610  0.0305 -0.2897
   12MOL   C44811030   7.243   7.712   5.875 -0.4873 -0.2779 -0.4667
   12MOL   C44911031   7.216   7.574   5.938 -0.2409  0.5774 -0.5420
   12MOL   C45011032   7.329   7.527   6.030 -0.9124  0.7485 -0.4922
   12MOL   C45111033   7.328   7.374   6.061  0.7825 -0.1582  0.1145
   12MOL   C45211034   7.233   7.332   6.179 -0.0742  0.4967  0.2332
   12MOL   C45311035   7.212   7.181   6.188  0.2398  0.9469 -0.3658
   12MOL   C45411036   7.164   7.134   6.325  0.4209  0.3560  0.9937
   12MOL   O45511037   7.048   7.159   6.351 -0.7029  0.1378  0.0982
   12MOL   H45611038   7.336   0.289   5.885 -1.3202 -1.7170  3.1834
   12MOL   H45711039   7.468   0.529   5.998  1.4399  0.1328 -1.1393
   12MOL   H45811040   7.301   0.517   5.956  0.1532 -0.5406 -0.4936
   12MOL   H45911041   7.619   0.604   5.874 -4.2805  2.0249  0.7453
   12MOL   H46011042   7.763   0.596   5.660 -0.4064 -0.0963 -5.6225
   12MOL   H46111043   7.650   0.514   5.457  0.3371 -1.2434  1.0770
   12MOL   H46211044   7.416   0.417   5.463 -2.0985  0.5756 -0.0979
   12MOL   H46311045   7.202   0.501   5.581 -0.3959 -1.3283 -0.1358
   12MOL   H46411046   7.181   0.466   5.745  0.2223  1.4240 -0.1985
   12MOL   H46511047   7.252   0.275   5.532 -0.4567  2.4375 -1.2984
   12MOL   H46611048   7.285   0.060   5.635 -0.2745 -1.8007  0.4357
   12MOL   H46711049   7.119   0.045   5.577  0.4978 -2.1675 -0.2501
   12MOL   H46811050   7.097   7.663   5.708  0.1101  0.1094 -0.7193
   12MOL   H46911051   7.047   7.785   5.815 -1.0898 -0.6598 -1.0645
   12MOL   H47011052   7.340   7.716   5.827  0.6330  0.3366  1.7713
   12MOL   H47111053   7.246   0.010   5.940 -1.1281 -0.7116  0.1681
   12MOL   H47211054   7.124   7.578   5.996 -1.0773 -0.7871 -1.7157
   12MOL   H47311055   7.209   7.504   5.855  1.7422  2.8649 -2.7434
   12MOL   H47411056   7.425   7.544   5.981  1.3315 -0.4324  3.2335
   12MOL   H47511057   7.329   7.588   6.121 -2.7473 -1.5135  1.0717
   12MOL   H47611058   7.426   7.329   6.067  0.3193 -1.4035 -1.2726
   12MOL   H47711059   7.281   7.332   5.972 -2.1400  1.5399  0.7803
   12MOL   H47811060   7.271   7.368   6.274 -0.1930 -0.0340  0.4821
   12MOL   H47911061   7.129   7.365   6.174  0.4251  2.2207  0.9871
   12MOL   H48011062   7.138   7.150   6.113  0.2619  0.1571 -0.0706
   12MOL   H48111063   7.302   7.123   6.167  0.5790  2.0868 -2.1427
   12MOL   N48211064   7.243   7.051   6.395  0.0995 -0.4259 -0.0734
   12MOL   C48311065   7.206   6.981   6.518 -0.5818 -0.0517  0.4171
   12MOL   C48411066   7.200   7.065   6.639  0.1117 -0.7198 -0.2748
   12MOL   C48511067   7.080   7.085   6.707  0.5259 -0.1017 -0.4252
   12MOL   C48611068   7.068   7.185   6.805 -0.1403  0.2542 -0.2988
   12MOL   C48711069   7.181   7.269   6.830 -0.5882  0.0310  0.1591
   12MOL   C48811070   7.306   7.242   6.773 -0.5464 -0.0002 -0.1017
   12MOL   C48911071   7.318   7.133   6.679  0.3645 -0.2652  0.1376
   12MOL   C49011072   7.451   7.107   6.609 -0.3648 -0.9814 -0.0655
   12MOL   N49111073   7.477   7.210   6.511 -0.0516  0.2593  0.7509
   12MOL   C49211074   7.591   7.215   6.447  0.4569  0.3359  0.2785
   12MOL   O49311075   7.693   7.166   6.484 -0.1712  0.1646 -0.2408
   12MOL   C49411076   7.593   7.291   6.313 -0.6053  0.4272  0.8567
   12MOL   C49511077   7.740   7.344   6.275  0.4714  0.2585 -0.3169
   12MOL   C49611078   7.766   7.382   6.131  0.1491  0.4268  0.5579
   12MOL   C49711079   0.119   7.441   6.111 -0.2439  0.0852  0.1552
   12MOL   C49811080   0.143   7.476   5.969  0.2279 -0.1966 -0.3094
   12MOL   C49911081   0.278   7.542   5.953  0.5613 -0.3984 -0.2602
   12MOL   C50011082   0.290   7.612   5.821  0.1816  0.0809 -0.2661
   12MOL   C50111083   0.266   7.514   5.704 -0.4164  0.3719 -0.1807
   12MOL   C50211084   0.322   7.574   5.574  0.0047 -0.1914 -0.7524
   12MOL   O50311085   0.243   7.623   5.496  0.2351 -0.7363  0.0589
   12MOL   H50411086   7.319   7.025   6.333 -0.0513 -1.7534  0.2743
   12MOL   H50511087   7.103   6.948   6.501 -0.0589 -1.6699  0.3315
   12MOL   H50611088   7.271   6.896   6.536  1.8555  1.3189 -1.6741
   12MOL   H50711089   6.992   7.032   6.674  1.2735 -1.6837  0.0985
   12MOL   H50811090   6.976   7.195   6.860  0.2079  1.1081  0.1381
   12MOL   H50911091   7.170   7.349   6.901  0.1241 -0.3659  0.7113
   12MOL   H51011092   7.394   7.300   6.799  1.0787 -1.8918 -1.3246
   12MOL   H51111093   7.447   7.007   6.566 -1.3333 -0.8921 -0.1790
   12MOL   H51211094   7.531   7.089   6.682 -1.0353 -2.2292  0.3658
   12MOL   H51311095   7.392   7.241   6.467  0.5562  0.9161  0.0347
   12MOL   H51411096   7.503   7.351   6.311 -1.5457 -0.9455  1.0774
   12MOL   H51511097   7.559   7.215   6.243 -0.8807  2.4306 -1.1997
   12MOL   H51611098   0.016   7.258   6.289 -1.5152 -1.1891  0.4544
   12MOL   H51711099   7.773   7.431   6.332 -0.1442 -0.1524  0.6910
   12MOL   H51811100   7.752   7.295   6.067 -2.2924  0.1170  1.4872
   12MOL   H51911101   7.698   7.457   6.091 -0.2733  0.3429  1.1282
   12MOL   H52011102   0.118   7.518   6.188 -2.8049  1.8385 -1.5585
   12MOL   H52111103   0.198   7.376   6.148  0.1267  0.0778 -0.6465
   12MOL   H52211104   0.131   7.388   5.905 -4.7194 -0.6691  1.0793
   12MOL   H52311105   0.068   7.552   5.946 -0.0984 -0.1007  1.0151
   12MOL   H52411106   0.355   7.465   5.961  1.1096  0.0287 -1.3283
   12MOL   H52511107   0.299   7.612   6.033  1.0358 -0.8008 -0.0293
   12MOL   H52611108   0.202   7.677   5.814  0.5831  0.7280  0.5973
   12MOL   H52711109   0.382   7.670   5.815  1.7795 -2.3583  0.1187
   12MOL   H52811110   0.161   7.485   5.698  0.0152 -1.3723  0.3684
   12MOL   H52911111   0.312   7.418   5.727 -0.5367  0.3149 -0.1738
   12MOL   N53011112   0.457   7.567   5.554  0.3868 -0.0054 -0.5941
   12MOL   C53111113   0.535   7.642   5.455 -0.5194  0.1868 -0.8325
   12MOL   C53211114   0.648   7.718   5.519 -0.2998  0.2851  0.4987
   12MOL   C53311115   0.655   7.738   5.656  0.2203  0.0567 -0.4301
   12MOL   C53411116   0.761   0.017   5.718  0.1545 -0.4187  0.6503
   12MOL   C53511117   0.869   0.073   5.645  0.3979 -0.3157  0.7171
   12MOL   C53611118   0.863   0.062   5.504 -0.2145  0.2972  0.0803
   12MOL   C53711119   0.760   7.768   5.443 -0.2009 -0.8610  0.9967
   12MOL   C53811120   0.770   7.756   5.283  0.0360  0.4159  0.2798
   12MOL   N53911121   0.871   7.671   5.231  0.4249 -0.1029  0.1875
   12MOL   C54011122   0.865   7.538   5.207 -0.1231  0.3305  0.2075
   12MOL   O54111123   0.767   7.465   5.237  0.2092  0.2082  0.6493
   12MOL   C54211124   0.985   7.472   5.148 -0.5748 -0.0762  0.6778
   12MOL   C54311125   1.039   7.348   5.230 -0.4389  0.0314 -0.0512
   12MOL   C54411126   1.142   7.386   5.342  0.1855  0.1843  1.0890
   12MOL   C54511127   1.099   7.503   5.434  0.2429  0.5468 -0.0559
   12MOL   C54611128   1.199   7.506   5.554 -0.4171  0.2449  0.2117
   12MOL   C54711129   1.147   7.597   5.670  0.2703 -0.8487 -0.2833
   12MOL   C54811130   1.261   7.651   5.755  0.6875  0.5957 -0.0603
   12MOL   C54911131   1.206   7.759   5.852  0.6141  0.3557  0.0222
   12MOL   C55011132   1.123   7.714   5.971  0.3993  0.0658  0.4425
   12MOL   O55111133   1.141   7.604   6.016 -0.1350  0.0109  0.5760
   12MOL   H55211134   0.511   7.518   5.623  1.1577  2.9464  1.0137
   12MOL   H55311135   0.480   7.715   5.395 -0.8298  0.7085  0.0840
   12MOL   H55411136   0.570   7.575   5.377  0.9468  1.9941 -1.7496
   12MOL   H55511137   0.567   7.703   5.709  1.0925 -1.5987 -0.0431
   12MOL   H55611138   0.766   0.030   5.826  1.0255 -2.5930  0.8966
   12MOL   H55711139   0.946   0.114   5.708  1.7334 -2.3329  0.4373
   12MOL   H55811140   0.933   0.112   5.438 -0.4955  1.1930  0.4559
   12MOL   H55911141   0.788   0.069   5.253  2.5519 -0.2718 -0.6844
   12MOL   H56011142   0.669   7.734   5.246  0.3150 -1.4284  0.5448
   12MOL   H56111143   0.964   7.709   5.218  0.1164  0.8361  0.7085
   12MOL   H56211144   1.064   7.547   5.144 -0.3704 -0.3634 -0.8012
   12MOL   H56311145   0.956   7.433   5.051 -0.1837 -0.3046  0.6535
   12MOL   H56411146   1.082   7.269   5.169 -0.9194 -0.6419  0.4747
   12MOL   H56511147   0.954   7.306   5.284 -1.0924  0.9241 -0.3623
   12MOL   H56611148   1.167   7.292   5.391  1.1784  0.2897  0.7944
   12MOL   H56711149   1.232   7.411   5.286 -0.6103  1.7369  0.4844
   12MOL   H56811150   1.091   7.593   5.373  1.9632  1.4542  1.0268
   12MOL   H56911151   0.999   7.489   5.476 -0.0379  1.8054 -0.2768
   12MOL   H57011152   1.229   7.406   5.586  0.5055  0.7063  0.7785
   12MOL   H57111153   1.289   7.557   5.520 -0.8573  0.9794  0.1244
   12MOL   H57211154   1.083   7.538   5.734  1.2910 -1.7164 -0.0380
   12MOL   H57311155   1.099   7.683   5.623 -0.0650 -1.1286 -0.4494
   12MOL   H57411156   1.313   7.570   5.805 -1.6094 -0.2041  1.0928
   12MOL   H57511157   1.333   7.704   5.693  0.9069  0.7583  0.3274
   12MOL   H57611158   1.144   0.041   5.799 -0.8901 -1.9714 -1.4714
   12MOL   H57711159   1.295   0.010   5.900  0.5059 -1.8289  2.1816
   12MOL   N57811160   1.038   0.014   6.026  0.5199 -0.5192  0.0664
   12MOL   C57911161   0.954   7.787   6.143  0.5104 -0.5034 -0.1661
   12MOL   C58011162   0.807   0.022   6.112  0.1928 -0.7682 -0.1393
   12MOL   C58111163   0.720   7.700   6.100 -0.3792  0.8744 -0.4269
   12MOL   C58211164   0.589   7.712   6.046 -0.1739 -0.4120 -0.2143
   12MOL   C58311165   0.537   0.047   6.019 -0.0598  0.4799  0.7907
   12MOL   C58411166   0.607   0.165   6.051  0.4895 -0.0080  0.3770
   12MOL   C58511167   0.742   0.155   6.099 -0.2497  0.0449 -0.3552
   12MOL   C58611168   0.826   0.275   6.117 -0.2013 -0.3137  0.6256
   12MOL   N58711169   0.842   0.358   5.999  0.0117 -0.3433 -0.8924
   12MOL   C58811170   0.956   0.361   5.928 -0.3419  0.4673 -0.1830
   12MOL   O58911171   1.057   0.295   5.958 -0.0684  0.2875  0.1335
   12MOL   C59011172   0.967   0.473   5.821  1.0598  1.1280 -0.0888
   12MOL   C59111173   1.067   0.585   5.863 -0.1942  0.0540  0.2471
   12MOL   C59211174   1.004   0.694   5.964 -0.4651 -0.4145  0.4313
   12MOL   C59311175   1.071   0.832   5.975 -0.5090  0.4046  0.4480
   12MOL   C59411176   1.159   0.847   6.111 -0.3568  0.1317  0.1895
   12MOL   C59511177   1.273   0.743   6.108 -0.6907  0.8118 -0.2059
   12MOL   C59611178   1.363   0.761   5.988  0.6620 -0.0423 -0.7238
   12MOL   C59711179   1.490   0.682   6.006 -0.0973  0.1586  0.0394
   12MOL   C59811180   1.568   0.693   5.876  0.8393 -0.1441  1.2582
   12MOL   O59911181   1.537   0.620   5.782  0.2205  0.5615  0.0663
   12MOL   H60011182   1.040   0.106   5.984 -0.0944 -0.5652 -0.0694
   12MOL   H60111183   0.993   0.042   6.233 -1.0892 -0.6944  0.6442
   12MOL   H60211184   0.948   7.681   6.166 -0.7458 -0.0432  1.6872
   12MOL   H60311185   0.751   7.598   6.117  2.0952  1.4935 -1.0094
   12MOL   H60411186   0.529   7.626   6.021 -1.2481  0.4609 -0.6242
   12MOL   H60511187   0.433   0.041   5.989 -0.6329  0.5495  2.7013
   12MOL   H60611188   0.569   0.265   6.035  0.7028  0.0402  0.1522
   12MOL   H60711189   0.922   0.241   6.154  0.5303 -0.0061 -0.9449
   12MOL   H60811190   0.782   0.333   6.199  0.2894  0.7373  0.1482
   12MOL   H60911191   0.763   0.414   5.973  0.7914  1.0064 -0.3811
   12MOL   H61011192   0.871   0.518   5.795  0.1335 -0.4709  0.4766
   12MOL   H61111193   1.005   0.436   5.726  0.1718  1.5247 -0.6076
   12MOL   H61211194   1.092   0.639   5.771 -0.8703  0.8382  0.5160
   12MOL   H61311195   1.162   0.548   5.901 -0.3241  1.2028  1.7328
   12MOL   H61411196   0.907   0.720   5.921  0.4802  1.5171 -0.6147
   12MOL   H61511197   0.989   0.640   6.057 -2.5372  3.7224  2.6600
   12MOL   H61611198   1.122   0.860   5.883  0.8233 -0.8079  0.8064
   12MOL   H61711199   0.988   0.902   5.986 -1.0347 -0.0781 -0.3895
   12MOL   H61811200   1.206   0.945   6.121 -0.4968  0.1908  0.2623
   12MOL   H61911201   1.093   0.832   6.196 -2.7203  1.5414 -1.3302
   12MOL   H62011202   1.229   0.644   6.091  0.0134  0.8962 -2.6442
   12MOL   H62111203   1.321   0.733   6.206 -0.7231  0.1335 -0.2565
   12MOL   H62211204   1.313   0.735   5.895  0.4588 -0.1451 -0.5888
   12MOL   H62311205   1.385   0.867   5.994 -0.7421  0.1485  2.1531
   12MOL   H62411206   1.561   0.727   6.075 -1.1635 -0.2784  1.4312
   12MOL   H62511207   1.477   0.577   6.030 -1.6167  0.3184 -0.0695
   12MOL   N62611208   1.650   0.800   5.851  0.3635  0.1474  0.2472
   12MOL   C62711209   1.707   0.836   5.722 -0.3854 -0.4037  0.5510
   12MOL   C62811210   1.787   0.960   5.736 -0.0937 -1.1518  0.0595
   12MOL   C62911211   1.912   0.944   5.806  0.0806  0.1063  0.9667
   12MOL   C63011212   2.001   1.055   5.803  0.1899  0.0389 -0.6041
   12MOL   C63111213   1.966   1.179   5.752 -0.1584 -0.1336 -0.0908
   12MOL   C63211214   1.839   1.194   5.692 -0.4358  0.3261  0.4092
   12MOL   C63311215   1.750   1.084   5.682  0.1639 -0.5676  1.3489
   12MOL   C63411216   1.611   1.107   5.620  0.5262  0.1514 -0.0840
   12MOL   N63511217   1.516   1.109   5.725  0.2938 -0.0185  0.4987
   12MOL   C63611218   1.395   1.156   5.713 -0.3813  0.3751  0.0004
   12MOL   O63711219   1.350   1.202   5.607  0.5297  0.0737  0.3001
   12MOL   C63811220   1.310   1.154   5.838 -0.4467  0.0589 -0.4593
   12MOL   C63911221   1.179   1.228   5.811 -0.2409 -0.1886  0.0363
   12MOL   C64011222   1.081   1.216   5.930  0.6327 -0.3118  0.5070
   12MOL   C64111223   0.937   1.228   5.895  0.2450 -0.2274  0.0164
   12MOL   C64211224   0.842   1.176   6.004  0.2703  0.3915  0.2280
   12MOL   C64311225   0.690   1.195   5.985  0.3848  0.6112  0.5928
   12MOL   C64411226   0.603   1.124   6.092 -0.0990  0.1068 -0.2975
   12MOL   C64511227   0.450   1.140   6.072 -0.2732  0.3781 -0.4651
   12MOL   C64611228   0.393   1.055   5.955 -0.0256  0.1869 -0.0443
   12MOL   O64711229   0.454   1.043   5.856  0.2380 -0.5228  0.3362
   12MOL   H64811230   1.664   0.859   5.932  1.8876  0.1180  0.0109
   12MOL   H64911231   1.625   0.845   5.651 -0.1330  1.3893  0.4775
   12MOL   H65011232   1.777   0.759   5.689  2.2238  1.7948  0.7998
   12MOL   H65111233   1.935   0.847   5.847  2.9140 -0.3638 -1.5827
   12MOL   H65211234   2.096   1.049   5.854 -0.3766 -0.6822  0.3771
   12MOL   H65311235   2.039   1.259   5.748  0.2689 -0.4408  1.3145
   12MOL   H65411236   1.812   1.287   5.644 -0.2481 -2.3454 -5.2241
   12MOL   H65511237   1.586   1.036   5.541 -0.7069  1.6326 -1.0617
   12MOL   H65611238   1.607   1.200   5.564 -2.6190 -0.1511 -0.4605
   12MOL   H65711239   1.542   1.068   5.814  1.4924 -1.1320 -0.3327
   12MOL   H65811240   1.358   1.189   5.930 -1.2767  0.2790 -0.1053
   12MOL   H65911241   1.291   1.047   5.838  1.4481 -0.3070  1.3209
   12MOL   H66011242   1.139   1.162   5.735  0.5689 -0.3124 -0.2898
   12MOL   H66111243   1.177   1.324   5.759 -1.2943 -0.6398 -0.7836
   12MOL   H66211244   1.094   1.126   5.991 -2.2216 -0.1718  1.3757
   12MOL   H66311245   1.110   1.292   6.003 -1.2593  0.2271  0.7133
   12MOL   H66411246   0.915   1.334   5.880 -2.6157 -0.7135  0.5458
   12MOL   H66511247   0.915   1.170   5.805 -1.9443  1.6296 -0.6957
   12MOL   H66611248   0.860   1.068   6.004 -0.2298  0.3040 -0.1550
   12MOL   H66711249   0.875   1.236   6.088 -3.6069 -0.5985  2.6120
   12MOL   H66811250   0.663   1.153   5.888  1.5894 -0.9551  0.9225
   12MOL   H66911251   0.673   1.303   5.975 -0.9992  0.3699  0.1885
   12MOL   H67011252   0.637   1.021   6.103 -2.0188 -0.4671  0.3066
   12MOL   H67111253   0.616   1.162   6.193  1.6803 -3.2926  0.8353
   12MOL   H67211254   0.424   1.243   6.048  3.9890  1.2066 -2.0488
   12MOL   H67311255   0.402   1.120   6.167  1.1641 -0.1268  0.1583
   12MOL   N67411256   0.269   1.000   5.979 -0.3559 -0.2437  0.0651
   12MOL   C67511257   0.204   0.916   5.877  0.1090 -0.3133  0.4716
   12MOL   C67611258   0.066   0.888   5.923  0.7593 -0.5229 -0.4318
   12MOL   C67711259   0.039   0.810   6.038 -0.2587 -0.1807  0.2288
   12MOL   C67811260   7.704   0.789   6.096 -0.2272  0.0421  0.0074
   12MOL   C67911261   7.595   0.850   6.032 -0.1755  0.1126  0.0421
   12MOL   C68011262   7.616   0.931   5.919 -0.0486  0.1340 -0.4669
   12MOL   C68111263   7.745   0.961   5.869  0.2812 -0.9675  0.2990
   12MOL   C68211264   7.761   1.038   5.738 -0.3058 -0.2688 -0.4554
   12MOL   N68311265   7.785   0.945   5.629 -0.2836  0.6634  0.2338
   12MOL   C68411266   7.771   0.968   5.499  0.6409  0.1961  0.2219
   12MOL   O68511267   7.750   1.080   5.456 -0.2879  0.2056  0.3184
   12MOL   C68611268   0.008   0.845   5.406 -0.5430 -0.8725 -0.8372
   12MOL   C68711269   7.685   0.816   5.308 -0.2176 -0.4491  0.0408
   12MOL   C68811270   7.732   0.731   5.183 -0.1564 -0.4520  0.7724
   12MOL   C68911271   7.605   0.687   5.107  1.0557 -1.0028 -0.5264
   12MOL   C69011272   7.630   0.570   5.012 -0.0735 -0.5391  0.5880
   12MOL   C69111273   7.635   0.430   5.084 -0.6532 -0.1199 -0.7023
   12MOL   C69211274   7.498   0.386   5.133  0.1173 -0.4110  0.3944
   12MOL   C69311275   7.500   0.252   5.199  0.4436  0.3921  0.4495
   12MOL   C69411276   7.359   0.199   5.226 -0.2148  0.1856 -0.2117
   12MOL   O69511277   7.301   0.204   5.339 -0.3721  0.5593  0.2481
   12MOL   H69611278   0.217   1.008   6.064  0.6877  1.8073  0.5475
   12MOL   H69711279   0.248   0.816   5.869 -1.4355 -0.8281 -2.0374
   12MOL   H69811280   0.214   0.962   5.779  1.0761  1.4967  1.4025
   12MOL   H69911281   0.129   0.768   6.080  0.0979  2.9732  2.7286
   12MOL   H70011282   7.676   0.724   6.178 -2.2458  1.3667  0.4135
   12MOL   H70111283   7.495   0.827   6.067  0.7413 -0.6670  2.2186
   12MOL   H70211284   7.526   0.952   5.862 -0.5440  4.3139  1.6561
   12MOL   H70311285   0.062   1.096   5.755 -0.2218 -0.7987  1.0309
   12MOL   H70411286   7.665   1.089   5.729 -0.4205 -0.3714  0.1620
   12MOL   H70511287   0.032   0.853   5.649  1.5761  1.3948  0.2404
   12MOL   H70611288   0.036   0.760   5.468  1.3526  0.6269  0.4243
   12MOL   H70711289   0.098   0.872   5.351  0.7845 -1.4976  1.0056
   12MOL   H70811290   7.630   0.905   5.280  1.7764  0.6603 -0.3738
   12MOL   H70911291   7.602   0.767   5.359  1.0278 -1.4998  1.1071
   12MOL   H71011292   0.008   0.792   5.121  0.1002 -2.0771 -0.6012
   12MOL   H71111293   7.779   0.640   5.220  0.3197 -0.8671 -0.7870
   12MOL   H71211294   7.513   0.684   5.166 -0.7602 -2.4966 -3.3247
   12MOL   H71311295   7.580   0.770   5.041  2.5494  0.7222  1.0354
   12MOL   H71411296   7.559   0.566   4.930 -1.0686 -0.2522  1.4121
   12MOL   H71511297   7.720   0.583   4.952 -0.4468 -0.5501  0.0274
   12MOL   H71611298   7.702   0.431   5.170 -0.0295 -1.5495 -1.1690
   12MOL   H71711299   7.683   0.360   5.017 -0.0237  1.5097 -1.9773
   12MOL   H71811300   7.428   0.380   5.049 -2.8908 -3.7544  3.0005
   12MOL   H71911301   7.477   0.476   5.190  0.3344 -0.3704  0.4085
   12MOL   H72011302   7.548   0.266   5.296 -1.6283  0.3595  1.5016
   12MOL   H72111303   7.561   0.194   5.130  1.4204  3.0431 -0.9885
   12MOL   N72211304   7.307   0.130   5.124 -0.3789  0.0573  0.8655
   12MOL   C72311305   7.180   0.063   5.098  0.5519  0.1784 -0.3892
   12MOL   C72411306   7.168   0.040   4.948 -1.0050  0.7387 -0.0452
   12MOL   C72511307   7.208   7.702   4.901  1.3268  0.0163 -0.5671
   12MOL   C72611308   7.208   7.677   4.765 -0.8017 -0.0843 -0.4809
   12MOL   C72711309   7.182   7.779   4.674 -0.0277 -1.2696  0.8970
   12MOL   C72811310   7.146   0.115   4.720  0.5817 -0.2372 -0.1915
   12MOL   C72911311   7.145   0.144   4.856 -0.7708 -0.7604  0.3769
   12MOL   C73011312   7.110   0.286   4.911 -1.1730 -0.3159 -0.1203
   12MOL   N73111313   7.172   0.394   4.832  0.5295 -0.5126  0.3089
   12MOL   C73211314   7.197   0.514   4.895  0.5845  0.2728 -0.0704
   12MOL   O73311315   7.168   0.529   5.012  0.1664 -0.0709 -0.3823
   12MOL   C73411316   7.251   0.629   4.812 -0.2739  0.5176 -0.2591
   12MOL   C73511317   7.308   0.743   4.892 -0.1096 -0.0723 -0.1778
   12MOL   C73611318   7.220   0.863   4.896  0.6314 -0.8206  0.4903
   12MOL   C73711319   7.232   0.949   4.774 -0.1226 -1.0487 -0.0480
   12MOL   C73811320   7.123   1.059   4.781 -0.4753  0.6210  0.4393
   12MOL   C73911321   7.087   1.080   4.631  0.3509 -0.3848 -0.0132
   12MOL   C74011322   6.989   1.197   4.621  0.3194 -0.0547  0.2799
   12MOL   C74111323   6.945   1.227   4.475 -0.3138 -0.1664  0.4552
   12MOL   C74211324   6.830   1.334   4.481  0.1585 -0.2926  1.0604
   12MOL   O74311325   6.860   1.449   4.468  0.5571 -0.0614  0.1434
   12MOL   H74411326   7.376   0.115   5.053 -1.9155  0.9011 -0.8342
   12MOL   H74511327   7.090   0.115   5.131  1.3177  1.1919  0.1103
   12MOL   H74611328   7.182   7.756   5.147  2.0337 -0.3854 -1.5385
   12MOL   H74711329   7.235   7.629   4.975 -0.0216 -0.9843 -1.0333
   12MOL   H74811330   7.225   7.574   4.737 -0.5814 -0.7478  1.9890
   12MOL   H74911331   7.178   7.771   4.566 -3.8508  0.0377  0.8785
   12MOL   H75011332   7.118   0.187   4.645  0.7542  1.0984  0.9918
   12MOL   H75111333   7.144   0.291   5.015  0.8313  1.7252 -0.8445
   12MOL   H75211334   7.001   0.288   4.916 -1.2731 -1.4549 -1.3318
   12MOL   H75311335   7.187   0.382   4.732 -1.4963  1.0969 -0.2285
   12MOL   H75411336   7.169   0.662   4.749 -0.9607  0.4853  0.6180
   12MOL   H75511337   7.330   0.580   4.754 -1.6478  0.2432 -1.9326
   12MOL   H75611338   7.404   0.776   4.853  0.4153 -1.8740 -0.4721
   12MOL   H75711339   7.331   0.718   4.996 -0.3986  1.2754  0.2134
   12MOL   H75811340   7.115   0.848   4.920  0.5350 -0.1465  0.4993
   12MOL   H75911341   7.255   0.926   4.978 -2.3872 -0.3686  1.4862
   12MOL   H76011342   7.331   0.993   4.760 -0.6819  0.6867  1.2163
   12MOL   H76111343   7.208   0.897   4.682 -1.0235 -3.3987  1.4782
   12MOL   H76211344   7.033   1.026   4.833 -1.1696 -1.8392 -2.1887
   12MOL   H76311345   7.161   1.149   4.830 -0.1937 -0.2321  1.8382
   12MOL   H76411346   7.023   1.000   4.595 -0.2856  0.1252 -0.0105
   12MOL   H76511347   7.182   1.099   4.582  1.8636  0.2809  3.0225
   12MOL   H76611348   6.902   1.167   4.679  1.0899 -2.4266  0.2437
   12MOL   H76711349   7.020   1.288   4.673 -1.6108  1.1792 -0.6827
   12MOL   H76811350   7.028   1.263   4.414  0.2217 -1.7196  0.2505
   12MOL   H76911351   6.909   1.145   4.412  1.0050  1.1989 -2.1412
   12MOL   N77011352   6.709   1.278   4.483  0.4858 -0.2745 -0.4382
   12MOL   C77111353   6.591   1.357   4.492 -0.2090  0.1668  1.2139
   12MOL   C77211354   6.522   1.350   4.627 -0.5645  0.5547  0.1598
   12MOL   C77311355   6.585   1.408   4.742  0.3272 -0.3722  0.0519
   12MOL   C77411356   6.526   1.396   4.872  0.2163  0.9156 -0.2197
   12MOL   C77511357   6.406   1.325   4.890  0.2643  0.2575 -0.0780
   12MOL   C77611358   6.344   1.275   4.768 -0.4822 -0.8413 -0.6053
   12MOL   C77711359   6.397   1.287   4.638 -0.1017  0.2650  0.5421
   12MOL   C77811360   6.324   1.203   4.523 -0.3048 -0.2417 -0.2802
   12MOL   N77911361   6.194   1.259   4.493  0.1149 -0.6295 -0.3624
   12MOL   C78011362   6.176   1.343   4.389 -0.1087  0.1365  0.4128
   12MOL   O78111363   6.263   1.383   4.315  0.3632  0.0061  0.6811
   12MOL   C78211364   6.031   1.387   4.361 -0.0093  0.0146  0.6411
   12MOL   C78311365   6.009   1.415   4.211  0.6759 -0.0177  0.1262
   12MOL   C78411366   5.864   1.438   4.164 -0.3910 -0.0862 -0.4821
   12MOL   C78511367   5.780   1.313   4.173 -0.3510 -0.4883  0.3168
   12MOL   C78611368   5.835   1.203   4.078  0.0767 -0.5511 -0.2199
   12MOL   C78711369   5.760   1.064   4.071 -0.3451  0.0624 -0.0142
   12MOL   C78811370   5.815   0.956   3.980 -0.3133 -0.5626  0.7339
   12MOL   C78911371   5.841   0.988   3.836 -0.2303 -0.1186  0.0707
   12MOL   C79011372   5.728   1.054   3.756 -0.5926 -0.6256 -0.0348
   12MOL   O79111373   5.623   0.993   3.724  0.0092  0.9599  0.1968
   12MOL   H79211374   6.715   1.181   4.511 -2.3185 -0.2048  0.6024
   12MOL   H79311375   6.602   1.456   4.446 -0.3377 -1.2238 -1.9361
   12MOL   H79411376   6.534   1.304   4.416 -1.0726  2.1882  0.4305
   12MOL   H79511377   6.681   1.456   4.730 -0.3806  0.5603 -1.9068
   12MOL   H79611378   6.572   1.445   4.957  2.6131 -0.5532 -0.6207
   12MOL   H79711379   6.359   1.310   4.987  0.1756  1.6310  0.1044
   12MOL   H79811380   6.255   1.214   4.770 -0.8557 -0.2921  0.1115
   12MOL   H79911381   6.304   1.103   4.563  0.8679 -1.1447 -1.9046
   12MOL   H80011382   6.386   1.192   4.435 -1.5778 -0.2618 -1.1918
   12MOL   H80111383   6.115   1.235   4.553 -0.9129  0.5341 -1.2367
   12MOL   H80211384   6.023   1.478   4.420  0.3711 -1.2421  2.6680
   12MOL   H80311385   5.962   1.310   4.397  0.9681  0.7366  4.2322
   12MOL   H80411386   6.059   1.348   4.141 -0.7771 -1.3659  0.3576
   12MOL   H80511387   6.059   1.506   4.177 -0.3320  0.6555  0.4255
   12MOL   H80611388   5.869   1.479   4.063 -0.6431  0.7727 -0.1522
   12MOL   H80711389   5.808   1.509   4.225 -1.9361 -2.1062  0.5149
   12MOL   H80811390   5.766   1.273   4.273  1.6326  2.0663  1.6832
   12MOL   H80911391   5.679   1.338   4.141 -0.3090 -0.3596  0.2829
   12MOL   H81011392   5.841   1.243   3.977 -1.8673  2.6327  0.8410
   12MOL   H81111393   5.935   1.174   4.110 -0.0217 -1.3711 -0.6486
   12MOL   H81211394   5.662   1.089   4.029  1.2364  0.8903 -3.3925
   12MOL   H81311395   5.740   1.025   4.170 -0.0891  0.2133  0.0969
   12MOL   H81411396   5.740   0.877   3.983 -1.0200  0.0719 -0.1001
   12MOL   H81511397   5.908   0.917   4.024  2.1954  2.6976 -1.4655
   12MOL   H81611398   5.872   0.898   3.784  3.2949  0.6396  0.7043
   12MOL   H81711399   5.934   1.044   3.826 -0.0433 -0.6292 -1.1407
   12MOL   N81811400   5.752   1.178   3.724  0.5103  0.4753 -0.0014
   12MOL   C81911401   5.668   1.252   3.628 -0.9390 -0.0263  0.0908
   12MOL   C82011402   5.663   1.401   3.647 -0.0576  0.6030  0.2395
   12MOL   C82111403   5.659   1.451   3.778  0.5370  0.2322 -0.4509
   12MOL   C82211404   5.661   1.587   3.793  0.0478  0.0624 -0.7171
   12MOL   C82311405   5.654   1.680   3.689  0.4642 -0.3635  0.0448
   12MOL   C82411406   5.652   1.628   3.558 -0.4916 -0.0799  1.1751
   12MOL   C82511407   5.663   1.488   3.533 -0.3500 -0.3379 -0.5143
   12MOL   C82611408   5.666   1.424   3.391 -0.1724  0.9047  0.4037
   12MOL   N82711409   5.648   1.515   3.281  0.4572 -0.7246 -0.2402
   12MOL   C82811410   5.749   1.546   3.197 -0.7353 -0.0552 -0.7451
   12MOL   O82911411   5.866   1.501   3.212 -0.6151 -0.1229 -0.3446
   12MOL   C83011412   5.716   1.645   3.084  0.1488 -0.8541 -0.7833
   12MOL   C83111413   5.763   1.592   2.947  0.5935  0.1063  0.3401
   12MOL   C83211414   5.684   1.660   2.833 -0.8459  0.1413  0.5343
   12MOL   C83311415   5.730   1.614   2.692  0.2655  0.3795 -0.3193
   12MOL   C83411416   5.609   1.602   2.598  0.2634 -0.4712 -0.4565
   12MOL   C83511417   5.643   1.518   2.474 -0.1294  0.5358  0.5160
   12MOL   C83611418   5.528   1.499   2.371 -0.6718  0.8506 -0.2532
   12MOL   C83711419   5.430   1.382   2.402 -0.7355 -0.4655 -0.6868
   12MOL   C83811420   5.316   1.355   2.304  0.6948  0.4204  0.6078
   12MOL   O83911421   5.274   1.449   2.235  0.1682  0.5051 -0.4047
   12MOL   H84011422   5.841   1.216   3.754  0.7566 -0.0324 -0.0748
   12MOL   H84111423   5.715   1.224   3.534  0.3686 -0.3054  0.8206
   12MOL   H84211424   5.566   1.213   3.622 -1.6303  1.9495 -1.2395
   12MOL   H84311425   5.645   1.388   3.865 -0.1751 -0.4079 -1.0177
   12MOL   H84411426   5.659   1.618   3.897  0.1180 -2.4073  0.0524
   12MOL   H84511427   5.634   1.784   3.711  0.3723 -0.6932  1.5656
   12MOL   H84611428   5.655   1.699   3.476  0.8257  1.3412  2.4389
   12MOL   H84711429   5.577   1.360   3.395 -0.7936  1.6858 -0.7143
   12MOL   H84811430   5.761   1.372   3.378 -0.8081 -0.5160  1.2958
   12MOL   H84911431   5.555   1.524   3.241  0.4589 -1.6777 -0.4763
   12MOL   H85011432   5.760   1.744   3.099 -0.7353 -0.7662  1.4219
   12MOL   H85111433   5.611   1.674   3.093  1.1372  3.0836 -0.7270
   12MOL   H85211434   5.747   1.485   2.930 -0.1122  0.2303  0.2193
   12MOL   H85311435   5.869   1.615   2.933  0.3388  1.8429  1.1469
   12MOL   H85411436   5.702   1.768   2.833 -1.7767  0.3075  1.9641
   12MOL   H85511437   5.577   1.643   2.840 -0.9660  1.2324  1.6318
   12MOL   H85611438   5.805   1.679   2.646 -0.5716  1.0889 -0.7001
   12MOL   H85711439   5.779   1.517   2.704 -0.3856  0.1293  0.2789
   12MOL   H85811440   5.519   1.558   2.643  0.4159  0.5571  0.8934
   12MOL   H85911441   5.580   1.703   2.570  1.9920  0.5449  1.2928
   12MOL   H86011442   5.675   1.418   2.500 -1.2358  0.2596  0.8470
   12MOL   H86111443   5.718   1.577   2.420 -1.2835  0.9426 -0.6749
   12MOL   H86211444   5.570   1.479   2.273 -0.5361  0.7652 -0.1774
   12MOL   H86311445   5.468   1.589   2.356  0.0711  1.6904  1.6186
   12MOL   H86411446   5.475   1.284   2.422 -2.2803 -1.0352  0.0264
   12MOL   H86511447   5.389   1.416   2.497 -0.4586  0.5602 -0.9302
   12MOL   N86611448   5.260   1.236   2.312 -0.6737 -1.3118 -0.7954
   12MOL   C86711449   5.136   1.194   2.246 -0.6440 -0.0906  0.1210
   12MOL   C86811450   5.033   1.137   2.345  0.6804  0.4702 -0.0722
   12MOL   C86911451   4.998   1.000   2.328 -0.3758 -0.6666 -0.6146
   12MOL   C87011452   4.932   0.921   2.423  0.7868  0.0905 -0.6405
   12MOL   C87111453   4.896   0.984   2.542  0.0189  0.3100 -0.5281
   12MOL   C87211454   4.916   1.122   2.559  0.0221 -0.0838  0.3529
   12MOL   C87311455   4.987   1.199   2.466  0.6610  0.0062  0.2240
   12MOL   C87411456   4.995   1.353   2.489  0.6166 -0.5653  0.0832
   12MOL   N87511457   5.055   1.399   2.613 -0.4428 -0.2349  0.0751
   12MOL   C87611458   5.142   1.498   2.630 -0.2999 -0.7032 -0.9528
   12MOL   O87711459   5.155   1.584   2.541 -0.2403  0.1416  0.0722
   12MOL   C87811460   5.203   1.525   2.764  0.2395  0.3613  0.4513
   12MOL   C87911461   5.276   1.663   2.791 -0.0050 -0.8286  0.1332
   12MOL   C88011462   5.317   1.685   2.940 -0.4562 -0.2044  0.9800
   12MOL   C88111463   5.380   1.828   2.967 -0.7704  0.2691  0.2948
   12MOL   C88211464   5.406   1.873   3.110  0.0601 -0.0428 -0.4458
   12MOL   C88311465   5.480   2.005   3.125 -0.2022 -0.5832  0.0186
   12MOL   C88411466   5.505   2.046   3.269 -0.4879  0.5681  0.0198
   12MOL   C88511467   5.621   1.973   3.328  1.0223 -0.7294 -0.3421
   12MOL   C88611468   5.689   2.048   3.445  0.2467  0.1080 -0.3581
   12MOL   O88711469   5.764   2.142   3.420  0.1345 -0.0521 -0.1558
   12MOL   H88811470   5.320   1.173   2.364  0.1055  0.9816  1.1939
   12MOL   H88911471   5.081   1.272   2.193  0.3392 -2.2596 -4.3852
   12MOL   H89011472   5.162   1.120   2.170  0.0737 -0.2962  0.5664
   12MOL   H89111473   5.032   0.944   2.241  1.7509 -2.9662  1.6111
   12MOL   H89211474   4.913   0.817   2.401 -0.8008  0.3607 -0.6538
   12MOL   H89311475   4.841   0.931   2.618  1.8198 -3.3462 -1.6674
   12MOL   H89411476   4.887   1.153   2.658 -0.4568  0.4871  0.0305
   12MOL   H89511477   4.893   1.390   2.481 -0.2005 -2.3538  1.6512
   12MOL   H89611478   5.046   1.399   2.405 -0.3659  1.1176  0.3783
   12MOL   H89711479   5.037   1.340   2.693  0.6321 -1.7619 -0.7697
   12MOL   H89811480   5.287   1.457   2.779 -0.2057 -0.4239 -0.5639
   12MOL   H89911481   5.133   1.497   2.844  0.1270 -0.0771  0.2006
   12MOL   H90011482   5.215   1.747   2.759  1.8639  0.8727  0.9571
   12MOL   H90111483   5.366   1.674   2.730 -0.7796  1.4146 -0.6316
   12MOL   H90211484   5.229   1.672   3.003 -0.1112 -0.5504  1.3998
   12MOL   H90311485   5.383   1.599   2.956 -0.0787 -0.0962  0.0742
   12MOL   H90411486   5.471   1.835   2.908 -0.7058  1.1897  0.5105
   12MOL   H90511487   5.319   1.904   2.918  0.0792  0.8979  0.2083
   12MOL   H90611488   5.307   1.872   3.156  0.5785 -0.5412  0.6728
   12MOL   H90711489   5.457   1.792   3.162  0.3691 -2.1291 -3.8147
   12MOL   H90811490   5.416   2.082   3.082  1.2175  1.8828  2.1726
   12MOL   H90911491   5.570   2.016   3.064 -0.7528  1.8849 -0.4096
   12MOL   H91011492   5.525   2.153   3.265 -0.2160  0.5869  1.5531
   12MOL   H91111493   5.411   2.040   3.323 -0.2678  2.2666  0.6216
   12MOL   H91211494   5.582   1.874   3.352  0.1182 -0.3906 -0.3892
   12MOL   H91311495   5.698   1.958   3.253  0.5431  0.1090 -1.0196
   12MOL   N91411496   5.666   2.003   3.572 -0.9357  0.5077 -0.1777
   12MOL   C91511497   5.711   2.075   3.691 -0.2835 -0.4908 -0.3740
   12MOL   C91611498   5.671   2.019   3.822 -0.3091  0.0967  0.5648
   12MOL   C91711499   5.772   1.988   3.907 -0.6222  0.0693 -0.0981
   12MOL   C91811500   5.740   1.923   4.023  0.4505  0.0843 -0.0747
   12MOL   C91911501   5.604   1.911   4.066 -0.2721  1.0270  0.1266
   12MOL   C92011502   5.501   1.948   3.985 -0.0555 -0.2624  0.0377
   12MOL   C92111503   5.537   2.008   3.860 -0.5671  0.7111  0.0955
   12MOL   C92211504   5.432   2.072   3.775 -0.0961  0.9358  0.3544
   12MOL   N92311505   5.316   1.991   3.746  0.2108 -0.4333 -0.9148
   12MOL   C92411506   5.308   1.905   3.644 -0.1997  0.0811  0.2571
   12MOL   O92511507   5.408   1.875   3.577 -0.3621 -0.0908 -0.0187
   12MOL   C92611508   5.164   1.867   3.604 -0.0314  0.7958  0.0025
   12MOL   C92711509   5.130   1.725   3.647 -0.0192  0.2418 -0.6924
   12MOL   C92811510   4.987   1.681   3.604 -0.2015 -0.1613  0.0430
   12MOL   C92911511   4.949   1.544   3.673 -0.1678 -0.0489 -0.1730
   12MOL   C93011512   4.819   1.485   3.631 -0.3018  0.5314 -0.5313
   12MOL   C93111513   4.739   1.419   3.754 -0.5381  0.7713 -0.6147
   12MOL   C93211514   4.685   1.518   3.856 -0.2453 -0.2542  0.2560
   12MOL   C93311515   4.595   1.437   3.949  0.8070 -0.1473  0.3103
   12MOL   C93411516   4.511   1.544   4.029  0.0425 -0.0765 -0.5564
   12MOL   O93511517   4.546   1.658   4.050 -0.1835 -0.1933  0.3623
   12MOL   H93611518   5.587   1.942   3.589 -1.2669  1.0598  0.3015
   12MOL   H93711519   5.819   2.061   3.688 -0.1917 -0.9099  2.8620
   12MOL   H93811520   5.688   2.181   3.688  0.5058 -0.2648  1.0642
   12MOL   H93911521   5.877   2.003   3.890 -0.5952  2.0037  1.6104
   12MOL   H94011522   5.811   1.884   4.094 -0.8342  1.2246  1.8876
   12MOL   H94111523   5.573   1.878   4.164 -1.0166 -1.2831 -0.8351
   12MOL   H94211524   5.400   1.932   4.018  0.3880  0.8767  2.0230
   12MOL   H94311525   5.478   2.129   3.694 -0.7910  2.4714  1.0268
   12MOL   H94411526   5.391   2.152   3.836 -1.6227 -2.0896  3.4349
   12MOL   H94511527   5.232   2.005   3.799  0.3418  3.2316 -1.5049
   12MOL   H94611528   5.158   1.882   3.496  0.3177  2.6933  0.2255
   12MOL   H94711529   5.085   1.931   3.643  0.5689  1.3369  0.3453
   12MOL   H94811530   5.133   1.720   3.756  2.5973 -1.2555 -0.8047
   12MOL   H94911531   5.190   1.645   3.604  0.3128  0.6233 -0.9345
   12MOL   H95011532   4.913   1.757   3.630 -0.9922 -0.4222 -1.3786
   12MOL   H95111533   4.981   1.674   3.495  1.0661  2.3285 -0.2159
   12MOL   H95211534   5.024   1.472   3.641  0.0311 -0.7488  1.7973
   12MOL   H95311535   4.964   1.555   3.780 -0.7469  3.5219 -0.3760
   12MOL   H95411536   4.852   1.404   3.568 -0.3796 -0.3008  0.4806
   12MOL   H95511537   4.766   1.568   3.584 -0.5798  0.2676 -0.6878
   12MOL   H95611538   4.665   1.345   3.725 -0.7096  1.2688 -1.4597
   12MOL   H95711539   4.816   1.362   3.807  0.5692  0.0805 -2.9206
   12MOL   H95811540   4.612   1.585   3.810 -0.0921 -0.7341 -0.7102
   12MOL   H95911541   4.771   1.560   3.908 -0.5347 -1.2140  1.5352
   12MOL   H96011542   4.645   1.368   4.016 -1.7285 -3.3136 -0.9538
   12MOL   H96111543   4.521   1.373   3.902  0.0312  0.9352  0.0420
   12MOL   H96211544   4.411   1.510   4.056  1.9173 -4.5586  1.2544
   13MOL     N111545   6.122   6.088   7.447  0.0356  0.0503 -0.1449
   13MOL     C211546   6.175   6.000   7.550  0.1319  0.6966  0.3694
   13MOL     C311547   6.139   5.858   7.518 -0.4694  0.2478 -0.1736
   13MOL     C411548   6.174   5.811   7.387  0.3316 -0.9979 -0.2217
   13MOL     C511549   6.118   5.695   7.327 -0.6499 -1.0002 -0.1645
   13MOL     C611550   6.030   5.620   7.410 -0.0365 -0.0876  0.0868
   13MOL     C711551   5.994   5.660   7.546  0.6830  0.0584 -0.5697
   13MOL     C811552   6.040   5.789   7.597 -0.3010  0.0690 -0.2537
   13MOL     C911553   6.008   5.839   7.740  0.2361  0.2967  0.0942
   13MOL    N1011554   5.936   5.962   7.727  0.0372 -0.8478 -0.0536
   13MOL    C1111555   5.911   6.043   0.045  0.6376  0.3174 -0.2929
   13MOL    O1211556   5.946   6.011   0.160 -0.5278  0.3016 -0.1713
   13MOL    C1311557   5.853   6.181   0.015 -0.7259 -0.1431 -0.4835
   13MOL    C1411558   5.855   6.275   0.142  0.5373  0.3883  0.9110
   13MOL    C1511559   5.789   6.406   0.104  0.5303  0.0953  0.0711
   13MOL    C1611560   5.789   6.499   0.228  0.2532 -0.1306  0.5434
   13MOL    C1711561   5.722   6.630   0.209  0.5343 -0.2994 -0.8330
   13MOL    C1811562   5.747   6.724   0.323  0.5087 -0.1472  0.2275
   13MOL    C1911563   5.667   6.848   0.306 -0.9414 -0.7158  0.0161
   13MOL    C2011564   5.705   6.962   0.391 -0.7122 -0.3304 -0.3849
   13MOL    C2111565   5.660   6.938   0.537 -0.2846  0.1877  0.9680
   13MOL    O2211566   5.727   6.869   0.615  0.1069  0.5718  0.0845
   13MOL    H2311567   6.048   6.142   7.490  1.1396  0.0319  1.8126
   13MOL    H2411568   6.283   6.016   7.551  0.3536 -0.6236 -0.8899
   13MOL    H2511569   6.155   6.043   7.648  0.2314 -1.2438  1.2754
   13MOL    H2611570   6.240   5.873   7.329 -0.2018 -0.6361 -0.4533
   13MOL    H2711571   6.156   5.657   7.233  0.0303  0.3410 -0.4399
   13MOL    H2811572   5.984   5.527   7.379  1.4319 -0.4172 -1.1676
   13MOL    H2911573   5.926   5.599   7.603  2.4094 -2.9695 -1.6523
   13MOL    H3011574   6.099   5.865   0.006  1.6356  1.5841 -2.6807
   13MOL    H3111575   5.945   5.765   7.789 -0.2720 -0.2392 -1.3722
   13MOL    H3211576   5.914   5.998   7.635  0.2823 -1.8529 -0.5067
   13MOL    H3311577   5.753   6.170   7.763 -0.6766 -0.6643 -0.4695
   13MOL    H3411578   5.913   6.244   7.739  0.9081 -2.5182 -1.3438
   13MOL    H3511579   5.959   6.277   0.174  0.4176 -0.8386  1.3801
   13MOL    H3611580   5.804   6.222   0.222 -0.0745 -1.9923 -0.9971
   13MOL    H3711581   5.850   6.447   0.024  3.5555 -2.5087  0.9660
   13MOL    H3811582   5.687   6.398   0.065  0.6977  1.5303 -0.6996
   13MOL    H3911583   5.748   6.458   0.320  0.4528 -0.1169  0.6387
   13MOL    H4011584   5.894   6.519   0.251  0.4424 -0.8873  0.3411
   13MOL    H4111585   5.759   6.666   0.112  1.1506  0.9939 -0.1274
   13MOL    H4211586   5.616   6.609   0.201  0.5208 -0.1240 -1.1148
   13MOL    H4311587   5.852   6.751   0.319  0.0788  1.3404 -1.4394
   13MOL    H4411588   5.725   6.671   0.416  1.3870 -1.7027 -0.4347
   13MOL    H4511589   5.678   6.889   0.205 -0.5140  3.0521  1.4936
   13MOL    H4611590   5.559   6.834   0.312 -0.7028 -2.6987 -0.2086
   13MOL    H4711591   5.653   7.046   0.346  0.9950  0.6094 -0.6509
   13MOL    H4811592   5.809   6.995   0.396 -0.8397 -0.0678  0.8091
   13MOL    H4911593   6.192   6.159   7.427  0.8876 -0.5746  0.5934
   13MOL    N5011594   5.544   6.990   0.568 -0.8361 -0.0656 -0.1382
   13MOL    C5111595   5.472   6.974   0.700 -0.3072  1.1761  0.1120
   13MOL    C5211596   5.455   7.107   0.783  0.8838 -0.8400  0.1125
   13MOL    C5311597   5.552   7.213   0.767  0.3583 -0.0179 -0.2085
   13MOL    C5411598   5.536   7.336   0.834  0.3509  0.6471  0.2187
   13MOL    C5511599   5.438   7.348   0.937 -0.7598 -0.0199 -0.2038
   13MOL    C5611600   5.349   7.245   0.964  1.0218  0.4375  0.6373
   13MOL    C5711601   5.347   7.130   0.877  0.1920 -0.2107 -0.3241
   13MOL    C5811602   5.244   7.025   0.901 -0.1224  0.3023 -0.2693
   13MOL    N5911603   5.128   7.045   0.811 -0.1406 -0.4517 -0.2577
   13MOL    C6011604   5.024   7.122   0.841  0.1803  0.1251  0.2417
   13MOL    O6111605   5.022   7.201   0.933  0.5763 -0.2339  0.1230
   13MOL    C6211606   4.901   7.108   0.748  0.5112 -0.0830 -0.5082
   13MOL    C6311607   4.788   7.202   0.756  0.4660 -0.2476 -0.1971
   13MOL    C6411608   4.821   7.350   0.709 -0.5873 -0.2421 -0.2140
   13MOL    C6511609   4.688   7.434   0.713 -0.0974 -0.2772  0.4981
   13MOL    C6611610   4.666   7.489   0.856  1.1223 -0.2662 -0.0468
   13MOL    C6711611   4.531   7.560   0.861  0.4530  0.3029  0.3152
   13MOL    C6811612   4.475   7.596   1.004 -0.1999 -0.2321  0.2066
   13MOL    C6911613   4.349   7.679   1.005 -0.7416 -0.0197 -0.2363
   13MOL    C7011614   4.364   0.042   1.044  0.4404  0.1418  0.2487
   13MOL    O7111615   4.441   0.110   0.975 -0.0270 -0.2796  0.1036
   13MOL    H7211616   5.496   7.058   0.510  0.3171  0.3740 -0.5918
   13MOL    H7311617   5.527   6.904   0.762 -2.5346 -0.2093  0.5847
   13MOL    H7411618   5.379   6.918   0.687  1.4411 -1.8125  0.1733
   13MOL    H7511619   5.631   7.199   0.695  0.7752  2.7822 -0.3853
   13MOL    H7611620   5.598   7.420   0.807  1.2910 -0.0089  0.3168
   13MOL    H7711621   5.435   7.443   0.989  0.3463 -0.5990  0.9792
   13MOL    H7811622   5.273   7.263   1.039 -2.0107 -0.4299 -2.0789
   13MOL    H7911623   5.212   7.028   1.005  0.2025  0.2415 -0.1663
   13MOL    H8011624   5.287   6.925   0.892  0.0994  0.2819  0.8917
   13MOL    H8111625   5.118   6.987   0.729 -0.5119 -2.8010  1.3995
   13MOL    H8211626   4.868   7.004   0.755  2.2994 -0.6067  0.2855
   13MOL    H8311627   4.933   7.104   0.644  0.8315  1.0792 -0.4513
   13MOL    H8411628   4.745   7.198   0.857 -0.7054  1.3090 -0.6195
   13MOL    H8511629   4.725   7.160   0.678  0.8948  0.1492 -0.7528
   13MOL    H8611630   4.894   7.392   0.778 -0.5553 -0.8459  0.1231
   13MOL    H8711631   4.856   7.346   0.606 -0.9782  1.7696 -0.4397
   13MOL    H8811632   4.697   7.524   0.652 -0.5658 -0.3631  0.2966
   13MOL    H8911633   4.599   7.390   0.667  0.5288 -0.3228 -0.6857
   13MOL    H9011634   4.670   7.424   0.944 -1.1302 -0.5223 -0.1137
   13MOL    H9111635   4.740   7.566   0.878  0.1617 -0.0941  2.6518
   13MOL    H9211636   4.448   7.505   0.818  1.4008 -1.3077  0.5158
   13MOL    H9311637   4.541   7.642   0.791  0.7246  0.6112  0.7093
   13MOL    H9411638   4.564   7.643   1.048  0.0215 -0.6159  0.1668
   13MOL    H9511639   4.467   7.509   1.069 -0.6128  1.1994  2.1516
   13MOL    H9611640   4.270   7.631   1.063 -0.5033  0.6961  0.6996
   13MOL    H9711641   4.308   7.673   0.904 -1.3095 -0.2126  0.0046
   13MOL    N9811642   4.281   0.095   1.130 -0.2905  0.5308  0.1388
   13MOL    C9911643   4.280   0.236   1.161 -0.0404  0.6693  0.4622
   13MOL   C10011644   4.349   0.262   1.288 -0.2982 -0.4118  0.3187
   13MOL   C10111645   4.482   0.312   1.277 -0.0585 -0.2995 -0.3967
   13MOL   C10211646   4.552   0.358   1.393 -0.2380 -0.7563  0.1927
   13MOL   C10311647   4.491   0.344   1.523  0.1674 -0.0717 -0.1791
   13MOL   C10411648   4.358   0.303   1.529 -0.0683 -0.0001 -0.2973
   13MOL   C10511649   4.279   0.264   1.415 -0.4389 -0.4172  0.2094
   13MOL   C10611650   4.134   0.212   1.442 -0.7462 -0.1727 -0.0464
   13MOL   N10711651   4.136   0.074   1.499  0.4585 -0.0373 -0.0756
   13MOL   C10811652   4.079   7.753   1.445 -0.5365  0.5510 -0.9102
   13MOL   O10911653   4.024   7.739   1.343  0.3745 -0.5270 -0.3985
   13MOL   C11011654   4.120   7.634   1.539  0.6653 -0.2033  0.4534
   13MOL   C11111655   4.089   7.501   1.471  0.3036  0.6502 -0.3523
   13MOL   C11211656   4.119   7.379   1.560  0.0110  0.4038 -0.1230
   13MOL   C11311657   4.007   7.334   1.650 -0.3557 -0.2102 -0.1078
   13MOL   C11411658   3.976   7.414   1.782 -0.7544 -0.1200  0.3912
   13MOL   C11511659   3.886   7.341   1.885 -0.1156 -0.2302 -0.0366
   13MOL   C11611660   3.749   7.301   1.816  0.4721  0.6079 -0.0036
   13MOL   C11711661   3.644   7.244   1.909  0.9684 -0.7548 -0.0344
   13MOL   C11811662   3.686   7.121   1.980 -0.7477 -0.5511 -0.1169
   13MOL   O11911663   3.775   7.043   1.933  0.4848  0.1982  0.4330
   13MOL   H12011664   4.206   0.035   1.163  1.0638 -1.1726  0.2203
   13MOL   H12111665   4.313   0.289   1.072 -1.1357 -0.0166 -0.3620
   13MOL   H12211666   4.177   0.269   1.174 -0.5706 -0.3419 -1.1356
   13MOL   H12311667   4.534   0.323   1.183 -0.9708 -2.2056 -1.1427
   13MOL   H12411668   4.657   0.385   1.394 -0.1120 -1.1616 -0.9035
   13MOL   H12511669   4.543   0.377   1.611  1.1059  0.8783 -1.0845
   13MOL   H12611670   4.309   0.297   1.625  0.1078  0.6580 -0.1714
   13MOL   H12711671   4.069   0.209   1.355  1.2969 -0.2021 -1.6018
   13MOL   H12811672   4.101   0.288   1.513  1.3157 -0.6127  1.4284
   13MOL   H12911673   4.191   0.060   1.583 -1.1080  1.1924  1.1902
   13MOL   H13011674   4.053   7.644   1.625 -1.3413  0.9076 -1.1903
   13MOL   H13111675   4.227   7.642   1.559  1.1258  0.7780 -2.2400
   13MOL   H13211676   4.155   7.488   1.384 -0.5936 -2.0942 -0.6445
   13MOL   H13311677   3.994   7.495   1.418  1.1568 -0.3588 -1.8227
   13MOL   H13411678   4.147   7.295   1.495 -1.1049 -0.8096  0.9447
   13MOL   H13511679   4.206   7.396   1.624  0.6189 -3.3436  0.1818
   13MOL   H13611680   3.917   7.335   1.589 -0.0514 -0.4509 -0.5578
   13MOL   H13711681   4.035   7.232   1.677  1.6697  0.8081  1.8309
   13MOL   H13811682   4.068   7.442   1.832  1.6592 -0.4800 -3.6063
   13MOL   H13911683   3.942   7.511   1.747 -2.2252 -0.4916  0.7540
   13MOL   H14011684   3.864   7.413   1.964  1.4879  0.9366 -0.6287
   13MOL   H14111685   3.940   7.258   1.930 -2.4931 -2.2945 -0.8658
   13MOL   H14211686   3.720   7.392   1.764  0.9759  0.2909 -0.8460
   13MOL   H14311687   3.766   7.230   1.735  0.8647 -0.4215  0.9664
   13MOL   H14411688   3.555   7.216   1.854  1.6557  0.8417 -2.0118
   13MOL   H14511689   3.614   7.318   1.983 -0.9865 -2.5539  1.0265
   13MOL   N14611690   3.630   7.097   2.100  0.5686 -0.0216 -0.1088
   13MOL   C14711691   3.674   6.986   2.178  0.2403 -0.2866 -0.2254
   13MOL   C14811692   3.575   6.944   2.283  0.2667 -0.2504 -0.1322
   13MOL   C14911693   3.499   6.829   2.253  0.0912 -0.1084  0.1044
   13MOL   C15011694   3.409   6.780   2.344  0.2888  0.0765  0.3154
   13MOL   C15111695   3.388   6.845   2.467  0.5693  0.2783  0.5093
   13MOL   C15211696   3.450   6.965   2.494 -0.1534  0.4582  0.0990
   13MOL   C15311697   3.556   7.010   2.413  0.0248 -0.6401  0.1788
   13MOL   C15411698   3.629   7.128   2.464  0.5090  0.2856  0.5689
   13MOL   N15511699   3.552   7.238   2.529 -0.2916 -0.1194  0.5033
   13MOL   C15611700   3.589   7.324   2.626 -0.0093  0.0280  0.2696
   13MOL   O15711701   3.700   7.321   2.675 -0.4645  0.1032 -0.0179
   13MOL   C15811702   3.486   7.413   2.696  0.4790  0.6226 -0.0032
   13MOL   C15911703   3.420   7.347   2.814 -0.2606 -0.0306  0.1499
   13MOL   C16011704   3.505   7.336   2.941  0.7219  0.7188  0.0020
   13MOL   C16111705   3.426   7.293   3.065 -0.0612  0.4956  0.4367
   13MOL   C16211706   3.511   7.274   3.191  0.6548  0.2535  0.1940
   13MOL   C16311707   3.428   7.266   3.325 -0.5174 -0.1410 -0.1040
   13MOL   C16411708   3.361   7.128   3.352 -0.7637  0.6109  0.2693
   13MOL   C16511709   3.264   7.114   3.463 -0.2307  0.4133 -0.7921
   13MOL   C16611710   3.158   7.220   3.469 -0.4267  0.2758  0.0288
   13MOL   O16711711   3.071   7.236   3.382 -0.5143  0.2013  0.3143
   13MOL   H16811712   3.537   7.126   2.124 -0.0153 -0.9960 -1.1466
   13MOL   H16911713   3.773   7.013   2.214  0.4996 -1.5462  0.0168
   13MOL   H17011714   3.694   6.902   2.112 -0.7500  0.7884 -1.9269
   13MOL   H17111715   3.513   6.772   2.163  0.8282 -1.4794  1.0692
   13MOL   H17211716   3.357   6.691   2.315  2.0928 -0.4625 -1.3868
   13MOL   H17311717   3.309   6.803   2.528 -0.5283  0.7820 -0.5430
   13MOL   H17411718   3.416   7.023   2.578  0.8587 -0.1207  0.9194
   13MOL   H17511719   3.691   7.179   2.390 -1.0664  0.6253 -0.5166
   13MOL   H17611720   3.704   7.082   2.529  0.0700  0.7136  1.3832
   13MOL   H17711721   3.457   7.239   2.495 -1.3570  0.2844  3.4335
   13MOL   H17811722   3.417   7.463   2.628  0.2267 -1.3336 -1.2217
   13MOL   H17911723   3.534   7.506   2.725 -0.2548  1.0130 -0.0452
   13MOL   H18011724   3.367   7.256   2.786 -1.5783  1.0783 -1.0057
   13MOL   H18111725   3.341   7.413   2.850 -1.1017  0.2579 -2.1494
   13MOL   H18211726   3.591   7.271   2.949  0.6435  0.6618  0.4343
   13MOL   H18311727   3.538   7.434   2.976 -0.8448  0.9098  1.0128
   13MOL   H18411728   3.340   7.360   3.078 -0.1806  0.0664  1.9436
   13MOL   H18511729   3.377   7.198   3.043  0.3380  0.8532 -2.2410
   13MOL   H18611730   3.585   7.195   3.183  0.7668  0.4208 -0.3621
   13MOL   H18711731   3.569   7.363   3.215 -0.4086  1.4306 -1.4634
   13MOL   H18811732   3.354   7.346   3.324 -0.4202  0.0272  2.1814
   13MOL   H18911733   3.487   7.286   3.415 -0.9367 -0.4661  0.2452
   13MOL   H19011734   3.295   7.106   3.268 -1.1851 -0.1305  0.7875
   13MOL   H19111735   3.432   7.047   3.366 -1.5295 -0.4169 -1.5689
   13MOL   H19211736   3.313   7.112   3.561 -1.0449  1.4919 -0.3589
   13MOL   H19311737   3.214   7.017   3.461 -0.4634  0.4768  0.8394
   13MOL   N19411738   3.154   7.293   3.582  0.7926  0.3077 -0.3175
   13MOL   C19511739   3.047   7.382   3.621 -0.1727 -0.0988 -0.2497
   13MOL   C19611740   3.025   7.374   3.768  0.2655 -0.2485 -0.1098
   13MOL   C19711741   3.064   7.485   3.839 -0.2742  0.6325  0.2904
   13MOL   C19811742   3.081   7.478   3.977 -0.3892 -0.7623 -0.5490
   13MOL   C19911743   3.057   7.361   4.040  0.2332  0.3067 -0.5891
   13MOL   C20011744   3.005   7.248   3.971 -0.7314 -0.3247  0.4321
   13MOL   C20111745   2.984   7.253   3.835  0.3552  0.1542 -0.5675
   13MOL   C20211746   2.932   7.128   3.771 -0.2121 -0.1274  0.6817
   13MOL   N20311747   3.015   7.014   3.801 -0.1188  0.5776  0.0044
   13MOL   C20411748   3.015   6.900   3.729  0.3282  0.1557 -0.3493
   13MOL   O20511749   2.964   6.896   3.620  0.5233  0.5211  0.4227
   13MOL   C20611750   3.088   6.782   3.783 -0.3644  0.0359  0.0705
   13MOL   C20711751   3.219   6.754   3.707  0.1202 -0.4576  0.5429
   13MOL   C20811752   3.336   6.855   3.731  0.2392 -0.7554  1.0124
   13MOL   C20911753   3.443   6.849   3.626 -0.5120 -0.9825  0.0666
   13MOL   C21011754   3.555   6.948   3.665 -0.5515  0.1374  0.1980
   13MOL   C21111755   3.672   6.964   3.565  0.8534  0.4252  0.5720
   13MOL   C21211756   3.756   6.831   3.556  0.5462 -0.4609 -0.0785
   13MOL   C21311757   3.883   6.859   3.485 -0.2900 -0.3043 -0.2981
   13MOL   C21411758   3.980   6.960   3.547  1.0350 -0.8403 -0.3832
   13MOL   O21511759   4.026   6.943   3.663  0.0417  0.7000 -0.0907
   13MOL   H21611760   3.238   7.290   3.638  0.9605 -0.3790 -0.5898
   13MOL   H21711761   3.085   7.479   3.587 -0.2508 -0.0495 -0.1962
   13MOL   H21811762   2.956   7.364   3.564  0.9072 -1.0256 -1.7053
   13MOL   H21911763   3.094   7.569   3.778  2.2583  0.8191  1.7304
   13MOL   H22011764   3.122   7.554   4.041 -1.3129 -1.3637  0.7726
   13MOL   H22111765   3.087   7.359   4.143 -0.3565  0.2214 -0.4193
   13MOL   H22211766   2.985   7.155   4.024  0.7762 -0.9446 -0.0853
   13MOL   H22311767   2.922   7.141   3.663  1.8886 -3.8932 -0.0769
   13MOL   H22411768   2.833   7.101   3.809 -0.0403 -1.1145  0.4638
   13MOL   H22511769   3.067   7.021   3.888 -1.4619 -0.4890  0.9065
   13MOL   H22611770   3.026   6.693   3.785 -0.7370  0.3055  0.7817
   13MOL   H22711771   3.114   6.805   3.886 -1.1856  0.4273  0.1959
   13MOL   H22811772   3.252   6.654   3.734  2.3501  0.2439  0.4973
   13MOL   H22911773   3.194   6.745   3.601  0.8305 -0.4977  0.3765
   13MOL   H23011774   3.285   6.951   3.732  3.7973  1.2035  1.4676
   13MOL   H23111775   3.372   6.840   3.832  0.2399  3.3487  1.7010
   13MOL   H23211776   3.475   6.748   3.600  1.4369 -0.6854  1.1529
   13MOL   H23311777   3.402   6.881   3.531  1.7578  0.8755 -0.3394
   13MOL   H23411778   3.519   7.050   3.681 -0.4843  0.1145  0.4818
   13MOL   H23511779   3.587   6.918   3.764 -1.3763  0.7680  0.6635
   13MOL   H23611780   3.733   7.046   3.603 -0.0009  1.1296  0.4377
   13MOL   H23711781   3.632   6.993   3.468 -1.1071 -0.3301  1.1406
   13MOL   H23811782   3.712   6.742   3.510 -0.7629 -0.4754  1.1724
   13MOL   H23911783   3.786   6.787   3.651  0.1308 -0.6677 -0.0401
   13MOL   H24011784   3.936   6.766   3.467  1.5785  0.5438  0.7114
   13MOL   H24111785   3.857   6.900   3.387  2.0219  0.9499 -0.4209
   13MOL   N24211786   3.983   7.085   3.487  0.5231 -0.7224  0.4949
   13MOL   C24311787   4.045   7.202   3.544 -0.8640  0.3621  0.3220
   13MOL   C24411788   4.016   7.333   3.466  0.3013  0.5436 -0.4272
   13MOL   C24511789   3.905   7.332   3.376  0.0424 -0.2311 -0.4169
   13MOL   C24611790   3.871   7.453   3.311  0.4654  0.6102  0.3032
   13MOL   C24711791   3.952   7.565   3.319 -0.0445  0.8921  0.5004
   13MOL   C24811792   4.064   7.565   3.404  0.2870  0.3332 -0.3583
   13MOL   C24911793   4.094   7.456   3.486 -0.1305  0.0620 -0.7823
   13MOL   C25011794   4.217   7.461   3.582 -0.4495  0.2800  0.3211
   13MOL   N25111795   4.322   7.373   3.545 -0.4167  0.4002  0.1250
   13MOL   C25211796   4.417   7.330   3.624  0.1023  0.2662  0.1884
   13MOL   O25311797   4.419   7.352   3.743 -0.4211 -0.0425 -0.0135
   13MOL   C25411798   4.525   7.252   3.552 -0.6707  0.2508 -0.5369
   13MOL   C25511799   4.565   7.116   3.627  0.5741 -0.6135 -0.5963
   13MOL   C25611800   4.687   7.124   3.724  0.2638 -0.5727  0.3154
   13MOL   C25711801   4.734   6.988   3.775 -0.7122  0.3657  0.3669
   13MOL   C25811802   4.863   6.995   3.843  0.2612 -0.2363  0.5282
   13MOL   C25911803   4.901   6.863   3.922  0.7187 -0.0696  0.6482
   13MOL   C26011804   5.048   6.854   3.980  0.2105  0.4535 -0.7225
   13MOL   C26111805   5.076   6.903   4.127 -0.2314  0.2085 -0.1739
   13MOL   C26211806   5.228   6.923   4.142  0.5512  0.3872  0.3622
   13MOL   O26311807   5.302   6.824   4.142 -0.2315  0.3214  0.4346
   13MOL   H26411808   3.934   7.087   3.398 -0.5728 -2.5328  1.0309
   13MOL   H26511809   4.012   7.228   3.645 -0.1808  2.2650  0.0652
   13MOL   H26611810   4.151   7.182   3.535 -1.0863 -0.0602 -1.4894
   13MOL   H26711811   3.851   7.239   3.371  0.7291 -0.7045  0.7343
   13MOL   H26811812   3.791   7.457   3.239  0.9310  0.2484 -0.2357
   13MOL   H26911813   3.924   7.658   3.272 -2.9590 -0.7614 -1.2164
   13MOL   H27011814   4.112   7.662   3.404 -1.0757  1.0401  1.7082
   13MOL   H27111815   4.178   7.422   3.676  1.8987  0.6807  1.5198
   13MOL   H27211816   4.263   7.559   3.594  0.4487 -0.2865  1.7237
   13MOL   H27311817   4.327   7.349   3.447 -2.9274  0.0872  0.0499
   13MOL   H27411818   4.618   7.309   3.545 -0.8983  0.5035 -1.7573
   13MOL   H27511819   4.495   7.227   3.450  2.3194 -0.8866 -1.1640
   13MOL   H27611820   4.579   7.058   3.536 -0.8447 -1.8746 -0.0492
   13MOL   H27711821   4.483   7.067   3.680  0.1101  0.1127 -0.6338
   13MOL   H27811822   4.666   7.179   3.816 -0.6263  1.1501 -0.8816
   13MOL   H27911823   4.771   7.163   3.667  0.7022 -1.6840  0.1973
   13MOL   H28011824   4.659   6.962   3.849 -1.7998 -0.9215 -1.1815
   13MOL   H28111825   4.718   6.911   3.701  0.6472  0.5016 -0.0934
   13MOL   H28211826   4.940   7.019   3.770  2.3876  0.6280  2.9628
   13MOL   H28311827   4.867   7.078   3.914  0.3191  0.8246 -0.6975
   13MOL   H28411828   4.879   6.775   3.862 -0.1412 -0.6199  1.7446
   13MOL   H28511829   4.822   6.851   3.996  0.6967 -1.9402  0.3448
   13MOL   H28611830   5.075   6.750   3.962  0.1278  0.5696 -1.5616
   13MOL   H28711831   5.104   6.919   3.913 -0.5195  2.7704  0.8715
   13MOL   H28811832   5.008   6.983   4.157 -1.7817  0.0458 -3.0441
   13MOL   H28911833   5.038   6.819   4.186  2.8313  0.0015  1.5759
   13MOL   N29011834   5.274   7.044   4.160  0.3390 -0.5419 -0.0171
   13MOL   C29111835   5.409   7.091   4.176  0.2027 -0.7965 -0.3600
   13MOL   C29211836   5.472   7.144   4.045 -0.6733 -0.0020 -0.9484
   13MOL   C29311837   5.427   7.270   4.003 -0.6644  0.3220  0.0917
   13MOL   C29411838   5.477   7.323   3.880  0.6672  0.0879 -0.7625
   13MOL   C29511839   5.574   7.254   3.812 -0.1841  0.1786  0.5959
   13MOL   C29611840   5.614   7.130   3.851  0.1705 -0.2339 -0.6504
   13MOL   C29711841   5.567   7.075   3.971 -0.1777 -0.0147 -0.1990
   13MOL   C29811842   5.623   6.940   4.022  0.1027 -0.1246  0.0658
   13MOL   N29911843   5.687   6.848   3.926  0.3091  0.0308  0.7642
   13MOL   C30011844   5.810   6.816   3.916 -0.3101  0.2523  0.1161
   13MOL   O30111845   5.889   6.839   4.006  0.2655 -0.0904 -0.1272
   13MOL   C30211846   5.846   6.737   3.791  0.3070  0.1241  0.2617
   13MOL   C30311847   5.995   6.705   3.763  0.0320 -0.3858 -1.1061
   13MOL   C30411848   6.057   6.811   3.672 -0.1535 -0.1304  0.6396
   13MOL   C30511849   6.206   6.778   3.645  0.4826 -0.3286  0.2746
   13MOL   C30611850   6.281   6.895   3.567  0.1887  0.0263  0.6092
   13MOL   C30711851   6.414   6.846   3.500 -0.1478  0.1602 -0.0264
   13MOL   C30811852   6.394   6.792   3.353  0.7177 -0.4374 -0.0708
   13MOL   C30911853   6.385   6.892   3.234  0.0399 -0.2615 -0.0183
   13MOL   C31011854   6.343   6.826   3.108  0.2106 -0.6440 -0.4959
   13MOL   O31111855   6.228   6.783   3.091  0.3631 -0.5946 -0.6896
   13MOL   H31211856   5.214   7.126   4.166 -0.7480 -1.3119 -0.2654
   13MOL   H31311857   5.409   7.161   4.260 -2.7661 -2.0265  0.7475
   13MOL   H31411858   5.476   7.018   4.220  0.5641 -0.2915 -0.0593
   13MOL   H31511859   5.364   7.329   4.067  0.3129 -0.7070  2.0328
   13MOL   H31611860   5.443   7.421   3.850  0.7296  0.9931  1.9677
   13MOL   H31711861   5.615   7.310   3.729  2.7810 -1.6553  0.7767
   13MOL   H31811862   5.692   7.084   3.793 -1.2241 -1.4626 -1.5877
   13MOL   H31911863   5.536   6.882   4.054 -0.6207  1.6660  1.4368
   13MOL   H32011864   5.699   6.959   4.097  0.0182 -0.1934  0.1669
   13MOL   H32111865   5.628   6.831   3.846 -1.5127  2.7142  1.4592
   13MOL   H32211866   5.790   6.645   3.810  1.5223 -1.3194 -2.8965
   13MOL   H32311867   5.813   6.779   3.696  0.1169  0.3094  0.4075
   13MOL   H32411868   5.986   6.610   3.710  0.5333  0.1593 -2.1773
   13MOL   H32511869   6.041   6.684   3.860 -1.6019  0.1921 -0.1828
   13MOL   H32611870   6.040   6.906   3.722  0.8436 -0.4658  1.6295
   13MOL   H32711871   6.007   6.812   3.575  2.8067 -2.1659 -1.0145
   13MOL   H32811872   6.264   6.752   3.734  1.9067  2.7432  0.3174
   13MOL   H32911873   6.211   6.685   3.588 -0.1122  0.7743 -1.6083
   13MOL   H33011874   6.204   6.951   3.513 -2.1470 -1.8697  1.9149
   13MOL   H33111875   6.300   6.978   3.636  1.7426  1.6593 -1.6942
   13MOL   H33211876   6.462   6.776   3.569  0.4380  0.9867  0.4172
   13MOL   H33311877   6.492   6.922   3.500  1.1969 -1.1895  0.4915
   13MOL   H33411878   6.476   6.725   3.328  0.3029  0.0609 -2.9301
   13MOL   H33511879   6.305   6.729   3.357  0.3581 -0.0662 -1.8127
   13MOL   H33611880   6.312   6.967   3.264  1.6147  1.2187  0.1534
   13MOL   H33711881   6.482   6.939   3.223 -0.6338  1.0502 -0.4202
   13MOL   N33811882   6.437   6.803   3.019 -0.1020  0.3067 -0.7334
   13MOL   C33911883   6.415   6.718   2.903  0.0492 -0.1887  0.5607
   13MOL   C34011884   6.515   6.603   2.909  0.0942  0.2037  0.1211
   13MOL   C34111885   6.460   6.482   2.954  0.1806 -0.0017  0.6190
   13MOL   C34211886   6.529   6.362   2.931  0.1369 -0.0483  0.0847
   13MOL   C34311887   6.662   6.365   2.886 -1.0563  0.6934 -0.2538
   13MOL   C34411888   6.719   6.487   2.841  0.4429 -0.6688 -0.7999
   13MOL   C34511889   6.647   6.608   2.859  0.5113 -0.3260  0.1823
   13MOL   C34611890   6.708   6.727   2.799  0.7250 -0.4383 -0.1320
   13MOL   N34711891   6.849   6.740   2.831 -0.3044 -0.1783  0.5336
   13MOL   C34811892   6.955   6.691   2.764  0.2316  0.3769  0.1318
   13MOL   O34911893   6.947   6.629   2.658  1.1173  0.0065 -0.0054
   13MOL   C35011894   7.095   6.720   2.832  0.1309 -0.2614  0.4776
   13MOL   C35111895   7.180   6.827   2.759 -0.0734 -0.0819  0.1615
   13MOL   C35211896   7.115   6.966   2.747  0.4327  0.1813  0.6607
   13MOL   C35311897   7.092   7.048   2.879 -0.0620  0.0134 -0.1624
   13MOL   C35411898   7.090   7.197   2.850 -0.0091 -0.3504  0.0808
   13MOL   C35511899   7.032   7.278   2.968  0.4950 -0.5341  0.2589
   13MOL   C35611900   7.144   7.322   3.064 -0.1277 -0.5211 -0.3095
   13MOL   C35711901   7.091   7.378   3.202  0.5081 -0.4616  0.1928
   13MOL   C35811902   7.032   7.270   3.288  0.0092  0.1842  0.4559
   13MOL   O35911903   7.082   7.156   3.283 -0.0621 -0.7905 -0.5086
   13MOL   H36011904   6.530   6.824   3.052 -0.4878  1.0429 -0.0738
   13MOL   H36111905   6.316   6.675   2.885  0.6919 -1.3200 -0.3416
   13MOL   H36211906   6.440   6.786   2.822 -1.3845 -1.5259 -1.0482
   13MOL   H36311907   6.361   6.482   2.997  0.5945 -0.4332  1.6086
   13MOL   H36411908   6.483   6.267   2.956 -1.4699  0.4623 -0.8387
   13MOL   H36511909   6.719   6.274   2.870  1.0068  1.6963  1.1668
   13MOL   H36611910   6.822   6.484   2.810  0.2601  1.0060 -1.6206
   13MOL   H36711911   6.662   6.823   2.826  1.1531 -0.3308  0.2196
   13MOL   H36811912   6.682   6.735   2.694 -1.4405 -0.1161  0.3970
   13MOL   H36911913   6.864   6.797   2.913 -0.3568  1.4374 -0.5764
   13MOL   H37011914   7.151   6.627   2.829  1.4604  0.5455 -0.3344
   13MOL   H37111915   7.081   6.755   2.934  0.2363  0.4587  0.2475
   13MOL   H37211916   7.200   6.786   2.660  1.8237  0.5505  0.2613
   13MOL   H37311917   7.274   6.833   2.813  1.0351  1.8928 -1.8866
   13MOL   H37411918   7.184   7.027   2.688  1.0256 -1.4733 -0.3852
   13MOL   H37511919   7.024   6.968   2.687  0.0589 -1.5387  1.1321
   13MOL   H37611920   7.154   7.018   2.963 -0.8463 -0.9821  0.0653
   13MOL   H37711921   6.998   7.011   2.918 -1.1444  1.1655 -1.6093
   13MOL   H37811922   7.192   7.236   2.852  0.3372 -1.2795  1.6659
   13MOL   H37911923   7.041   7.209   2.754  0.5053  0.7607 -0.0469
   13MOL   H38011924   6.955   7.225   3.025  0.2150 -0.6538 -0.2311
   13MOL   H38111925   6.989   7.371   2.931 -0.1360 -1.0570 -0.3195
   13MOL   H38211926   7.219   7.243   3.065  1.8021  1.2750  1.2801
   13MOL   H38311927   7.197   7.409   3.027 -0.2182 -0.7744 -1.0523
   13MOL   H38411928   7.027   7.463   3.182 -0.2782 -1.8889 -3.8312
   13MOL   H38511929   7.179   7.411   3.258  1.3916  0.8577 -1.8981
   13MOL   N38611930   6.933   7.292   3.375  0.0745  0.0258 -0.4078
   13MOL   C38711931   6.902   7.216   3.493 -0.6347  0.7394 -0.1890
   13MOL   C38811932   6.754   7.214   3.525  0.7573  0.2872  0.7372
   13MOL   C38911933   6.720   7.237   3.663  0.2098  0.0304 -0.2747
   13MOL   C39011934   6.586   7.216   3.707 -0.6363  0.0136  0.0646
   13MOL   C39111935   6.488   7.202   3.613  0.3759 -0.2975  0.6652
   13MOL   C39211936   6.516   7.183   3.476 -0.5261  0.5896 -0.1283
   13MOL   C39311937   6.651   7.182   3.426 -0.3970  0.3585 -0.2170
   13MOL   C39411938   6.682   7.152   3.279 -0.2625  0.1809  0.1728
   13MOL   N39511939   6.776   7.041   3.260  0.1891  0.3088 -0.4566
   13MOL   C39611940   6.775   6.947   3.165  0.2300  0.1005 -0.2137
   13MOL   O39711941   6.694   6.942   3.074 -0.0411 -0.5324 -0.0577
   13MOL   C39811942   6.874   6.827   3.183 -0.3839 -0.1062  0.0096
   13MOL   C39911943   6.818   6.684   3.154 -0.1583 -0.5121 -0.0762
   13MOL   C40011944   6.773   6.616   3.285  0.5286  0.5780 -0.3201
   13MOL   C40111945   6.691   6.491   3.260 -0.1910 -0.4980 -0.2121
   13MOL   C40211946   6.758   6.364   3.201 -0.2329 -0.3519 -0.0391
   13MOL   C40311947   6.856   6.282   3.287 -0.6950  0.3877 -0.1765
   13MOL   C40411948   6.891   6.144   3.220  0.7080 -0.1140 -0.5707
   13MOL   C40511949   6.985   6.058   3.309 -0.2474 -0.0525  0.5077
   13MOL   C40611950   6.907   5.958   3.391 -0.1577  0.4489 -0.1012
   13MOL   O40711951   6.831   5.887   3.331  0.5599  0.3764  0.1677
   13MOL   H40811952   6.887   7.383   3.369  0.7708  0.2860 -1.9109
   13MOL   H40911953   6.919   7.109   3.488 -0.5416  0.7801 -0.7417
   13MOL   H41011954   6.956   7.268   3.573 -1.4176 -1.5834  1.9209
   13MOL   H41111955   6.796   7.247   3.739  0.0570 -0.9203  0.0138
   13MOL   H41211956   6.566   7.230   3.813 -1.1477  0.9171 -0.1511
   13MOL   H41311957   6.386   7.195   3.649  0.0331 -0.0726 -0.2631
   13MOL   H41411958   6.438   7.149   3.409 -0.8719 -0.8234  0.9820
   13MOL   H41511959   6.718   7.243   3.232 -1.0234 -0.3453 -1.4626
   13MOL   H41611960   6.583   7.139   3.236 -0.7175  0.7639  1.0364
   13MOL   H41711961   6.853   7.037   3.326 -0.4273 -1.6552  0.1631
   13MOL   H41811962   6.948   6.842   3.105 -1.7039  0.6293 -1.1190
   13MOL   H41911963   6.928   6.837   3.277  0.4974  0.4871 -0.5569
   13MOL   H42011964   6.898   6.629   3.105 -0.7644 -0.3093 -1.3059
   13MOL   H42111965   6.735   6.701   3.086  0.2447  1.4495 -0.0881
   13MOL   H42211966   6.720   6.697   3.334 -1.0944 -0.0138 -1.0436
   13MOL   H42311967   6.866   6.602   3.340 -0.6385 -1.6169  1.1426
   13MOL   H42411968   6.658   6.465   3.360  0.9224 -1.2322 -0.0231
   13MOL   H42511969   6.598   6.517   3.210 -1.0514  0.8422  2.0286
   13MOL   H42611970   6.666   6.307   3.186  0.0782 -0.5889 -1.0937
   13MOL   H42711971   6.798   6.378   3.100 -0.0477  0.6654  0.1721
   13MOL   H42811972   6.817   6.278   3.389 -0.0993 -0.9998  0.0128
   13MOL   H42911973   6.950   6.336   3.302 -0.7042  0.4788 -0.4414
   13MOL   H43011974   6.936   6.169   3.123  2.1483 -2.1195 -0.4423
   13MOL   H43111975   6.797   6.096   3.192 -0.1981  2.0901 -1.4356
   13MOL   H43211976   7.046   6.125   3.370  1.6998 -1.6663  0.3641
   13MOL   H43311977   7.052   5.991   3.257 -1.6731 -0.2982 -1.0576
   13MOL   N43411978   6.918   5.969   3.521 -0.5491  0.4342 -0.5839
   13MOL   C43511979   6.843   5.878   3.605 -0.4235  0.0097  0.0057
   13MOL   C43611980   6.872   5.897   3.752  0.3641 -0.5468  0.2103
   13MOL   C43711981   6.968   5.811   3.804  0.2290 -0.1140  0.1594
   13MOL   C43811982   7.012   5.828   3.940 -0.1422 -0.3697  0.7880
   13MOL   C43911983   6.968   5.938   4.011 -0.6062 -0.0257  0.0629
   13MOL   C44011984   6.884   6.028   3.957 -0.2141  0.6372 -0.3542
   13MOL   C44111985   6.835   6.013   3.827 -0.2701  0.3810 -0.0490
   13MOL   C44211986   6.730   6.110   3.766  0.5603  0.6758 -0.7219
   13MOL   N44311987   6.604   6.044   3.792  0.3465  0.0834 -0.3706
   13MOL   C44411988   6.488   6.106   3.801 -0.1400 -0.2744  0.5035
   13MOL   O44511989   6.470   6.214   3.749 -0.3667  0.3132  0.0047
   13MOL   C44611990   6.393   6.041   3.896  0.5202 -0.7236 -0.5702
   13MOL   C44711991   6.349   6.135   4.014 -0.4047 -0.1124 -0.5837
   13MOL   C44811992   6.460   6.154   4.116 -0.0201  0.3089 -0.2030
   13MOL   C44911993   6.423   6.244   4.226  0.6974 -0.3732 -0.4047
   13MOL   C45011994   6.522   6.241   4.345  0.6447 -0.3373  0.2048
   13MOL   C45111995   6.478   6.346   4.449 -0.5164  0.2968 -0.2635
   13MOL   C45211996   6.595   6.378   4.544 -0.0640  0.6288 -0.4578
   13MOL   C45311997   6.556   6.482   4.651  0.4781 -0.1212 -0.2135
   13MOL   C45411998   6.486   6.427   4.775  0.9920  0.7508 -0.6701
   13MOL   O45511999   6.425   6.322   4.770 -0.4643 -0.3067 -0.2587
   13MOL   H45612000   6.974   6.044   3.557 -1.8678  1.1653 -0.0372
   13MOL   H45712001   6.865   5.777   3.570  0.1884  0.6016 -1.3537
   13MOL   H45812002   6.735   5.893   3.596 -0.3867 -0.5698 -1.4793
   13MOL   H45912003   6.996   5.726   3.744  2.7763  1.3253 -0.7588
   13MOL   H46012004   7.092   5.769   3.982 -0.5742 -1.2908  0.3267
   13MOL   H46112005   7.011   5.958   4.108  1.0342  2.2920 -1.0858
   13MOL   H46212006   6.846   6.115   4.008 -2.8085 -0.9665  0.5295
   13MOL   H46312007   6.734   6.133   3.660  0.6397 -0.0792 -0.8883
   13MOL   H46412008   6.736   6.209   3.811 -2.3610  0.7958 -0.4620
   13MOL   H46512009   6.613   5.951   3.828 -1.1783 -0.5088 -1.4633
   13MOL   H46612010   6.427   5.945   3.933  0.7404 -0.7100 -0.7418
   13MOL   H46712011   6.298   6.016   3.849  0.0738 -1.4731  0.6908
   13MOL   H46812012   6.255   6.101   4.057 -0.5754 -0.8409 -1.5212
   13MOL   H46912013   6.328   6.234   3.973 -1.1346  0.2832  0.6847
   13MOL   H47012014   6.482   6.054   4.154  2.0458  0.5771 -0.6321
   13MOL   H47112015   6.548   6.200   4.072  0.2260 -0.7718 -0.8693
   13MOL   H47212016   6.410   6.347   4.193  0.5816  1.0986  3.8786
   13MOL   H47312017   6.321   6.231   4.263  0.4583 -1.1758 -1.3344
   13MOL   H47412018   6.525   6.145   4.397 -3.6478 -0.1976  0.9240
   13MOL   H47512019   6.622   6.269   4.312  0.1635  0.0489 -0.9733
   13MOL   H47612020   6.388   6.321   4.506 -0.2201  0.3335  0.2291
   13MOL   H47712021   6.453   6.438   4.397  0.8662  0.1430 -1.2257
   13MOL   H47812022   6.646   6.296   4.593 -1.5833  0.5209  0.9843
   13MOL   H47912023   6.678   6.419   4.487 -0.5747  1.0926 -0.8707
   13MOL   H48012024   6.650   6.512   4.699  0.0755  0.4160  0.2509
   13MOL   H48112025   6.513   6.577   4.620 -1.3941 -0.2875  1.7701
   13MOL   N48212026   6.500   6.490   4.890 -0.5321  0.5059  0.1173
   13MOL   C48312027   6.441   6.467   5.023 -0.2551 -0.0373 -0.2523
   13MOL   C48412028   6.540   6.458   5.136 -0.0489 -0.1591  0.2548
   13MOL   C48512029   6.677   6.440   5.117  0.4374  0.5259 -0.0062
   13MOL   C48612030   6.773   6.449   5.219  0.3642 -0.0298 -0.1107
   13MOL   C48712031   6.725   6.474   5.351 -0.2645 -0.1415 -0.5057
   13MOL   C48812032   6.590   6.488   5.373 -0.4374 -0.0087 -0.2468
   13MOL   C48912033   6.491   6.480   5.270  0.0452 -0.0268  0.4106
   13MOL   C49012034   6.348   6.495   5.303  0.8319  0.4410  0.2090
   13MOL   N49112035   6.303   6.420   5.419 -0.2563 -0.6780 -0.3184
   13MOL   C49212036   6.266   6.473   5.535  0.1268  0.1417 -0.3728
   13MOL   O49312037   6.267   6.594   5.563 -0.0573 -0.3847 -0.0696
   13MOL   C49412038   6.229   6.372   5.643  1.0022  0.5056  0.0198
   13MOL   C49512039   6.094   6.391   5.709 -0.9887 -0.0689 -0.7832
   13MOL   C49612040   5.971   6.400   5.627  0.0333 -0.4956  1.1279
   13MOL   C49712041   5.844   6.367   5.716  1.0428 -0.2504 -0.1077
   13MOL   C49812042   5.712   6.368   5.628 -0.0573  0.0560 -0.5552
   13MOL   C49912043   5.664   6.508   5.594 -0.1708 -0.1556  0.7036
   13MOL   C50012044   5.528   6.506   5.515 -0.2950  0.7700  0.7003
   13MOL   C50112045   5.451   6.638   5.508 -0.9491 -0.0281  0.1878
   13MOL   C50212046   5.341   6.646   5.607 -0.4641 -0.1423  1.1129
   13MOL   O50312047   5.240   6.580   5.581 -0.3823  0.2021  0.2055
   13MOL   H50412048   6.575   6.558   4.890  1.3728 -1.4813  2.9550
   13MOL   H50512049   6.370   6.544   5.054  0.3614 -0.9627  3.7489
   13MOL   H50612050   6.377   6.379   5.017 -0.5015  0.0490  0.9499
   13MOL   H50712051   6.709   6.413   5.017 -3.0201 -0.9807 -0.7713
   13MOL   H50812052   6.875   6.422   5.198  0.4362  1.2803 -1.4893
   13MOL   H50912053   6.797   6.483   5.431  0.0755  0.4216 -0.8715
   13MOL   H51012054   6.555   6.515   5.471 -1.3102  1.8174 -1.0485
   13MOL   H51112055   6.273   6.464   5.230 -2.1146  2.3042  2.3481
   13MOL   H51212056   6.333   6.601   5.322 -0.8765  0.2880 -0.1742
   13MOL   H51312057   6.286   6.321   5.407  0.1472 -0.9706  1.3870
   13MOL   H51412058   6.308   6.376   5.718  0.4572  0.8452  0.5810
   13MOL   H51512059   6.241   6.275   5.596 -0.6253  0.0877  0.4251
   13MOL   H51612060   6.083   6.471   5.782 -1.5107  0.0338 -0.9700
   13MOL   H51712061   6.089   6.302   5.773  0.0863 -1.8456 -3.0899
   13MOL   H51812062   5.967   6.500   5.585  2.5557 -1.8839 -2.6769
   13MOL   H51912063   5.981   6.331   5.543 -0.7114  0.8574 -0.0966
   13MOL   H52012064   5.858   6.271   5.766  0.7025  0.6841  1.8184
   13MOL   H52112065   5.846   6.438   5.798 -0.6390 -0.3236  0.0103
   13MOL   H52212066   5.738   6.315   5.537  0.7732 -0.7840  0.1526
   13MOL   H52312067   5.633   6.318   5.684  0.5418  0.4132  0.6293
   13MOL   H52412068   5.739   6.565   5.539  0.2425 -3.0760 -1.9304
   13MOL   H52512069   5.655   6.560   5.689  0.1243 -0.0993  0.7019
   13MOL   H52612070   5.537   6.460   5.416 -0.9826  0.9365  0.5501
   13MOL   H52712071   5.466   6.430   5.564 -0.1854 -0.2050 -0.6471
   13MOL   H52812072   5.427   6.648   5.402  0.7012 -0.4006 -0.2304
   13MOL   H52912073   5.519   6.721   5.526  0.5180 -1.4838  1.5828
   13MOL   N53012074   5.358   6.721   5.718  0.0193  0.1601 -0.3767
   13MOL   C53112075   5.257   6.722   5.827  0.1715 -0.0582  0.1071
   13MOL   C53212076   5.309   6.816   5.934 -0.2525 -0.2991  0.1004
   13MOL   C53312077   5.245   6.941   5.941  0.2721  0.0986  0.1180
   13MOL   C53412078   5.294   7.042   6.031 -0.2928 -0.7161 -0.6727
   13MOL   C53512079   5.406   7.012   6.108  0.0554  0.3767 -0.1837
   13MOL   C53612080   5.473   6.890   6.099  0.3463  0.8302 -0.2947
   13MOL   C53712081   5.427   6.791   6.008 -0.5695  0.1639 -0.0226
   13MOL   C53812082   5.506   6.663   5.985 -0.1342  0.0705  0.1659
   13MOL   N53912083   5.580   6.614   6.097  0.1265  0.1526  0.0017
   13MOL   C54012084   5.626   6.489   6.108 -0.4355 -0.4700 -0.4318
   13MOL   O54112085   5.612   6.405   6.023 -0.3582 -0.4503 -0.0303
   13MOL   C54212086   5.705   6.459   6.236 -0.4961 -0.0642 -0.3197
   13MOL   C54312087   5.775   6.327   6.240 -0.5175  0.1676  0.3725
   13MOL   C54412088   5.677   6.205   6.271  0.6677  0.1874  0.0620
   13MOL   C54512089   5.664   6.192   6.419 -0.4194  0.0426  0.4329
   13MOL   C54612090   5.556   6.089   6.461  0.4561 -0.6345  0.0324
   13MOL   C54712091   5.500   6.099   6.602 -0.1085 -0.1521  0.3115
   13MOL   C54812092   5.602   6.043   6.704 -0.5877 -0.0679 -0.5239
   13MOL   C54912093   5.552   6.012   6.846 -0.6295  0.0041 -0.7002
   13MOL   C55012094   5.498   6.138   6.903 -0.1987  0.5140  0.6917
   13MOL   O55112095   5.576   6.223   6.937 -0.2987 -0.0201  0.2235
   13MOL   H55212096   5.436   6.784   5.727  0.9286 -0.9354 -0.5544
   13MOL   H55312097   5.236   6.631   5.884  2.2082  0.4222  1.6768
   13MOL   H55412098   5.166   6.763   5.784  1.2740  1.3802 -0.9343
   13MOL   H55512099   5.167   6.970   5.872 -0.5464  0.3160  1.1222
   13MOL   H55612100   5.255   7.142   6.032  2.1630  0.2745  0.7296
   13MOL   H55712101   5.451   7.072   6.185 -0.5228  0.7831 -0.1561
   13MOL   H55812102   5.569   6.872   6.146  0.1918  1.2169  0.1743
   13MOL   H55912103   5.585   6.684   5.913 -0.6703 -0.9886 -0.7478
   13MOL   H56012104   5.448   6.586   5.934  2.0246 -0.9764 -0.7309
   13MOL   H56112105   5.624   6.678   6.162  4.3547 -2.6258  0.0647
   13MOL   H56212106   5.636   6.465   6.319 -0.9969  0.2303 -0.7530
   13MOL   H56312107   5.778   6.540   6.240  0.3422 -0.9131  2.1606
   13MOL   H56412108   5.867   6.328   6.299  0.9561  0.7142 -1.8407
   13MOL   H56512109   5.811   6.312   6.138  1.8402  3.2918  0.6745
   13MOL   H56612110   5.582   6.221   6.221  0.6939 -0.0687 -0.0708
   13MOL   H56712111   5.717   6.113   6.227 -1.7684 -1.0705  0.4243
   13MOL   H56812112   5.758   6.150   6.456 -1.1674 -1.2067  0.9455
   13MOL   H56912113   5.650   6.291   6.463  0.2011  0.7485 -0.9450
   13MOL   H57012114   5.466   6.111   6.403  1.7846  2.4520 -0.9690
   13MOL   H57112115   5.575   5.988   6.426  0.4365 -0.6487  0.0627
   13MOL   H57212116   5.410   6.039   6.610 -0.2896  0.1911  0.8789
   13MOL   H57312117   5.471   6.199   6.635  1.7440  0.9919 -1.4062
   13MOL   H57412118   5.652   5.952   6.670  0.0362 -0.2869  0.9379
   13MOL   H57512119   5.683   6.115   6.714 -0.1449 -0.6385  0.1283
   13MOL   H57612120   5.631   5.970   6.908 -1.7960 -2.7689 -1.0142
   13MOL   H57712121   5.475   5.936   6.858  2.0556 -2.7301 -0.2198
   13MOL   N57812122   5.365   6.152   6.912 -0.1717  0.2047 -0.3987
   13MOL   C57912123   5.301   6.273   6.960 -1.0905  0.0631  0.1023
   13MOL   C58012124   5.158   6.233   6.991 -0.3277 -0.1275 -0.1197
   13MOL   C58112125   5.059   6.280   6.903  0.3457  0.1097  0.1866
   13MOL   C58212126   4.927   6.237   6.925  0.1793 -0.1022 -0.7309
   13MOL   C58312127   4.897   6.150   7.031 -0.4104 -0.5925  0.5092
   13MOL   C58412128   4.997   6.120   7.128 -0.2831 -0.0799 -0.4524
   13MOL   C58512129   5.130   6.163   7.112  0.7620 -0.4751 -0.3714
   13MOL   C58612130   5.240   6.119   7.205  0.7041 -0.5453 -0.7310
   13MOL   N58712131   5.286   5.987   7.176  0.5744  0.2747 -0.0137
   13MOL   C58812132   5.369   5.916   7.247 -0.0418  0.0448 -0.0710
   13MOL   O58912133   5.445   5.961   7.333  0.6030 -0.2397  0.8726
   13MOL   C59012134   5.384   5.772   7.206  0.4409  0.6423 -0.1723
   13MOL   C59112135   5.334   5.673   7.322 -0.2206 -0.3298  0.7809
   13MOL   C59212136   5.180   5.671   7.331 -0.1054 -0.1546 -0.5619
   13MOL   C59312137   5.128   5.771   7.433 -0.8152  0.2494  0.1746
   13MOL   C59412138   4.990   5.718   7.493  0.0953 -0.2924  0.8823
   13MOL   C59512139   4.920   5.801   7.598 -0.2719  0.1068 -0.0762
   13MOL   C59612140   5.018   5.820   7.712  0.5741 -0.2542  0.3061
   13MOL   C59712141   4.957   5.882   0.050 -0.1763  0.1238  0.8005
   13MOL   C59812142   5.049   5.875   0.174 -0.1485 -0.0724 -0.1498
   13MOL   O59912143   5.124   5.780   0.181 -0.6808  0.0355 -0.0444
   13MOL   H60012144   5.307   6.081   6.869 -0.3284 -0.9156  1.5698
   13MOL   H60112145   5.310   6.346   6.879 -2.2684 -0.6337 -0.6652
   13MOL   H60212146   5.350   6.318   7.046  0.0202  0.9272 -0.9589
   13MOL   H60312147   5.087   6.337   6.815  0.1770  1.3126  0.8996
   13MOL   H60412148   4.847   6.258   6.855 -0.1404  1.6571  0.1316
   13MOL   H60512149   4.799   6.104   7.036 -1.2367  0.9578 -0.6724
   13MOL   H60612150   4.972   6.051   7.207  0.5284  1.2220  0.9632
   13MOL   H60712151   5.200   6.117   7.306  0.1610 -0.2476 -0.9370
   13MOL   H60812152   5.320   6.193   7.217  1.3861 -1.3306 -0.3799
   13MOL   H60912153   5.227   5.938   7.110  1.2313 -0.8658  0.2371
   13MOL   H61012154   5.489   5.748   7.188  0.3832  2.3725 -3.2470
   13MOL   H61112155   5.334   5.752   7.112  1.2793 -1.1352 -0.2697
   13MOL   H61212156   5.385   5.699   7.415  0.1430  2.0694 -0.0593
   13MOL   H61312157   5.370   5.572   7.299  1.0089  0.4033 -0.6030
   13MOL   H61412158   5.135   5.698   7.236  0.1090  1.9365 -0.1069
   13MOL   H61512159   5.145   5.569   7.343 -1.2303 -0.0653 -2.8573
   13MOL   H61612160   5.193   5.779   7.520  0.5776  1.6984 -0.9754
   13MOL   H61712161   5.130   5.871   7.391  1.7602 -0.8769 -2.5508
   13MOL   H61812162   4.922   5.688   7.413 -1.8546  0.4562  2.2133
   13MOL   H61912163   5.016   5.620   7.535  2.0655 -0.4313 -0.6071
   13MOL   H62012164   4.836   5.750   7.645 -2.3519  1.5814 -2.0017
   13MOL   H62112165   4.889   5.898   7.556  2.8689  0.8041 -0.8997
   13MOL   H62212166   5.067   5.724   7.724 -1.3182 -1.3647 -0.6232
   13MOL   H62312167   5.103   5.883   7.683 -1.2229  3.5209  2.8067
   13MOL   H62412168   4.924   5.984   0.031 -1.8030 -0.5388  0.0199
   13MOL   H62512169   4.867   5.827   0.074 -1.1474  1.6571  0.7557
   13MOL   N62612170   5.040   5.974   0.262  0.7221 -0.0909 -0.3543
   13MOL   C62712171   5.117   5.979   0.392  0.7075 -0.8571 -0.4631
   13MOL   C62812172   5.055   5.903   0.511  0.3355  0.2482 -0.4517
   13MOL   C62912173   5.041   5.761   0.488 -0.6111 -0.0411  0.9675
   13MOL   C63012174   4.982   5.683   0.588  0.5133 -0.0912  0.5267
   13MOL   C63112175   4.943   5.738   0.709  0.3592  0.4920 -0.0504
   13MOL   C63212176   4.953   5.882   0.732  0.1292 -0.4067 -0.0678
   13MOL   C63312177   4.995   5.969   0.628  0.7266  0.0832  0.7416
   13MOL   C63412178   4.961   6.111   0.640  0.2930 -0.5882 -0.5861
   13MOL   N63512179   4.889   6.155   0.760 -0.2249 -0.5041 -0.0843
   13MOL   C63612180   4.813   6.258   0.768  0.3569 -0.3422 -0.1973
   13MOL   O63712181   4.781   6.330   0.670  0.3030  0.7154 -0.3486
   13MOL   C63812182   4.760   6.297   0.901 -0.1223  0.0895 -0.5038
   13MOL   C63912183   4.614   6.322   0.915 -0.4374 -0.2252 -0.2790
   13MOL   C64012184   4.566   6.453   0.859  0.4915 -0.1333  0.5955
   13MOL   C64112185   4.426   6.493   0.910 -0.3253  0.0146 -0.2556
   13MOL   C64212186   4.370   6.622   0.880  0.2617 -0.1069  0.1895
   13MOL   C64312187   4.230   6.640   0.944  0.2157  0.5121  0.2912
   13MOL   C64412188   4.187   6.784   0.920 -0.3845 -0.5007  0.1035
   13MOL   C64512189   4.060   6.825   1.000  0.9756  0.7164 -0.9416
   13MOL   C64612190   4.085   6.862   1.150 -0.1098  0.4673 -0.7852
   13MOL   O64712191   4.183   6.815   1.213 -0.0265 -0.2858  0.1654
   13MOL   H64812192   4.968   6.044   0.251  1.6059  0.9976  0.6605
   13MOL   H64912193   5.120   6.086   0.410 -0.1975 -1.1160  1.4141
   13MOL   H65012194   5.217   5.936   0.385  1.2994  0.1120  1.6974
   13MOL   H65112195   5.075   5.704   0.403 -1.3527 -0.0953  0.7053
   13MOL   H65212196   4.992   5.578   0.568  1.5859 -0.1423  1.3040
   13MOL   H65312197   4.912   5.666   0.784  0.1053  0.0854 -0.5435
   13MOL   H65412198   4.918   5.936   0.819 -0.0222  3.6606 -2.5350
   13MOL   H65512199   4.886   6.121   0.562 -1.5178  1.0104  1.2900
   13MOL   H65612200   5.039   6.184   0.615  0.6469  0.1610  2.5018
   13MOL   H65712201   4.931   6.123   0.846 -0.4524  0.8932  0.5669
   13MOL   H65812202   4.799   6.396   0.928 -1.8215  0.9553 -1.1511
   13MOL   H65912203   4.785   6.223   0.977 -1.7974  2.2192  2.2289
   13MOL   H66012204   4.586   6.324   1.020  0.1283  0.0439 -0.1315
   13MOL   H66112205   4.557   6.243   0.867 -1.4401  0.0886  0.3976
   13MOL   H66212206   4.641   6.528   0.883 -0.8720  0.8626  1.7773
   13MOL   H66312207   4.565   6.447   0.750 -0.2662 -1.2939  0.6565
   13MOL   H66412208   4.362   6.413   0.871 -0.5035 -0.0095  0.0816
   13MOL   H66512209   4.419   6.493   1.019  0.5928  1.5260 -0.1940
   13MOL   H66612210   4.435   6.698   0.922 -0.5953 -1.1589  3.6004
   13MOL   H66712211   4.361   6.629   0.771  0.1569 -3.2196 -0.0493
   13MOL   H66812212   4.228   6.637   1.053 -1.5205  0.8974  0.2743
   13MOL   H66912213   4.162   6.567   0.900  1.3031 -0.2356 -0.1985
   13MOL   H67012214   4.261   6.863   0.931  0.2826 -0.9177 -1.2112
   13MOL   H67112215   4.170   6.779   0.812  0.9302 -1.5875 -0.0760
   13MOL   H67212216   3.984   6.747   1.002 -0.1758  1.8074 -0.5508
   13MOL   H67312217   4.012   6.912   0.953  0.7190  0.6579 -0.7920
   13MOL   N67412218   3.998   6.944   1.209 -0.0975  0.0466  0.0692
   13MOL   C67512219   4.012   6.998   1.342  0.2458 -0.3011  0.0086
   13MOL   C67612220   3.889   7.082   1.393 -0.2234  0.3568 -0.1378
   13MOL   C67712221   3.866   7.202   1.324  0.2382 -0.4137 -1.0157
   13MOL   C67812222   3.760   7.283   1.345  0.0605 -0.2625  0.1690
   13MOL   C67912223   3.662   7.240   1.443 -0.1405  0.6428 -0.2686
   13MOL   C68012224   3.682   7.116   1.512  0.4972 -0.1993 -0.5505
   13MOL   C68112225   3.797   7.035   1.491 -0.5908  0.6503  1.1860
   13MOL   C68212226   3.812   6.914   1.581 -0.1300  0.7105  0.2486
   13MOL   N68312227   3.913   6.934   1.682 -0.1804 -0.1006 -0.7235
   13MOL   C68412228   4.023   6.862   1.693 -0.1474  0.4708 -0.1874
   13MOL   O68512229   4.045   6.756   1.639 -0.3139 -0.3327  0.2396
   13MOL   C68612230   4.130   6.938   1.783  0.0419 -0.0067 -0.1716
   13MOL   C68712231   4.242   6.996   1.683 -0.2809 -0.9437 -0.5787
   13MOL   C68812232   4.331   7.093   1.759  0.4326  0.3537  0.0591
   13MOL   C68912233   4.435   7.155   1.669 -0.5264  0.1153  0.3983
   13MOL   C69012234   4.548   7.221   1.745 -0.3138  0.3373  0.6055
   13MOL   C69112235   4.626   7.320   1.656  0.0973  0.1010  0.3606
   13MOL   C69212236   4.759   7.365   1.711 -0.7763  0.0742  0.7086
   13MOL   C69312237   4.829   7.467   1.616 -0.5117  0.0081 -1.1540
   13MOL   C69412238   4.961   7.498   1.673  0.4529 -0.3342  0.2351
   13MOL   O69512239   4.970   7.552   1.782 -0.0062  0.5455 -0.0876
   13MOL   H69612240   3.949   6.990   1.133  3.5540 -0.3501 -2.6866
   13MOL   H69712241   4.095   7.068   1.343 -1.0673  1.2721 -0.2796
   13MOL   H69812242   4.035   6.916   1.412 -3.8615 -0.8354  0.8241
   13MOL   H69912243   3.943   7.232   1.254  0.1089 -0.6761 -1.2734
   13MOL   H70012244   3.745   7.367   1.279  2.6389 -0.3841 -0.6095
   13MOL   H70112245   3.578   7.306   1.457  0.2151  1.2676 -1.0709
   13MOL   H70212246   3.616   7.075   1.586  0.1066  0.0343 -0.7650
   13MOL   H70312247   3.835   6.823   1.526 -0.8953  0.5815  0.1252
   13MOL   H70412248   3.719   6.887   1.632  0.9618  0.1123  1.9227
   13MOL   H70512249   3.898   7.017   1.737 -1.5967 -1.1826  0.5434
   13MOL   H70612250   4.171   6.865   1.854 -1.2856 -1.1753 -0.5807
   13MOL   H70712251   4.084   7.013   1.846 -0.9866 -3.1076  2.9501
   13MOL   H70812252   4.182   7.033   1.600 -1.8901  0.7507  1.2859
   13MOL   H70912253   4.301   6.916   1.637 -0.2720 -2.4335  1.9351
   13MOL   H71012254   4.266   7.167   1.805  1.7320  0.3303  2.0130
   13MOL   H71112255   4.373   7.031   1.838 -0.3225 -0.9132 -0.5197
   13MOL   H71212256   4.477   7.087   1.595  2.6103  0.8838  1.4246
   13MOL   H71312257   4.384   7.231   1.609  2.7070  0.4379 -2.0750
   13MOL   H71412258   4.513   7.281   1.829 -1.1394 -0.2129  0.6609
   13MOL   H71512259   4.620   7.151   1.789 -0.9835 -0.2126  0.8405
   13MOL   H71612260   4.566   7.410   1.640  2.0783  1.4288  0.1802
   13MOL   H71712261   4.628   7.290   1.551 -1.8948  0.7094  0.1273
   13MOL   H71812262   4.826   7.279   1.715 -1.7823 -0.7342  0.2898
   13MOL   H71912263   4.741   7.413   1.806  1.2236  1.6574  0.3216
   13MOL   H72012264   4.771   7.558   1.603 -0.0349  0.4457 -0.2537
   13MOL   H72112265   4.833   7.410   1.523  0.7243 -2.0026  0.0871
   13MOL   N72212266   5.064   7.445   1.613 -0.4419 -0.4348 -0.0481
   13MOL   C72312267   5.200   7.434   1.668  0.0804 -0.2399 -0.4284
   13MOL   C72412268   5.295   7.370   1.569 -0.1431 -0.3331  0.3205
   13MOL   C72512269   5.347   7.243   1.603  0.4434 -0.0323 -0.0161
   13MOL   C72612270   5.429   7.175   1.517  0.4501  0.5333 -0.0813
   13MOL   C72712271   5.459   7.231   1.393  0.6149 -0.8293 -0.0768
   13MOL   C72812272   5.423   7.361   1.362  0.0533 -0.1828  0.1328
   13MOL   C72912273   5.335   7.428   1.449  0.5827  0.0900  0.3146
   13MOL   C73012274   5.275   7.555   1.398  0.4562  0.1735  0.3511
   13MOL   N73112275   5.316   7.670   1.481 -0.0472  0.1178  0.3237
   13MOL   C73212276   5.242   7.779   1.490  0.5988 -0.5893  0.4302
   13MOL   O73312277   5.152   0.027   1.409  0.4455  0.1742  0.0682
   13MOL   C73412278   5.267   0.073   1.617  0.1484 -0.1870  0.2118
   13MOL   C73512279   5.182   0.202   1.636 -0.2956 -0.1891  0.1335
   13MOL   C73612280   5.028   0.200   1.642  0.4190  0.1169 -0.4776
   13MOL   C73712281   4.956   0.327   1.707 -0.0027 -0.0339 -0.8174
   13MOL   C73812282   4.951   0.445   1.604  0.3717  0.1794 -0.8194
   13MOL   C73912283   4.855   0.554   1.652  0.1885  0.1779 -0.2856
   13MOL   C74012284   4.935   0.667   1.730 -0.5964 -0.3307  0.0148
   13MOL   C74112285   4.849   0.780   1.778 -0.1305  0.6176 -0.2996
   13MOL   C74212286   4.925   0.877   1.864  0.1077 -0.6349  0.1728
   13MOL   O74312287   4.949   0.851   1.986  0.1637 -0.2800 -0.0306
   13MOL   H74412288   5.055   7.393   1.527 -0.5215  0.8574 -0.8330
   13MOL   H74512289   5.193   7.376   1.760  0.9145 -1.1583 -0.9435
   13MOL   H74612290   5.234   7.529   1.710  0.2539 -0.2563 -0.5293
   13MOL   H74712291   5.319   7.200   1.699 -0.5108  2.3620  0.8061
   13MOL   H74812292   5.465   7.077   1.542  1.5907  1.4446  1.9929
   13MOL   H74912293   5.529   7.183   1.325  0.9546 -1.3529  0.6393
   13MOL   H75012294   5.455   7.403   1.268  0.2377  0.0880  0.3153
   13MOL   H75112295   5.167   7.544   1.394  0.6946 -2.1770 -0.4780
   13MOL   H75212296   5.299   7.564   1.292 -1.4682  0.9673 -0.0333
   13MOL   H75312297   5.381   7.646   1.555 -0.2265 -2.9547 -0.4175
   13MOL   H75412298   5.373   0.095   1.625 -0.4366  2.3646  1.5782
   13MOL   H75512299   5.251   7.789   1.696 -0.1064 -0.7736 -0.3874
   13MOL   H75612300   5.216   0.282   1.571 -0.4948 -0.6871 -0.5892
   13MOL   H75712301   5.215   0.245   1.730  0.5070 -2.1721  0.7994
   13MOL   H75812302   4.984   0.181   1.544 -2.4529  1.5465  0.4738
   13MOL   H75912303   5.000   0.116   1.705 -0.6056  1.0169  0.2608
   13MOL   H76012304   4.860   0.288   1.740  0.9007 -0.8075  0.9395
   13MOL   H76112305   5.021   0.367   1.785 -1.8810 -0.4858  1.0122
   13MOL   H76212306   5.046   0.469   1.556  1.0322 -0.4778  0.1403
   13MOL   H76312307   4.887   0.410   1.523  0.2948  0.2346 -0.7828
   13MOL   H76412308   4.776   0.511   1.714 -0.8391 -1.5287 -2.7200
   13MOL   H76512309   4.796   0.592   1.569  1.3352 -1.3972 -1.8682
   13MOL   H76612310   4.983   0.615   1.814 -3.2350 -3.4389 -0.2912
   13MOL   H76712311   5.023   0.704   1.679 -0.0959  1.0889  1.8456
   13MOL   H76812312   4.813   0.821   1.683  1.2699  3.3659  0.3046
   13MOL   H76912313   4.767   0.743   1.839  1.3956 -3.2797 -0.4457
   13MOL   N77012314   4.968   0.983   1.800  0.6598  0.2114  0.4822
   13MOL   C77112315   5.045   1.088   1.874 -0.6431 -0.1194 -0.0183
   13MOL   C77212316   5.188   1.099   1.820 -0.9242 -0.4511  0.4662
   13MOL   C77312317   5.250   0.981   1.763  0.2488  0.1041 -0.1703
   13MOL   C77412318   5.362   0.991   1.686 -0.7776  0.2247 -0.2792
   13MOL   C77512319   5.447   1.109   1.691  0.2006  0.0214 -0.6921
   13MOL   C77612320   5.401   1.220   1.764 -0.2112 -0.1972  0.4082
   13MOL   C77712321   5.274   1.214   1.817 -0.0923  1.2066 -0.1022
   13MOL   C77812322   5.220   1.346   1.871 -0.4629  0.4418  0.4294
   13MOL   N77912323   5.303   1.437   1.958  0.3505  0.1428 -0.0843
   13MOL   C78012324   5.366   1.546   1.914 -0.3917  0.5445  0.2619
   13MOL   O78112325   5.363   1.586   1.796 -0.1635 -0.3322 -0.2235
   13MOL   C78212326   5.464   1.625   2.016  0.0213 -0.2225 -0.0475
   13MOL   C78312327   5.532   1.748   1.959 -0.1361  0.4319 -0.6625
   13MOL   C78412328   5.637   1.810   2.051  0.0467 -0.1661  1.1478
   13MOL   C78512329   5.583   1.891   2.171 -0.5013  0.0202 -0.5092
   13MOL   C78612330   5.695   1.932   2.263  0.8250 -0.1880  0.1682
   13MOL   C78712331   5.647   2.014   2.382  0.1243  0.6241 -0.7206
   13MOL   C78812332   5.768   2.030   2.474  0.1749  0.7067  0.1951
   13MOL   C78912333   5.755   2.148   2.572 -0.2490 -0.0631  0.7981
   13MOL   C79012334   5.652   2.130   2.681  0.1905  0.1411  0.2668
   13MOL   O79112335   5.678   2.063   2.779  1.1360 -0.3276 -0.1349
   13MOL   H79212336   4.946   1.006   1.704 -1.0883 -0.1453  0.7824
   13MOL   H79312337   4.991   1.179   1.848 -1.9915 -1.1464 -0.8854
   13MOL   H79412338   5.040   1.077   1.982 -0.7373 -0.8159 -0.0890
   13MOL   H79512339   5.193   0.891   1.777  1.0685 -0.4319 -0.2656
   13MOL   H79612340   5.403   0.907   1.633  1.6061  2.0290 -1.3907
   13MOL   H79712341   5.535   1.107   1.630 -0.5130 -2.0299 -1.6974
   13MOL   H79812342   5.452   1.315   1.763 -1.0501  0.2384 -1.8562
   13MOL   H79912343   5.131   1.326   1.931 -0.6954 -0.2473 -0.1462
   13MOL   H80012344   5.193   1.395   1.777 -0.2826 -0.1920  0.0414
   13MOL   H80112345   5.304   1.400   2.052  0.1367 -2.3957 -1.0278
   13MOL   H80212346   5.541   1.547   2.023  0.7356  0.3067 -1.6728
   13MOL   H80312347   5.422   1.641   2.115  1.6229  3.9440  0.0620
   13MOL   H80412348   5.459   1.824   1.934  0.6142  1.0101 -1.1290
   13MOL   H80512349   5.588   1.730   1.867  0.6079 -0.4884 -0.0497
   13MOL   H80612350   5.698   1.880   1.994  0.5883  0.2750  2.2591
   13MOL   H80712351   5.707   1.733   2.081 -0.1621 -1.2526 -1.0396
   13MOL   H80812352   5.527   1.979   2.137 -0.7963  0.3378  0.7675
   13MOL   H80912353   5.504   1.833   2.218  2.7878 -0.7197  4.5008
   13MOL   H81012354   5.738   1.839   2.301 -0.8044 -0.2100  2.0514
   13MOL   H81112355   5.781   1.977   2.214  1.9040 -1.5304  0.7616
   13MOL   H81212356   5.576   1.951   2.436  2.2081 -0.9430  0.2837
   13MOL   H81312357   5.606   2.109   2.349  0.2314  0.4194 -1.4424
   13MOL   H81412358   5.864   2.040   2.424  0.8816 -1.0830  1.1679
   13MOL   H81512359   5.759   1.937   2.531 -1.0707  0.3075 -0.6248
   13MOL   H81612360   5.723   2.242   2.526 -1.8077 -1.2988 -0.7039
   13MOL   H81712361   5.856   2.164   2.611 -0.9903  0.1477  2.6775
   13MOL   N81812362   5.534   2.187   2.664  0.4575 -0.0753  0.3580
   13MOL   C81912363   5.422   2.175   2.764  0.6449 -0.0350  0.1579
   13MOL   C82012364   5.298   2.099   2.723  0.8233  0.1777  0.1080
   13MOL   C82112365   5.297   2.005   2.610 -0.3127 -0.1912 -0.0460
   13MOL   C82212366   5.180   1.947   2.561 -0.7095 -0.3022 -0.0529
   13MOL   C82312367   5.061   1.980   2.622 -0.4404  0.7296 -0.5935
   13MOL   C82412368   5.062   2.062   2.735 -0.5498 -0.0144  0.1318
   13MOL   C82512369   5.180   2.124   2.794 -0.2933 -0.5125  0.6218
   13MOL   C82612370   5.171   2.203   2.921  0.0039  0.0428 -0.3124
   13MOL   N82712371   5.170   2.345   2.894 -0.3795  0.6719 -0.3198
   13MOL   C82812372   5.234   2.443   2.966 -0.1037  0.1948  0.5966
   13MOL   O82912373   5.309   2.412   3.060  0.1362 -0.3306 -0.2608
   13MOL   C83012374   5.200   2.584   2.918 -0.4948  0.2355  0.2048
   13MOL   C83112375   5.249   2.696   3.024 -0.4434 -0.2448 -0.3239
   13MOL   C83212376   5.174   2.686   3.163 -0.2442 -0.0283  0.0004
   13MOL   C83312377   5.210   2.784   3.277 -0.0661  0.2630 -0.2011
   13MOL   C83412378   5.353   2.773   3.331 -0.0222  0.3570 -0.2760
   13MOL   C83512379   5.371   2.849   3.455  0.1795  0.0096  0.2293
   13MOL   C83612380   5.513   2.817   3.516  0.8190  0.0118  1.9364
   13MOL   C83712381   5.560   2.919   3.620 -0.1963 -0.4912  0.6155
   13MOL   C83812382   5.470   2.934   3.744 -0.1918  0.3122  0.7047
   13MOL   O83912383   5.403   3.039   3.760  0.1809  0.5919  0.4797
   13MOL   H84012384   5.522   2.240   2.579 -1.6831 -0.5086  0.3534
   13MOL   H84112385   5.448   2.138   2.864  1.1566  2.2913  0.9226
   13MOL   H84212386   5.379   2.274   2.781  1.8075  0.7174 -1.2118
   13MOL   H84312387   5.381   1.984   2.545 -1.7178 -1.1471 -1.5862
   13MOL   H84412388   5.184   1.877   2.479  0.7876 -0.1354 -0.1301
   13MOL   H84512389   4.965   1.958   2.578 -0.6654 -1.4402  0.9147
   13MOL   H84612390   4.968   2.082   2.785 -0.2468 -1.4792  1.3132
   13MOL   H84712391   5.242   2.171   2.998 -1.5524 -0.3065  0.9905
   13MOL   H84812392   5.078   2.188   2.974  0.8794 -1.3939  0.8586
   13MOL   H84912393   5.114   2.377   2.816  0.8228  1.6786 -0.7853
   13MOL   H85012394   5.091   2.592   2.913 -0.5489 -0.0407  0.8771
   13MOL   H85112395   5.243   2.594   2.819  0.1627  0.4144  0.5053
   13MOL   H85212396   5.234   2.791   2.973 -1.0189  0.4255  1.0543
   13MOL   H85312397   5.358   2.690   3.033 -0.4814  0.5674  0.9474
   13MOL   H85412398   5.183   2.583   3.198  0.0430  0.3270  0.9902
   13MOL   H85512399   5.071   2.709   3.136 -0.2004  2.2349  1.5983
   13MOL   H85612400   5.181   2.882   3.239 -0.5549  0.0409 -0.4073
   13MOL   H85712401   5.147   2.765   3.364  0.0698 -1.8337 -0.5349
   13MOL   H85812402   5.378   2.667   3.328  0.3967  0.3204  2.6952
   13MOL   H85912403   5.413   2.821   3.254  2.0681 -1.2342  0.3104
   13MOL   H86012404   5.293   2.822   3.526 -0.6203 -0.5884 -0.8738
   13MOL   H86112405   5.366   2.957   3.441  1.2919  0.1144  0.6238
   13MOL   H86212406   5.581   2.835   3.432 -1.1679  0.7533  0.4679
   13MOL   H86312407   5.528   2.715   3.550 -1.1090 -1.1437 -0.5115
   13MOL   H86412408   5.666   2.907   3.640  0.1094  1.4789  0.3425
   13MOL   H86512409   5.553   3.017   3.572 -0.0021 -1.0040 -0.4937
   13MOL   N86612410   5.468   2.833   3.830  0.1703 -0.3008 -0.3489
   13MOL   C86712411   5.382   2.820   3.948 -0.7004 -0.3272  0.2112
   13MOL   C86812412   5.243   2.757   3.906 -0.2827  0.7210  0.0489
   13MOL   C86912413   5.158   2.832   3.818  0.3501 -0.6016  0.1652
   13MOL   C87012414   5.041   2.777   3.766  0.5213  0.3409 -0.1415
   13MOL   C87112415   5.013   2.640   3.793  0.1333  0.4329  0.8763
   13MOL   C87212416   5.084   2.566   3.891  0.3675 -0.3956 -0.1660
   13MOL   C87312417   5.202   2.628   3.948 -0.0329 -0.5585 -0.0946
   13MOL   C87412418   5.286   2.539   4.042  0.1535  0.2847  0.3359
   13MOL   N87512419   5.287   2.591   4.180 -0.5938  0.0200 -0.1253
   13MOL   C87612420   5.186   2.573   4.270  0.0284  0.4317 -0.2937
   13MOL   O87712421   5.082   2.517   4.242  0.4854 -0.6761  0.3769
   13MOL   C87812422   5.226   2.594   4.414 -0.7125 -0.1167  0.8141
   13MOL   C87912423   5.108   2.665   4.489 -0.2130  0.5877 -0.1392
   13MOL   C88012424   5.159   2.739   4.616  0.5820  0.0310  0.2850
   13MOL   C88112425   5.067   2.835   4.685 -0.0799 -0.1482 -0.5330
   13MOL   C88212426   5.126   2.869   4.823  0.7956  0.0720  0.6576
   13MOL   C88312427   5.060   2.971   4.907 -0.2477  0.6399 -0.5303
   13MOL   C88412428   5.140   2.982   5.041 -0.1277  0.0426  0.3536
   13MOL   C88512429   5.091   3.085   5.148  0.0921 -0.4292 -0.1837
   13MOL   C88612430   4.971   3.033   5.230  0.4107  0.8760 -0.3297
   13MOL   O88712431   4.854   3.037   5.185 -0.2239 -0.1212 -0.0944
   13MOL   H88812432   5.511   2.750   3.792 -2.4493 -0.9419 -2.0488
   13MOL   H88912433   5.436   2.767   4.026 -0.6663  0.8560  0.9992
   13MOL   H89012434   5.358   2.921   3.981  1.6119 -0.2544  1.7751
   13MOL   H89112435   5.184   2.930   3.782  0.0413 -0.9479 -1.0529
   13MOL   H89212436   4.982   2.828   3.691 -0.5353 -1.2777 -0.4622
   13MOL   H89312437   4.927   2.597   3.743  0.4660  0.5655  0.1779
   13MOL   H89412438   5.056   2.466   3.922  3.0707 -0.7845  1.1452
   13MOL   H89512439   5.386   2.528   3.999 -0.3907  3.3408 -1.8197
   13MOL   H89612440   5.239   2.441   4.051 -1.4329  1.0513  0.4586
   13MOL   H89712441   5.373   2.621   4.223  0.6132 -1.0213 -1.7206
   13MOL   H89812442   5.314   2.659   4.412  0.0162 -1.1321 -2.1618
   13MOL   H89912443   5.258   2.499   4.457  0.8917  0.1719  0.3225
   13MOL   H90012444   5.030   2.593   4.511 -0.2801  1.1652  1.6868
   13MOL   H90112445   5.069   2.747   4.428  0.2952  1.8114  1.1262
   13MOL   H90212446   5.182   2.654   4.680  0.9009 -0.5714 -0.6247
   13MOL   H90312447   5.253   2.787   4.587  1.9330 -2.0475  1.1082
   13MOL   H90412448   5.058   2.921   4.619  0.5646  0.2361 -0.1310
   13MOL   H90512449   4.975   2.778   4.687 -1.5449  2.1056 -1.6010
   13MOL   H90612450   5.137   2.777   4.880 -0.4412 -1.3307 -1.3338
   13MOL   H90712451   5.226   2.908   4.801  0.0260  1.0568 -1.1559
   13MOL   H90812452   4.957   2.940   4.928 -0.5613  1.8833 -0.1922
   13MOL   H90912453   5.050   3.063   4.849  0.0440  0.1914 -1.3120
   13MOL   H91012454   5.137   2.887   5.094 -0.6704 -1.5856 -2.5229
   13MOL   H91112455   5.242   3.019   5.033 -0.2682  0.7878  1.8342
   13MOL   H91212456   5.173   3.096   5.219 -0.5293  0.3293  0.4219
   13MOL   H91312457   5.077   3.187   5.112  0.0286 -1.0666 -2.0461
   13MOL   N91412458   4.999   2.980   5.349  0.3738 -0.0175 -0.5488
   13MOL   C91512459   4.897   2.913   5.423  0.2214 -0.0286 -0.1133
   13MOL   C91612460   4.959   2.812   5.523  1.0432 -0.5028 -0.9482
   13MOL   C91712461   4.951   2.837   5.660 -0.3354  0.8530  0.0178
   13MOL   C91812462   5.015   2.751   5.753 -0.5103 -0.9209  0.3903
   13MOL   C91912463   5.093   2.642   5.713  0.0360  0.0381 -0.6394
   13MOL   C92012464   5.100   2.615   5.574 -0.5124 -0.3381  0.1388
   13MOL   C92112465   5.032   2.698   5.477  0.9797  0.7198 -0.1802
   13MOL   C92212466   5.040   2.659   5.330 -0.3812  0.0477 -0.8607
   13MOL   N92312467   5.050   2.512   5.309 -0.1408  0.0099 -0.0083
   13MOL   C92412468   4.940   2.434   5.302 -0.1999  0.2767 -0.2339
   13MOL   O92512469   4.826   2.475   5.311  0.3936 -0.2407 -0.0440
   13MOL   C92612470   4.959   2.282   5.283  0.1957  0.7837 -0.0336
   13MOL   C92712471   4.907   2.211   5.418  0.2439 -1.1686 -0.2991
   13MOL   C92812472   4.892   2.060   5.405  0.1870  0.3964 -0.1313
   13MOL   C92912473   4.874   1.986   5.539 -0.2145  0.7594  0.2811
   13MOL   C93012474   4.757   2.035   5.632  0.1266  0.0982  0.1329
   13MOL   C93112475   4.613   2.000   5.588 -0.9730  0.7237  0.1163
   13MOL   C93212476   4.579   1.849   5.586 -1.8803 -0.2032  0.2563
   13MOL   C93312477   4.427   1.825   5.571 -0.4652  0.8650 -0.0146
   13MOL   C93412478   4.382   1.684   5.553 -0.9225  0.5768 -0.2777
   13MOL   O93512479   4.410   1.601   5.643 -0.3412 -0.0901 -0.0998
   13MOL   H93612480   5.093   2.982   5.386 -0.3858  0.5694  1.3984
   13MOL   H93712481   4.845   2.990   5.481 -0.5267  0.0150 -0.8318
   13MOL   H93812482   4.823   2.863   5.361  0.4552 -1.8706  1.0481
   13MOL   H93912483   4.894   2.921   5.695  2.0536  2.7333 -0.5213
   13MOL   H94012484   5.021   2.776   5.858 -0.8509 -1.2464  0.4854
   13MOL   H94112485   5.152   2.576   5.775 -0.9407 -0.6887 -0.4755
   13MOL   H94212486   5.156   2.532   5.533  0.3051  0.5944 -0.6459
   13MOL   H94312487   5.144   2.687   5.313  1.7612 -3.7348  4.3948
   13MOL   H94412488   4.958   2.700   5.272 -0.5524 -0.4718 -0.9848
   13MOL   H94512489   5.138   2.462   5.319  0.2781  0.8265  0.4216
   13MOL   H94612490   5.059   2.244   5.264 -0.6684 -0.7877 -1.5847
   13MOL   H94712491   4.896   2.242   5.204  0.6000 -1.7044  0.8586
   13MOL   H94812492   4.812   2.253   5.452  0.8814  0.8435 -0.9326
   13MOL   H94912493   4.972   2.238   5.501 -1.9525  0.0925  1.0862
   13MOL   H95012494   4.807   2.033   5.342  0.1864 -0.4787  0.2288
   13MOL   H95112495   4.987   2.034   5.359  0.2685  1.5883 -0.6500
   13MOL   H95212496   4.863   1.880   5.514  0.8406  0.2540  1.8338
   13MOL   H95312497   4.960   1.964   5.602  0.8239 -0.1403 -1.4252
   13MOL   H95412498   4.749   2.144   5.644 -0.2789  0.1254 -0.3510
   13MOL   H95512499   4.769   1.997   5.733 -1.1715  1.5766  0.8789
   13MOL   H95612500   4.550   2.054   5.658 -0.7112  2.4407 -0.9467
   13MOL   H95712501   4.576   2.039   5.493  1.1451 -0.3471 -1.2042
   13MOL   H95812502   4.604   1.807   5.683  0.1342  2.3505  0.9049
   13MOL   H95912503   4.623   1.786   5.509 -0.6914  0.7100  0.1876
   13MOL   H96012504   4.391   1.889   5.490 -1.8574  0.8512  0.5910
   13MOL   H96112505   4.363   1.863   5.650 -1.8838 -1.5661  0.0476
   13MOL   H96212506   4.316   1.653   5.472 -0.6976  0.7531 -0.5301
   14MOL     N112507   0.189   6.751   3.573  0.2788 -0.0862 -0.1891
   14MOL     C212508   0.303   6.716   3.496 -0.1771 -0.6187 -0.5689
   14MOL     C312509   0.319   6.563   3.493  0.1406  0.0848 -0.1061
   14MOL     C412510   0.264   6.492   3.380  0.5695  0.8308 -0.4028
   14MOL     C512511   0.286   6.349   3.374  0.2871  0.2298 -0.2792
   14MOL     C612512   0.349   6.279   3.480  0.5346 -0.0745 -0.7957
   14MOL     C712513   0.411   6.357   3.580 -0.7063  0.4112  0.4716
   14MOL     C812514   0.389   6.495   3.593  0.1361 -0.7996  0.5246
   14MOL     C912515   0.455   6.561   3.708 -0.2207  0.4758 -0.2778
   14MOL    N1012516   0.365   6.651   3.780 -0.4671 -0.1639 -0.2271
   14MOL    C1112517   0.393   6.695   3.901 -0.4287 -0.2624  0.1864
   14MOL    O1212518   0.507   6.677   3.940  0.3613  0.5334 -0.2886
   14MOL    C1312519   0.274   6.743   3.993  0.8242  0.5099 -0.3405
   14MOL    C1412520   0.319   6.819   4.112 -0.2365  0.2685  0.8406
   14MOL    C1512521   0.369   6.745   4.232 -0.9240 -0.3429 -0.3945
   14MOL    C1612522   0.389   6.831   4.352  0.5327 -0.5588  0.4281
   14MOL    C1712523   0.486   6.765   4.450 -0.4239 -0.9520  0.5242
   14MOL    C1812524   0.433   6.638   4.516 -0.2109  0.1692 -0.6261
   14MOL    C1912525   0.534   6.595   4.623 -0.1226 -0.1162  0.2915
   14MOL    C2012526   0.506   6.459   4.698  0.3079  0.1555  0.0473
   14MOL    C2112527   0.606   6.425   4.812  0.0668  0.1652  1.1145
   14MOL    O2212528   0.677   6.513   4.856 -0.1968 -0.2641 -0.1945
   14MOL    H2312529   0.152   6.835   3.533 -0.2709  0.0899  0.6688
   14MOL    H2412530   0.294   6.754   3.394  0.8587  1.2310  0.0055
   14MOL    H2512531   0.395   6.754   3.540 -0.1029  0.6526 -1.8011
   14MOL    H2612532   0.220   6.555   3.304 -2.5381 -2.1031 -1.1591
   14MOL    H2712533   0.263   6.301   3.280  0.8836  2.0280 -1.3640
   14MOL    H2812534   0.382   6.181   3.448  0.6454 -0.4281  0.3919
   14MOL    H2912535   0.472   6.301   3.649 -0.5764  1.2253  1.0316
   14MOL    H3012536   0.546   6.613   3.677  0.8159 -1.4931 -0.6812
   14MOL    H3112537   0.476   6.484   3.782  1.1345  1.7942  0.7434
   14MOL    H3212538   0.273   6.659   3.739  0.4338  1.1457 -2.0843
   14MOL    H3312539   0.222   6.656   4.033 -0.6792  1.5188 -0.0894
   14MOL    H3412540   0.199   6.803   3.942  0.1136 -0.7648 -0.8179
   14MOL    H3512541   0.238   6.887   4.139 -0.8342 -0.4626  0.8873
   14MOL    H3612542   0.399   6.890   4.087  0.8554 -1.0602  0.4844
   14MOL    H3712543   0.303   6.663   4.262  1.1025 -1.8988 -0.0742
   14MOL    H3812544   0.468   6.703   4.211 -0.8291 -0.4529  0.2601
   14MOL    H3912545   0.415   6.933   4.326 -0.4358 -0.2635  0.5832
   14MOL    H4012546   0.290   6.836   4.398  0.2682 -1.8469  0.0262
   14MOL    H4112547   0.582   6.751   4.400 -0.1279  3.8512 -0.5175
   14MOL    H4212548   0.513   6.841   4.523 -1.3287  0.8236 -0.9532
   14MOL    H4312549   0.412   6.565   4.438  0.1432 -0.5812 -0.0227
   14MOL    H4412550   0.343   6.672   4.568  1.7063  1.8838  1.7126
   14MOL    H4512551   0.634   6.592   4.579  0.1298  2.7265  0.5599
   14MOL    H4612552   0.544   6.675   4.696 -1.0316 -0.5439  0.8949
   14MOL    H4712553   0.488   6.377   4.628  3.2358 -2.3334  2.0548
   14MOL    H4812554   0.406   6.475   4.737  0.9715  0.5880  1.6001
   14MOL    H4912555   0.123   6.676   3.587  0.9771 -0.5673  0.6143
   14MOL    N5012556   0.604   6.302   4.851 -0.2239  0.6584 -0.3533
   14MOL    C5112557   0.691   6.247   4.955  0.2104 -0.4874  0.0468
   14MOL    C5212558   0.826   6.188   4.909 -0.4702  0.0642 -0.4882
   14MOL    C5312559   0.837   6.166   4.772  0.4962 -0.2872 -0.2920
   14MOL    C5412560   0.959   6.112   4.720 -0.2645  0.2193 -0.4474
   14MOL    C5512561   1.066   6.079   4.807  0.5407  0.1974 -0.1002
   14MOL    C5612562   1.047   6.098   4.948  0.6766 -0.1321 -0.2189
   14MOL    C5712563   0.932   6.157   4.998 -0.0793 -0.2911  0.0847
   14MOL    C5812564   0.916   6.182   5.152  0.7210  0.6072  0.2060
   14MOL    N5912565   1.029   6.148   5.228 -0.6993 -0.7152 -0.3550
   14MOL    C6012566   1.043   6.061   5.329 -0.4082  0.5784 -0.2913
   14MOL    O6112567   0.967   5.969   5.339  0.7236 -0.6310  0.3380
   14MOL    C6212568   1.154   6.088   5.437  0.0876 -0.0290  0.1295
   14MOL    C6312569   1.243   5.968   5.465 -0.9202  0.5341 -0.5709
   14MOL    C6412570   1.386   5.984   5.396 -0.5279 -0.8700 -0.1912
   14MOL    C6512571   1.467   5.851   5.426  0.0085 -0.3983  0.1511
   14MOL    C6612572   1.618   5.866   5.399  0.0392  1.0160  0.5372
   14MOL    C6712573   1.700   5.735   5.424 -0.3560 -0.3744  0.3314
   14MOL    C6812574   1.850   5.774   5.402 -0.3499 -0.6855  0.6371
   14MOL    C6912575   1.887   5.810   5.253  0.2380 -0.5740  0.1308
   14MOL    C7012576   1.925   5.954   5.237  0.4829  0.0187 -0.3184
   14MOL    O7112577   1.937   6.025   5.338 -0.4785  0.2491 -0.0251
   14MOL    H7212578   0.532   6.237   4.820 -0.2741 -1.0770  3.1598
   14MOL    H7312579   0.648   6.159   5.004 -1.8253  0.4573 -0.0098
   14MOL    H7412580   0.712   6.323   5.030  0.8544 -1.1941  0.5897
   14MOL    H7512581   0.758   6.178   4.699 -0.0594 -0.1244  0.3265
   14MOL    H7612582   0.970   6.098   4.613 -0.4693  0.5961 -0.5170
   14MOL    H7712583   1.156   6.030   4.773 -0.1582 -1.8803  1.0158
   14MOL    H7812584   1.129   6.073   5.013  1.3856 -1.1119 -1.4568
   14MOL    H7912585   0.829   6.127   5.189  0.2204  1.4475  0.2903
   14MOL    H8012586   0.896   6.289   5.161 -0.8928  0.0730  3.9219
   14MOL    H8112587   1.104   6.215   5.216 -2.6258  1.5057 -0.2824
   14MOL    H8212588   1.097   6.106   5.528 -0.5896 -1.1097 -0.0681
   14MOL    H8312589   1.211   6.180   5.424 -0.6296  0.2772 -0.9261
   14MOL    H8412590   1.196   5.871   5.451  0.2762 -0.2919  1.0949
   14MOL    H8512591   1.257   5.957   5.572 -1.0786  0.5199 -0.5513
   14MOL    H8612592   1.381   5.994   5.287 -2.0633 -1.0319 -0.1479
   14MOL    H8712593   1.444   6.066   5.437  1.6067 -1.1779 -2.4261
   14MOL    H8812594   1.467   5.816   5.529 -1.3180 -0.1088  0.2669
   14MOL    H8912595   1.431   5.773   5.360 -0.3912 -0.7772  0.8171
   14MOL    H9012596   1.619   5.912   5.300 -3.1646 -1.3537 -0.6675
   14MOL    H9112597   1.662   5.943   5.463  3.9009 -1.0638  0.5625
   14MOL    H9212598   1.666   5.668   5.345  3.2832 -0.5544 -1.1611
   14MOL    H9312599   1.680   5.695   5.523 -0.8210 -0.3723  0.2408
   14MOL    H9412600   1.904   5.680   5.419  0.3620 -0.3659  0.1766
   14MOL    H9512601   1.868   5.849   5.479 -0.2252  0.0679 -0.1131
   14MOL    H9612602   1.808   5.791   5.181  0.1811  2.8287 -0.7784
   14MOL    H9712603   1.982   5.760   5.232  0.2435  0.3739 -2.2300
   14MOL    N9812604   1.946   5.998   5.113 -0.2070 -1.1268 -0.5043
   14MOL    C9912605   2.008   6.130   5.087 -0.4417  0.2973 -0.2794
   14MOL   C10012606   1.971   6.190   4.951  0.0898 -0.5583  0.3072
   14MOL   C10112607   2.070   6.210   4.853  0.0897  0.2358 -0.2619
   14MOL   C10212608   2.036   6.272   4.732  0.1147  0.3602  0.0132
   14MOL   C10312609   1.907   6.324   4.716  0.1173  0.2573  0.1419
   14MOL   C10412610   1.808   6.293   4.812  0.6258 -0.3817 -0.2944
   14MOL   C10512611   1.838   6.239   4.940 -0.0790  0.2279  0.4070
   14MOL   C10612612   1.730   6.226   5.042  0.7015 -0.4295 -0.4992
   14MOL   N10712613   1.724   6.353   5.122  0.7112  0.4835 -0.1654
   14MOL   C10812614   1.711   6.379   5.253 -0.1877 -0.1106 -0.3005
   14MOL   O10912615   1.748   6.487   5.292 -0.3036  0.6504 -0.7716
   14MOL   C11012616   1.633   6.279   5.337  0.3260 -0.3353 -0.0667
   14MOL   C11112617   1.609   6.310   5.484 -0.2960  0.5106  0.4690
   14MOL   C11212618   1.498   6.413   5.518  0.1059 -0.1027 -0.2891
   14MOL   C11312619   1.499   6.438   5.671 -0.3650  0.1091 -0.2369
   14MOL   C11412620   1.384   6.537   5.714  0.6638 -0.1255 -0.1480
   14MOL   C11512621   1.359   6.539   5.860  0.4229  0.2547  0.1984
   14MOL   C11612622   1.231   6.609   5.902  0.2510  0.7275 -0.0670
   14MOL   C11712623   1.195   6.750   5.837 -0.2860  0.3142  0.0304
   14MOL   C11812624   1.055   6.809   5.871  0.1196 -0.6308 -0.0947
   14MOL   O11912625   0.983   6.769   5.964 -0.5166  0.4065 -0.3039
   14MOL   H12012626   1.926   5.935   5.037  1.2472 -1.5535 -0.5400
   14MOL   H12112627   1.976   6.202   5.162 -0.0715  0.0613  0.1031
   14MOL   H12212628   2.115   6.121   5.102 -0.7938 -3.5442  0.2229
   14MOL   H12312629   2.171   6.182   4.882 -0.1113 -0.0480  0.1756
   14MOL   H12412630   2.105   6.295   4.652  0.2844  1.2433  0.4096
   14MOL   H12512631   1.867   6.357   4.621 -0.2033  0.8225  0.4676
   14MOL   H12612632   1.704   6.319   4.800  0.2122 -1.5718  0.5716
   14MOL   H12712633   1.747   6.147   5.114  3.0018  0.9020  0.4455
   14MOL   H12812634   1.632   6.207   4.997  1.4294 -0.9009 -1.9288
   14MOL   H12912635   1.773   6.426   5.071 -0.2986  1.2857 -0.0130
   14MOL   H13012636   1.694   6.189   5.330  1.0477  0.2573 -1.7865
   14MOL   H13112637   1.534   6.262   5.294  0.1000 -1.0277  0.7228
   14MOL   H13212638   1.709   6.344   5.508 -0.6554  0.6347  1.8554
   14MOL   H13312639   1.601   6.212   5.533  1.6902 -0.4093 -1.0168
   14MOL   H13412640   1.514   6.499   5.454  1.5111 -0.1083  0.0284
   14MOL   H13512641   1.404   6.368   5.487 -0.1979  1.0804 -1.0967
   14MOL   H13612642   1.482   6.339   5.713  0.1132  0.0833 -0.1037
   14MOL   H13712643   1.594   6.481   5.703 -0.1140  0.3178 -1.2482
   14MOL   H13812644   1.410   6.637   5.679  1.0904  0.7341  2.5224
   14MOL   H13912645   1.294   6.498   5.665  0.0015  0.1185  0.8558
   14MOL   H14012646   1.435   6.593   5.916 -2.1930  0.5239  3.6979
   14MOL   H14112647   1.364   6.437   5.896 -0.4165  0.4980  1.0222
   14MOL   H14212648   1.146   6.545   5.880  1.6445 -1.4010  0.5882
   14MOL   H14312649   1.216   6.620   6.009  1.1946 -1.1617  0.2786
   14MOL   H14412650   1.213   6.754   5.730  2.0373  0.9538  0.4149
   14MOL   H14512651   1.266   6.815   5.889  0.1314 -0.4784  0.4629
   14MOL   N14612652   1.009   6.894   5.779 -0.9488 -0.3055  0.5219
   14MOL   C14712653   0.884   6.966   5.796 -0.3163 -0.8519  0.3579
   14MOL   C14812654   0.902   7.092   5.879 -0.2572  0.4172 -0.5117
   14MOL   C14912655   0.830   7.102   5.998 -0.5646  0.7052 -0.0304
   14MOL   C15012656   0.846   7.214   6.082  0.3018  0.5714 -0.1325
   14MOL   C15112657   0.917   7.322   6.028  0.3035 -0.2015  0.5065
   14MOL   C15212658   0.983   7.320   5.906  0.0913 -0.2518 -0.7255
   14MOL   C15312659   0.978   7.202   5.831 -1.0869 -0.2877 -0.0794
   14MOL   C15412660   1.062   7.186   5.707  0.5066 -0.6643  0.3834
   14MOL   N15512661   1.205   7.190   5.748  0.3563  0.3840  0.1245
   14MOL   C15612662   1.288   7.088   5.734 -0.3040 -0.0106 -0.3288
   14MOL   O15712663   1.273   6.994   5.650 -0.4598  0.5590 -0.7555
   14MOL   C15812664   1.406   7.088   5.830  0.4828 -0.3470 -0.2816
   14MOL   C15912665   1.528   7.165   5.782  0.4515 -0.1155 -0.6381
   14MOL   C16012666   1.513   7.312   5.779 -0.3990 -0.5087  0.4717
   14MOL   C16112667   1.641   7.394   5.744 -0.1136 -0.1025  0.1422
   14MOL   C16212668   1.691   7.397   5.596  0.4912  0.4308  0.5712
   14MOL   C16312669   1.607   7.498   5.513  0.3475  0.1610  0.0529
   14MOL   C16412670   1.646   7.489   5.362  0.4611 -0.4174  0.1647
   14MOL   C16512671   1.649   7.348   5.300  0.0484 -0.4533 -0.3713
   14MOL   C16612672   1.513   7.284   5.279  0.2396  0.6135 -0.3887
   14MOL   O16712673   1.434   7.273   5.369  0.1096 -0.2328  0.4269
   14MOL   H16812674   1.081   6.929   5.717  1.0352 -0.5216  2.6310
   14MOL   H16912675   0.801   6.903   5.828 -2.1193  1.4044  0.2631
   14MOL   H17012676   0.853   7.003   5.699 -1.2640  1.2018  1.4050
   14MOL   H17112677   0.772   7.017   6.031 -0.1190  1.2942  2.3843
   14MOL   H17212678   0.802   7.211   6.180 -1.8886 -1.4965 -1.1402
   14MOL   H17312679   0.920   7.414   6.085 -0.8499 -1.5399  2.8075
   14MOL   H17412680   1.030   7.416   5.890 -0.1604  0.3663  1.9974
   14MOL   H17512681   1.050   7.272   5.641  0.6163 -1.1527 -0.2811
   14MOL   H17612682   1.042   7.104   5.638 -2.2182 -1.0083  1.5235
   14MOL   H17712683   1.241   7.273   5.794 -1.7208  1.0308  0.6271
   14MOL   H17812684   1.437   6.984   5.840 -1.7939 -0.9355  1.0743
   14MOL   H17912685   1.365   7.123   5.925  0.5167 -1.7661  0.2654
   14MOL   H18012686   1.551   7.146   5.677  1.8339 -2.5716  0.0619
   14MOL   H18112687   1.622   7.135   5.829  0.2144 -3.4840 -2.1610
   14MOL   H18212688   1.423   7.332   5.721 -0.6095 -2.2922  0.1571
   14MOL   H18312689   1.481   7.357   5.874  0.4055  1.0086  0.0409
   14MOL   H18412690   1.629   7.490   5.795 -1.1933  0.4628 -1.1529
   14MOL   H18512691   1.719   7.344   5.801  0.9235 -0.5479 -1.6412
   14MOL   H18612692   1.795   7.429   5.594  1.0906 -1.2759  3.1502
   14MOL   H18712693   1.700   7.295   5.558 -0.2593  1.0982 -1.4937
   14MOL   H18812694   1.608   7.598   5.556 -0.7627  0.5597 -0.7903
   14MOL   H18912695   1.505   7.459   5.521  0.3859  0.1122  0.2993
   14MOL   H19012696   1.577   7.540   5.295 -0.5287  0.0978  1.5511
   14MOL   H19112697   1.746   7.519   5.333  0.3403 -0.4926 -0.3332
   14MOL   H19212698   1.714   7.275   5.350  1.4646  0.2829 -1.1093
   14MOL   H19312699   1.699   7.355   5.203 -0.2739 -3.2356 -0.7771
   14MOL   N19412700   1.477   7.232   5.153 -0.3716 -0.6288  0.2522
   14MOL   C19512701   1.364   7.145   5.128 -0.1987  0.4698  0.3696
   14MOL   C19612702   1.312   7.162   4.987 -0.4601 -0.2684 -0.1036
   14MOL   C19712703   1.264   7.295   4.958  0.6210  0.2824  0.1980
   14MOL   C19812704   1.249   7.327   4.817 -0.1392 -0.4576  0.1748
   14MOL   C19912705   1.252   7.227   4.717  0.3899 -0.5591  0.3315
   14MOL   C20012706   1.288   7.093   4.757 -1.4333  0.0406  0.4565
   14MOL   C20112707   1.316   7.056   4.887  0.0151 -0.3066 -0.1507
   14MOL   C20212708   1.351   6.910   4.918 -0.2625  0.6064  0.2473
   14MOL   N20312709   1.238   6.829   4.954 -0.2165 -0.0975  0.2913
   14MOL   C20412710   1.146   6.764   4.879  0.5429  0.4697  0.5374
   14MOL   O20512711   1.053   6.707   4.939 -0.0488  1.1404 -0.7519
   14MOL   C20612712   1.164   6.737   4.729  0.1280  0.1578 -0.1981
   14MOL   C20712713   1.028   6.753   4.663 -0.2595 -0.1791 -0.0767
   14MOL   C20812714   1.002   6.900   4.644  0.1139 -0.4628 -0.3537
   14MOL   C20912715   0.874   6.930   4.562 -0.2280  0.1548 -0.7519
   14MOL   C21012716   0.839   7.080   4.552  0.2721 -0.3621  0.0122
   14MOL   C21112717   0.712   7.112   4.477  0.5444  0.7150 -0.3028
   14MOL   C21212718   0.697   7.266   4.457 -0.0543  0.9285 -0.4291
   14MOL   C21312719   0.550   7.310   4.436  0.0965  0.5970 -0.4296
   14MOL   C21412720   0.504   7.290   4.288 -0.1529 -0.1982 -0.0941
   14MOL   O21512721   0.583   7.308   4.197 -0.1656  0.1458 -0.0287
   14MOL   H21612722   1.526   7.266   5.072 -1.2682  0.4731  0.1488
   14MOL   H21712723   1.383   7.042   5.156 -1.7993  0.5464  1.8585
   14MOL   H21812724   1.282   7.171   5.195 -0.3358 -1.3584  0.9376
   14MOL   H21912725   1.265   7.368   5.038  0.6033  0.1723  0.2979
   14MOL   H22012726   1.199   7.419   4.790 -0.3874 -0.9685 -1.1289
   14MOL   H22112727   1.217   7.250   4.617 -0.9756 -1.3197  0.6199
   14MOL   H22212728   1.280   7.014   4.684 -0.5389  2.2823 -2.1991
   14MOL   H22312729   1.426   6.901   4.996 -1.0377 -0.0115  0.9250
   14MOL   H22412730   1.393   6.845   4.841  1.9185  0.1005  1.8453
   14MOL   H22512731   1.224   6.814   5.053  0.7662  0.8298  0.5846
   14MOL   H22612732   1.196   6.633   4.723  0.3249  0.3059 -1.9270
   14MOL   H22712733   1.235   6.806   4.682  1.2564 -2.0189 -1.7636
   14MOL   H22812734   1.039   6.716   4.561  0.2370  2.7707 -1.1593
   14MOL   H22912735   0.941   6.707   4.709  0.0427 -0.8312 -0.1611
   14MOL   H23012736   0.983   6.937   4.744  0.0843 -3.1430  0.6656
   14MOL   H23112737   1.085   6.955   4.598 -0.7336  1.4790  0.3931
   14MOL   H23212738   0.879   6.880   4.465 -1.4124 -0.9592 -0.2509
   14MOL   H23312739   0.798   6.889   4.628  2.1364 -2.2048  0.6262
   14MOL   H23412740   0.837   7.109   4.657 -1.7254  1.8262 -0.5978
   14MOL   H23512741   0.919   7.137   4.505  1.1400 -1.6760 -0.1629
   14MOL   H23612742   0.621   7.074   4.522  0.0452  2.1299 -0.0966
   14MOL   H23712743   0.710   7.062   4.380 -1.6039 -1.1374  0.6539
   14MOL   H23812744   0.768   7.310   4.387  0.6527  2.0665  0.9810
   14MOL   H23912745   0.721   7.304   4.557  1.8456  0.5469 -0.7246
   14MOL   H24012746   0.480   7.248   4.491 -1.1374  0.6814 -1.8945
   14MOL   H24112747   0.523   7.409   4.473  2.6244  2.0601 -2.3147
   14MOL   N24212748   0.378   7.263   4.266  0.5625 -0.0369  0.3317
   14MOL   C24312749   0.313   7.258   4.135 -0.1507 -0.1941  0.2942
   14MOL   C24412750   0.223   7.369   4.098  0.5859 -0.5652 -0.6624
   14MOL   C24512751   0.255   7.457   3.992  0.8988 -0.2057  0.6874
   14MOL   C24612752   0.163   7.556   3.954 -0.2944 -0.5625 -0.2541
   14MOL   C24712753   0.035   7.569   4.016  0.4012 -0.5343 -0.0421
   14MOL   C24812754   0.000   7.471   4.107 -0.0227  0.1923  0.2789
   14MOL   C24912755   0.091   7.370   4.150  0.6617 -0.5154 -0.3620
   14MOL   C25012756   0.045   7.263   4.254  0.3076 -0.1567 -0.2640
   14MOL   N25112757   0.031   7.329   4.390 -0.1048 -0.0250  0.2297
   14MOL   C25212758   0.106   7.296   4.495 -0.6373 -1.5526  0.3413
   14MOL   O25312759   0.197   7.214   4.489 -0.6863 -0.2531 -0.4081
   14MOL   C25412760   0.081   7.356   4.630  0.2601 -0.3144 -0.4059
   14MOL   C25512761   0.005   7.256   4.719 -0.0652  0.3304 -0.0909
   14MOL   C25612762   0.097   7.155   4.788 -0.0094  0.1882  0.2408
   14MOL   C25712763   0.048   7.119   4.928 -0.3193 -0.2291 -0.6288
   14MOL   C25812764   0.067   7.222   5.033 -0.4529 -0.2611 -0.7487
   14MOL   C25912765   0.209   7.239   5.090 -0.6309  0.0558 -0.4932
   14MOL   C26012766   0.222   7.331   5.209 -0.4795  0.2563 -0.8909
   14MOL   C26112767   0.374   7.372   5.246  0.2533 -0.4038 -0.4015
   14MOL   C26212768   0.452   7.267   5.321  0.6506 -0.2475  0.0122
   14MOL   O26312769   0.402   7.155   5.330  0.3640  0.4218 -0.5506
   14MOL   H26412770   0.312   7.255   4.342 -1.4767  0.1856 -1.3637
   14MOL   H26512771   0.388   7.247   4.057 -1.6046 -1.6128 -0.9211
   14MOL   H26612772   0.266   7.161   4.121  1.4002 -1.4315  3.1160
   14MOL   H26712773   0.349   7.447   3.940 -0.5630 -0.7699 -1.9385
   14MOL   H26812774   0.196   7.618   3.872  1.1742 -0.2899  0.5230
   14MOL   H26912775   7.758   7.646   3.982  0.9256 -0.2175 -0.3686
   14MOL   H27012776   7.690   7.470   4.149  0.9623  0.2097  2.7181
   14MOL   H27112777   0.092   7.165   4.254 -2.2896 -1.4332 -0.9335
   14MOL   H27212778   7.734   7.232   4.225 -0.7270  0.3737  2.6408
   14MOL   H27312779   7.751   7.400   4.408  0.0069  0.6409 -1.8051
   14MOL   H27412780   0.030   7.452   4.618 -0.6528 -0.8784 -1.1129
   14MOL   H27512781   0.166   7.397   4.685 -1.2347  0.8442  1.0813
   14MOL   H27612782   7.720   7.198   4.665  1.4257 -1.6026 -0.1169
   14MOL   H27712783   7.738   7.309   4.795  1.3048  1.3080  0.2793
   14MOL   H27812784   0.197   7.199   4.796  0.0502  0.4881 -1.8270
   14MOL   H27912785   0.113   7.065   4.728 -2.4792  0.0731 -0.2688
   14MOL   H28012786   7.730   7.101   4.927  0.0219 -2.4163 -1.8410
   14MOL   H28112787   0.097   7.028   4.961 -1.3960 -1.0566 -1.2615
   14MOL   H28212788   0.023   7.313   4.992  1.1973  0.2736 -1.3384
   14MOL   H28312789   0.009   7.209   5.124 -1.8812  0.4826 -1.5304
   14MOL   H28412790   0.277   7.275   5.013  0.5984 -0.2248  0.4309
   14MOL   H28512791   0.246   7.140   5.116  0.2254 -0.0896 -2.1985
   14MOL   H28612792   0.167   7.423   5.189  1.9403  1.5515 -1.8255
   14MOL   H28712793   0.179   7.287   5.299  2.4610  0.6102  0.7638
   14MOL   H28812794   0.435   7.412   5.165  0.4675 -1.8173 -0.9674
   14MOL   H28912795   0.358   7.444   5.325 -0.9545 -0.7920 -0.2866
   14MOL   N29012796   0.574   7.299   5.367 -0.4306 -0.0558  0.3864
   14MOL   C29112797   0.655   7.205   5.445  0.2965 -0.2992 -0.1553
   14MOL   C29212798   0.657   7.256   5.588 -0.2356 -0.6042 -0.7741
   14MOL   C29312799   0.734   7.371   5.618  0.2177  0.3981 -0.1755
   14MOL   C29412800   0.735   7.438   5.742 -0.7333  0.3267 -0.2342
   14MOL   C29512801   0.644   7.390   5.841  0.0254 -0.5602 -0.2755
   14MOL   C29612802   0.566   7.275   5.818  0.5524  0.2457 -0.0592
   14MOL   C29712803   0.576   7.208   5.695  0.1265 -0.1257  0.5184
   14MOL   C29812804   0.498   7.084   5.679 -0.4075  0.6047  0.2369
   14MOL   N29912805   0.373   7.113   5.616 -0.5247 -0.1280  0.4941
   14MOL   C30012806   0.260   7.137   5.673  0.2148 -0.3868  0.4285
   14MOL   O30112807   0.248   7.150   5.794 -0.7525  0.6780 -0.3775
   14MOL   C30212808   0.143   7.156   5.576 -0.0915 -1.2406 -0.2582
   14MOL   C30312809   0.000   7.171   5.638 -0.4717 -0.0808 -0.5811
   14MOL   C30412810   7.682   7.179   5.529 -0.1484  0.8240  0.4354
   14MOL   C30512811   7.684   7.307   5.441 -0.0060 -0.1300 -0.1242
   14MOL   C30612812   7.574   7.300   5.335  0.0107  0.3588  0.6711
   14MOL   C30712813   7.596   7.392   5.212 -0.1381 -0.5426  0.8466
   14MOL   C30812814   7.506   7.350   5.097  0.3834 -0.1606  0.0077
   14MOL   C30912815   7.515   7.459   4.989 -0.0534 -0.0023 -0.2924
   14MOL   C31012816   7.462   7.405   4.861  0.1151 -0.2438  0.7299
   14MOL   O31112817   7.386   7.310   4.866  0.1457  0.1307  0.4527
   14MOL   H31212818   0.609   7.389   5.340  0.7489  0.3546  3.0923
   14MOL   H31312819   0.624   7.101   5.428 -1.8800  0.0586  1.4607
   14MOL   H31412820   0.756   7.199   5.405  0.7779 -0.5613  1.0670
   14MOL   H31512821   0.783   7.423   5.537  1.2558 -0.7359 -0.2938
   14MOL   H31612822   0.801   7.521   5.758  1.7017 -1.3226 -1.4163
   14MOL   H31712823   0.663   7.428   5.940 -0.6037 -0.5877 -0.1397
   14MOL   H31812824   0.507   7.235   5.899 -0.3084  0.0567 -0.7788
   14MOL   H31912825   0.476   7.041   5.777  0.2123 -1.6641 -0.5923
   14MOL   H32012826   0.552   7.014   5.616  0.3221  0.5529  0.9090
   14MOL   H32112827   0.372   7.129   5.516  0.8804  0.8692  0.6297
   14MOL   H32212828   0.175   7.241   5.516 -0.3379 -0.6845  0.3952
   14MOL   H32312829   0.142   7.063   5.519  0.4863 -0.9887 -0.6858
   14MOL   H32412830   7.787   7.255   5.707 -0.9010 -0.8061  0.3074
   14MOL   H32512831   7.776   7.087   5.707  1.1548  1.2742  1.4599
   14MOL   H32612832   7.588   7.166   5.581  0.5211 -1.3876  1.1273
   14MOL   H32712833   7.686   7.092   5.464 -2.4059  0.4264  0.8153
   14MOL   H32812834   7.665   7.400   5.495 -2.9937 -1.3991  1.1446
   14MOL   H32912835   7.777   7.318   5.384 -0.1572  0.7529 -0.2093
   14MOL   H33012836   7.568   7.202   5.289 -0.6407  1.1671 -1.0330
   14MOL   H33112837   7.473   7.317   5.372 -0.5713  1.5887 -1.4256
   14MOL   H33212838   7.701   7.412   5.194 -0.1362 -1.8160 -0.6085
   14MOL   H33312839   7.562   7.489   5.249  1.0469 -0.5214  1.8990
   14MOL   H33412840   7.540   7.250   5.068 -1.2994  0.1572 -3.3403
   14MOL   H33512841   7.406   7.345   5.140  0.1315  2.8356 -0.1171
   14MOL   H33612842   7.468   7.552   5.022 -3.0529 -2.6514  3.2859
   14MOL   H33712843   7.620   7.479   4.967 -0.0960  0.0827 -0.4185
   14MOL   N33812844   7.494   7.462   4.742  0.4145 -0.9177  1.0600
   14MOL   C33912845   7.433   7.435   4.615 -0.8137  0.5634  0.2536
   14MOL   C34012846   7.459   7.532   4.507 -0.1327 -0.1693 -0.3607
   14MOL   C34112847   7.583   7.605   4.505 -0.7021  0.5096 -0.2186
   14MOL   C34212848   7.623   7.681   4.399 -0.3635 -0.4499  0.2864
   14MOL   C34312849   7.535   7.694   4.288  0.2584 -0.2394 -0.4681
   14MOL   C34412850   7.409   7.638   4.286  0.4109  0.2307  0.4542
   14MOL   C34512851   7.365   7.555   4.398  0.0153 -0.3278 -0.4836
   14MOL   C34612852   7.233   7.486   4.387 -0.1380  0.3237 -0.0756
   14MOL   N34712853   7.141   7.499   4.494 -0.6903  0.5106 -0.0062
   14MOL   C34812854   7.021   7.437   4.502 -0.2111  0.2082 -0.0760
   14MOL   O34912855   6.991   7.344   4.424  0.0492 -0.2426  0.0065
   14MOL   C35012856   6.927   7.497   4.610  0.0154 -0.0502  0.2789
   14MOL   C35112857   6.846   7.380   4.682 -0.6951  0.3410 -0.3229
   14MOL   C35212858   6.939   7.292   4.768 -0.3175 -0.0763  0.6931
   14MOL   C35312859   6.994   7.358   4.897  0.5902 -0.5848  0.7350
   14MOL   C35412860   7.017   7.250   4.997  0.4807  0.0993  0.3858
   14MOL   C35512861   7.063   7.312   5.124 -0.0430  0.3753 -0.5342
   14MOL   C35612862   6.953   7.381   5.207 -0.0121 -0.3439  0.5047
   14MOL   C35712863   6.990   7.398   5.356  0.7127  0.2137  0.3559
   14MOL   C35812864   7.103   7.504   5.372  0.1224  0.2847 -0.4524
   14MOL   O35912865   7.084   7.614   5.329 -0.2081  0.1182  0.3000
   14MOL   H36012866   7.549   7.547   4.746 -0.9461  0.0415 -0.3018
   14MOL   H36112867   7.474   7.340   4.581 -1.0581  0.3830  0.4608
   14MOL   H36212868   7.327   7.412   4.624 -0.8355  0.6064  0.1052
   14MOL   H36312869   7.651   7.595   4.589 -1.0944 -1.9993 -0.1833
   14MOL   H36412870   7.721   7.727   4.395 -0.7279  0.5876  2.2031
   14MOL   H36512871   7.552   7.757   4.202 -1.2034 -0.8088 -1.1920
   14MOL   H36612872   7.335   7.660   4.210 -0.8605  0.3131  1.7016
   14MOL   H36712873   7.263   7.382   4.384  2.5890  0.9639  2.9156
   14MOL   H36812874   7.174   7.510   4.298  0.2184 -0.5836 -0.5568
   14MOL   H36912875   7.159   7.573   4.560 -0.8228  0.0635  0.5304
   14MOL   H37012876   6.860   7.569   4.564 -1.5486 -1.0707  0.9075
   14MOL   H37112877   6.988   7.547   4.685  1.2622 -0.2206 -0.6127
   14MOL   H37212878   6.798   7.314   4.610 -2.1912  0.5966  0.4304
   14MOL   H37312879   6.762   7.420   4.738 -1.0493 -0.4226 -0.3106
   14MOL   H37412880   6.889   7.203   4.805 -0.7825  1.5706  4.2094
   14MOL   H37512881   7.016   7.245   4.707 -1.2908 -3.9078  2.2468
   14MOL   H37612882   6.927   7.432   4.941 -0.3594 -1.0718  0.1313
   14MOL   H37712883   7.088   7.409   4.875  0.2011  0.3847  1.2975
   14MOL   H37812884   6.929   7.190   5.020  1.7184 -1.0447  2.2505
   14MOL   H37912885   7.095   7.187   4.954 -0.6497 -0.6704 -0.5625
   14MOL   H38012886   7.145   7.381   5.108  0.4508  0.3619  1.7506
   14MOL   H38112887   7.105   7.229   5.181 -1.0866 -0.7332 -1.3491
   14MOL   H38212888   6.931   7.477   5.161  1.3060  0.4458  1.4931
   14MOL   H38312889   6.862   7.321   5.201  0.7619 -1.5896  1.1027
   14MOL   H38412890   7.015   7.301   5.399 -3.8941 -0.7436  1.1459
   14MOL   H38512891   6.900   7.436   5.404  0.2053 -0.9362  0.3437
   14MOL   N38612892   7.220   7.472   5.436 -0.0397 -0.2638 -0.3223
   14MOL   C38712893   7.334   7.559   5.460 -0.2527 -0.3400 -0.6075
   14MOL   C38812894   7.444   7.527   5.571  0.1582  0.5615  0.4197
   14MOL   C38912895   7.423   7.416   5.658 -0.1663  0.4413  0.3040
   14MOL   C39012896   7.510   7.377   5.763  0.0901  0.4300 -0.4081
   14MOL   C39112897   7.617   7.459   5.784 -0.1670  0.0604  0.5643
   14MOL   C39212898   7.647   7.571   5.699 -0.1516  1.1390 -0.2913
   14MOL   C39312899   7.562   7.600   5.594 -0.0770 -1.2622  0.4728
   14MOL   C39412900   7.591   7.723   5.504  0.4585  0.1832  0.7982
   14MOL   N39512901   7.702   7.698   5.417  0.2185  0.2064 -0.0175
   14MOL   C39612902   7.706   7.726   5.290  0.5317 -0.0739 -0.0822
   14MOL   O39712903   7.609   7.772   5.227  0.0182 -0.5917  0.2980
   14MOL   C39812904   0.050   7.704   5.221  0.3342 -0.2100  0.2757
   14MOL   C39912905   0.123   0.042   5.179 -0.0335  0.5717 -0.1773
   14MOL   C40012906   0.165   0.121   5.310  0.3006  0.7822  0.3812
   14MOL   C40112907   0.069   0.232   5.352  0.2971 -0.4618  0.8370
   14MOL   C40212908   0.123   0.293   5.479 -0.2358 -0.3368  0.3266
   14MOL   C40312909   0.238   0.394   5.442 -0.1980 -0.8141  0.3869
   14MOL   C40412910   0.181   0.518   5.370  0.1971 -0.2619  0.9499
   14MOL   C40512911   0.289   0.628   5.357  0.3080  0.1741  0.2825
   14MOL   C40612912   0.312   0.695   5.490 -0.3191 -0.1533  0.2214
   14MOL   O40712913   0.231   0.685   5.582  0.6560 -0.2455  0.6964
   14MOL   H40812914   7.226   7.377   5.470 -0.5618 -0.2864 -0.2786
   14MOL   H40912915   7.366   7.593   5.362  0.4239 -2.1138 -1.0384
   14MOL   H41012916   7.295   7.643   5.517  4.1694  0.6742  1.0839
   14MOL   H41112917   7.334   7.356   5.644 -1.6041  2.2719  1.4446
   14MOL   H41212918   7.494   7.292   5.828  2.1988  0.1276 -0.2526
   14MOL   H41312919   7.691   7.435   5.858 -0.6594 -0.7352  0.8054
   14MOL   H41412920   7.731   7.632   5.727  0.2904 -0.1954  1.3479
   14MOL   H41512921   7.614   0.006   5.581 -0.2980  0.6614  0.5851
   14MOL   H41612922   7.498   7.762   5.460 -0.5354 -1.5530  1.3135
   14MOL   H41712923   7.771   7.636   5.456  0.4081 -0.5219 -1.5042
   14MOL   H41812924   0.116   7.637   5.277  2.0367  1.7179  0.6297
   14MOL   H41912925   0.029   7.649   5.129 -0.0311 -0.6310  0.6026
   14MOL   H42012926   0.070   0.102   5.105  0.3831  0.2274 -0.7519
   14MOL   H42112927   0.215   0.016   5.128  1.1077  4.7820 -0.4585
   14MOL   H42212928   0.260   0.170   5.295  0.2747  1.0063  0.9527
   14MOL   H42312929   0.185   0.052   5.391 -0.5039  1.3736  1.0939
   14MOL   H42412930   0.049   0.309   5.277 -1.6034 -0.7700  1.0116
   14MOL   H42512931   7.766   0.185   5.384  0.5903 -0.2559  1.9930
   14MOL   H42612932   0.034   0.337   5.526 -1.1981 -0.1480 -1.6094
   14MOL   H42712933   0.157   0.223   5.555  2.6392  1.2412  0.5640
   14MOL   H42812934   0.325   0.345   5.397  1.3299  2.4004 -0.3658
   14MOL   H42912935   0.264   0.435   5.540 -1.9006  1.1153  0.0599
   14MOL   H43012936   0.086   0.542   5.418 -0.7486 -0.6866 -0.6394
   14MOL   H43112937   0.147   0.485   5.272  0.9160  0.6009  0.4079
   14MOL   H43212938   0.257   0.699   5.281 -0.6330  0.0386  0.5455
   14MOL   H43312939   0.387   0.589   5.329  0.7293 -0.1500  2.1448
   14MOL   N43412940   0.427   0.761   5.501  0.5723  0.2057  0.7557
   14MOL   C43512941   0.466   0.822   5.627  0.1468 -0.5406 -0.1307
   14MOL   C43612942   0.603   0.892   5.616 -0.7988 -0.2405  0.7925
   14MOL   C43712943   0.710   0.821   5.669 -0.6462  0.1365 -0.0527
   14MOL   C43812944   0.848   0.856   5.649  1.0962  0.4501 -0.3602
   14MOL   C43912945   0.875   0.970   5.570  0.5585  0.2648  0.0035
   14MOL   C44012946   0.765   1.046   5.520 -0.0678 -0.0270 -0.4627
   14MOL   C44112947   0.630   1.013   5.548  0.1294  0.4965  0.2688
   14MOL   C44212948   0.520   1.105   5.491 -0.8632  0.4797  0.5973
   14MOL   N44312949   0.474   1.203   5.596  0.5086  0.0907  0.6867
   14MOL   C44412950   0.464   1.338   5.587  0.1201 -0.2437  0.7293
   14MOL   O44512951   0.475   1.391   5.479  0.5994  0.1926  0.0339
   14MOL   C44612952   0.445   1.419   5.719  0.2512  0.1607  0.1687
   14MOL   C44712953   0.510   1.555   5.719  0.5621 -0.2644  0.5183
   14MOL   C44812954   0.652   1.575   5.677 -0.6176 -0.3081  0.4413
   14MOL   C44912955   0.717   1.709   5.727 -0.0820  0.6085 -0.0084
   14MOL   C45012956   0.851   1.742   5.666  0.5318  0.2295  0.1521
   14MOL   C45112957   0.965   1.649   5.717 -0.4950  0.1501  0.0183
   14MOL   C45212958   1.095   1.680   5.634 -0.1011  0.0457  0.3892
   14MOL   C45312959   1.201   1.571   5.643 -0.3851  0.1600  0.4240
   14MOL   C45412960   1.314   1.582   5.543 -0.5161 -0.0341  0.6127
   14MOL   O45512961   1.332   1.684   5.467 -0.0604  0.3129  0.2210
   14MOL   H45612962   0.487   0.779   5.422 -1.1970 -0.8208 -0.8929
   14MOL   H45712963   0.467   0.754   5.713 -0.8969  0.7722  0.9408
   14MOL   H45812964   0.392   0.899   5.651  2.3796  1.4315  0.6879
   14MOL   H45912965   0.702   0.741   5.741  1.2682 -0.7966 -0.8546
   14MOL   H46012966   0.939   0.807   5.678 -0.7561 -2.6486  0.4305
   14MOL   H46112967   0.979   0.990   5.546  0.3766 -0.7127 -1.5906
   14MOL   H46212968   0.798   1.133   5.465 -1.4720  2.2650  2.2229
   14MOL   H46312969   0.440   1.046   5.446 -1.5352  0.8838  1.2604
   14MOL   H46412970   0.545   1.158   5.399 -1.1714 -1.0212 -0.3671
   14MOL   H46512971   0.460   1.168   5.690  0.8273 -2.1083 -0.0714
   14MOL   H46612972   0.506   1.361   5.788 -1.9318 -2.8663 -0.3454
   14MOL   H46712973   0.349   1.405   5.769  0.7653 -1.3356  0.7437
   14MOL   H46812974   0.500   1.602   5.817 -0.3529 -1.5498  1.0622
   14MOL   H46912975   0.444   1.611   5.653  0.1044 -0.1781  1.0438
   14MOL   H47012976   0.713   1.501   5.728 -1.8272  0.8150  3.6974
   14MOL   H47112977   0.656   1.586   5.569 -1.1611 -0.2164  0.4302
   14MOL   H47212978   0.645   1.791   5.722 -1.5304 -0.7278 -3.0283
   14MOL   H47312979   0.729   1.697   5.834  2.0900 -2.6997 -0.5559
   14MOL   H47412980   0.843   1.741   5.557  1.3906  1.1476  0.0768
   14MOL   H47512981   0.875   1.847   5.685  0.1582  0.2029  0.7562
   14MOL   H47612982   0.932   1.547   5.696  0.5341 -0.3606  0.8348
   14MOL   H47712983   0.985   1.660   5.823  1.3691 -0.5596 -0.2228
   14MOL   H47812984   1.060   1.692   5.532 -0.5201  2.4080  0.7850
   14MOL   H47912985   1.140   1.777   5.655 -2.1251  1.6070 -2.1988
   14MOL   H48012986   1.248   1.554   5.739 -1.5600 -1.4249  0.7377
   14MOL   H48112987   1.151   1.477   5.618 -0.6768  0.5991 -0.6844
   14MOL   N48212988   1.401   1.479   5.546  1.0967  0.2570 -0.1859
   14MOL   C48312989   1.527   1.463   5.467  0.2406 -0.5178  0.0957
   14MOL   C48412990   1.656   1.488   5.542  0.2222  0.7141  0.6167
   14MOL   C48512991   1.654   1.523   5.677  0.0628 -0.2207  0.2281
   14MOL   C48612992   1.769   1.548   5.749 -0.2503  0.2557 -0.3965
   14MOL   C48712993   1.890   1.558   5.679 -0.3080  0.0390  0.0565
   14MOL   C48812994   1.896   1.528   5.543  0.6623  0.1627  0.1988
   14MOL   C48912995   1.784   1.493   5.471 -0.4526 -0.3213 -0.3317
   14MOL   C49012996   1.800   1.449   5.331  0.2825  0.1156  0.6164
   14MOL   N49112997   1.896   1.342   5.317 -0.0387  0.0639 -0.0206
   14MOL   C49212998   1.875   1.212   5.328 -0.4813 -0.3255 -0.2338
   14MOL   O49312999   1.763   1.166   5.346 -0.0915  0.3559  0.2601
   14MOL   C49413000   1.994   1.116   5.319 -0.4804  0.1645  0.3028
   14MOL   C49513001   1.978   1.037   5.185  0.3441 -0.4300  0.0063
   14MOL   C49613002   2.089   0.938   5.163 -0.5433  0.1562  0.6282
   14MOL   C49713003   2.093   0.819   5.257  0.0802  0.5253 -0.0980
   14MOL   C49813004   2.194   0.706   5.221  0.9298 -0.0404  0.2936
   14MOL   C49913005   2.188   0.574   5.295 -0.0303 -0.9252  0.1263
   14MOL   C50013006   2.232   0.585   5.448  0.5480 -0.2639 -0.8619
   14MOL   C50113007   2.157   0.488   5.547 -0.9653  0.1848  0.3298
   14MOL   C50213008   2.012   0.528   5.567  0.5035  0.2629 -0.3686
   14MOL   O50313009   1.996   0.623   5.645  0.5603  0.3749  0.4989
   14MOL   H50413010   1.390   1.403   5.611  0.8665 -0.9354 -1.5765
   14MOL   H50513011   1.528   1.369   5.412  2.1565 -0.9994  0.8975
   14MOL   H50613012   1.522   1.532   5.382 -1.0769  0.6923  1.1312
   14MOL   H50713013   1.559   1.525   5.729  0.0966 -1.8064  0.3902
   14MOL   H50813014   1.767   1.569   5.854  0.6256  0.5852 -0.4372
   14MOL   H50913015   1.983   1.574   5.731 -0.2100 -0.0662 -0.0891
   14MOL   H51013016   1.993   1.534   5.497  0.7378 -0.1658  0.3156
   14MOL   H51113017   1.845   1.537   5.285  2.0083 -0.7729  0.5852
   14MOL   H51213018   1.702   1.436   5.284  1.6313  1.2950 -2.6992
   14MOL   H51313019   1.987   1.379   5.294 -1.0568  2.4644 -0.2493
   14MOL   H51413020   1.986   1.043   5.400 -0.6598  0.2416  0.3552
   14MOL   H51513021   2.091   1.165   5.316  0.0100 -0.7813  0.4183
   14MOL   H51613022   1.985   1.110   5.105  0.3089  0.2349  0.5987
   14MOL   H51713023   1.884   0.982   5.189 -0.1753  0.4184 -0.5440
   14MOL   H51813024   2.087   0.897   5.061  1.2022 -0.5079  0.8417
   14MOL   H51913025   2.187   0.986   5.165 -0.5860  0.3340 -0.8157
   14MOL   H52013026   2.109   0.851   5.359 -0.1798  0.9325 -0.1846
   14MOL   H52113027   1.990   0.786   5.271  0.6215  0.4488  4.2508
   14MOL   H52213028   2.193   0.680   5.115 -2.3343  1.3062 -0.0694
   14MOL   H52313029   2.292   0.750   5.238  1.5924 -0.8202 -1.4305
   14MOL   H52413030   2.252   0.500   5.247  0.2019 -0.9433  0.4630
   14MOL   H52513031   2.085   0.541   5.281 -0.2081 -0.1622 -0.3824
   14MOL   H52613032   2.341   0.582   5.453  0.6463  0.5751 -2.1889
   14MOL   H52713033   2.207   0.684   5.485  1.2712 -0.5854  0.5025
   14MOL   H52813034   2.213   0.491   5.641 -1.6029  2.4375  0.6580
   14MOL   H52913035   2.163   0.384   5.514 -1.2801 -0.3250  1.8412
   14MOL   N53013036   1.915   0.461   5.507 -0.0191 -0.7194  0.1052
   14MOL   C53113037   1.774   0.483   5.549  0.8359  0.0244  0.4886
   14MOL   C53213038   1.693   0.572   5.459  0.3386 -0.4961  0.6664
   14MOL   C53313039   1.752   0.695   5.411 -0.2352 -0.1057 -0.1733
   14MOL   C53413040   1.677   0.786   5.333 -0.0179 -0.0978  0.2977
   14MOL   C53513041   1.553   0.751   5.293  0.0313 -0.7589  0.3721
   14MOL   C53613042   1.501   0.627   5.323 -1.0027 -0.2583  0.0663
   14MOL   C53713043   1.566   0.536   5.410 -0.1420  0.0657 -0.1908
   14MOL   C53813044   1.493   0.402   5.445  0.1150  0.6603  0.4038
   14MOL   N53913045   1.468   0.401   5.585  0.0876  0.8468 -0.7067
   14MOL   C54013046   1.424   0.289   5.647 -0.0453 -0.6564  0.1304
   14MOL   O54113047   1.414   0.181   5.594 -0.4544  0.5743 -0.2374
   14MOL   C54213048   1.376   0.305   5.792 -0.6587  0.7330 -0.4103
   14MOL   C54313049   1.475   0.227   5.886 -0.3789 -0.3663  0.5901
   14MOL   C54413050   1.605   0.300   5.915  0.0288 -0.2732  0.5513
   14MOL   C54513051   1.695   0.242   6.031  0.0639 -0.0572  0.3010
   14MOL   C54613052   1.730   0.091   6.002  0.5184 -0.0315  0.0174
   14MOL   C54713053   1.843   0.037   6.091  0.6333  0.0960  0.5350
   14MOL   C54813054   1.941   7.723   6.028 -0.0745  0.7025  0.4583
   14MOL   C54913055   1.873   7.586   6.007 -0.4602  0.2168 -0.4277
   14MOL   C55013056   1.949   7.483   5.930  0.4897 -0.0352 -0.6082
   14MOL   O55113057   1.995   7.520   5.823  0.1151  1.1311 -0.5007
   14MOL   H55213058   1.942   0.395   5.436  1.1978 -0.2477  0.1302
   14MOL   H55313059   1.763   0.517   5.652 -0.2720 -0.9312  0.7006
   14MOL   H55413060   1.736   0.381   5.550  1.2559 -0.1770 -1.5808
   14MOL   H55513061   1.849   0.725   5.449 -1.2658 -0.0800  2.5312
   14MOL   H55613062   1.717   0.886   5.322 -1.3614  0.5104  0.8365
   14MOL   H55713063   1.501   0.822   5.230 -1.6393 -1.2594  1.1649
   14MOL   H55813064   1.406   0.608   5.274 -0.5964 -1.5053 -0.2511
   14MOL   H55913065   1.555   0.320   5.410 -0.6730 -0.1823  0.9386
   14MOL   H56013066   1.404   0.398   5.381  0.5728  1.6450 -0.2944
   14MOL   H56113067   1.469   0.493   5.626  2.7184  0.4971  0.1432
   14MOL   H56213068   1.277   0.259   5.790 -0.1553 -0.3567 -0.6201
   14MOL   H56313069   1.360   0.409   5.821 -1.8974  0.5787 -0.5329
   14MOL   H56413070   1.488   0.125   5.851 -2.8185  0.1056 -1.8759
   14MOL   H56513071   1.427   0.214   5.983 -0.1299 -1.3102  0.5874
   14MOL   H56613072   1.664   0.300   5.823 -2.6662  1.9011 -1.2397
   14MOL   H56713073   1.598   0.405   5.940  0.8749  0.4629 -2.1237
   14MOL   H56813074   1.790   0.291   6.052 -0.5852 -0.2430  3.9607
   14MOL   H56913075   1.642   0.246   6.126  1.6454  1.6004  1.1474
   14MOL   H57013076   1.648   0.019   5.992  1.2001 -0.7832 -0.2238
   14MOL   H57113077   1.760   0.094   5.897  1.4684 -1.4593  0.2406
   14MOL   H57213078   1.798   7.782   6.180 -1.3470 -0.0879 -0.5173
   14MOL   H57313079   1.900   0.122   6.128  0.4677  0.1657  0.6325
   14MOL   H57413080   1.968   7.752   5.927  0.9267 -1.6756  0.0232
   14MOL   H57513081   2.027   7.706   6.093 -0.2432  0.0702  0.5204
   14MOL   H57613082   1.784   7.597   5.945 -0.2504  0.1450 -0.7442
   14MOL   H57713083   1.844   7.533   6.098 -0.9267 -2.6681 -2.1703
   14MOL   N57813084   1.957   7.358   5.975 -0.2619 -0.7880 -0.1786
   14MOL   C57913085   2.012   7.248   5.898  0.3162 -0.0003 -0.7593
   14MOL   C58013086   2.060   7.129   5.986  0.9689 -0.7858  0.5576
   14MOL   C58113087   1.966   7.051   6.053 -0.3839  0.0623  0.3811
   14MOL   C58213088   1.999   6.941   6.129 -0.4080  0.2773  0.4106
   14MOL   C58313089   2.134   6.908   6.145 -0.5444  0.2980 -0.6278
   14MOL   C58413090   2.229   6.988   6.091 -0.1994  0.2710 -0.0188
   14MOL   C58513091   2.197   7.096   6.010 -0.6263 -0.4381  0.0869
   14MOL   C58613092   2.318   7.180   5.950 -0.0046 -0.5582  0.0060
   14MOL   N58713093   2.345   7.304   6.018  0.5834 -0.7925 -0.4902
   14MOL   C58813094   2.388   7.412   5.963  0.5408 -0.1588  0.6746
   14MOL   O58913095   2.438   7.418   5.847  0.7658  0.0459  0.3277
   14MOL   C59013096   2.344   7.545   6.030  0.1031 -0.1053  0.1889
   14MOL   C59113097   2.346   7.675   5.950 -0.3100  0.0269  0.1340
   14MOL   C59213098   2.486   7.728   5.912 -0.2113 -0.1338  0.0225
   14MOL   C59313099   2.562   7.782   6.033 -0.7387 -0.3036  0.3509
   14MOL   C59413100   2.674   0.092   6.011 -0.4607  0.2260  0.3032
   14MOL   C59513101   2.749   0.140   6.131 -0.7074 -0.1006 -0.1019
   14MOL   C59613102   2.665   0.243   6.207 -0.2995 -0.3742 -0.1455
   14MOL   C59713103   2.750   0.314   6.318 -0.0020  0.7379  0.5137
   14MOL   C59813104   2.673   0.426   6.382 -0.0303  0.0870 -1.0512
   14MOL   O59913105   2.566   0.461   6.347  0.0698  0.1540 -1.2088
   14MOL   H60013106   1.900   7.328   6.053 -1.3660 -0.9289 -1.0324
   14MOL   H60113107   2.091   7.286   5.834  1.3384 -1.7306 -0.5671
   14MOL   H60213108   1.936   7.207   5.832  0.6203 -0.3904 -0.8666
   14MOL   H60313109   1.863   7.081   6.041 -0.6082 -0.2161  1.5724
   14MOL   H60413110   1.933   6.876   6.183  0.1157 -0.0237  0.6988
   14MOL   H60513111   2.161   6.826   6.210  2.5512  0.2052 -1.9579
   14MOL   H60613112   2.333   6.967   6.114 -0.2893 -1.0976 -0.8309
   14MOL   H60713113   2.306   7.188   5.842  0.9931 -1.1641 -0.1546
   14MOL   H60813114   2.411   7.124   5.961  0.0548 -0.4079  0.2713
   14MOL   H60913115   2.290   7.322   6.101 -1.0114  0.1314 -1.7146
   14MOL   H61013116   2.382   7.562   6.130 -1.8148  0.6177  0.8044
   14MOL   H61113117   2.236   7.547   6.041 -0.1234 -2.9637 -1.0631
   14MOL   H61213118   2.281   7.746   6.000 -2.2301 -1.3228 -0.3880
   14MOL   H61313119   2.298   7.659   5.853 -1.6273 -1.0152  0.9461
   14MOL   H61413120   2.550   7.654   5.865  2.5390  1.7052  0.7056
   14MOL   H61513121   2.472   0.017   5.838  0.4795  1.3576  1.4442
   14MOL   H61613122   2.491   0.038   6.102  1.0813 -0.0146  2.0768
   14MOL   H61713123   2.615   7.704   6.089  0.9415 -0.3306 -1.2210
   14MOL   H61813124   2.752   0.040   5.955  0.1715 -0.4380  1.7656
   14MOL   H61913125   2.642   0.180   5.955 -3.4154  0.0499  1.6289
   14MOL   H62013126   2.835   0.198   6.098  0.2442 -0.7081  1.2579
   14MOL   H62113127   2.786   0.060   6.195  0.6488 -1.7170 -2.8492
   14MOL   H62213128   2.622   0.319   6.142  2.9247  1.0562 -0.7472
   14MOL   H62313129   2.581   0.194   6.256 -0.6923  0.3231 -0.1089
   14MOL   H62413130   2.802   0.246   6.385  0.4470  1.4140  0.8503
   14MOL   H62513131   2.834   0.353   6.261  0.1301 -1.0116 -0.5255
   14MOL   N62613132   2.739   0.483   6.488 -0.3069  0.6156  0.7693
   14MOL   C62713133   2.674   0.593   6.564 -0.0892 -0.1787 -0.0964
   14MOL   C62813134   2.587   0.546   6.685 -0.1255 -0.2025 -0.5802
   14MOL   C62913135   2.528   0.417   6.686  0.2714  0.7773 -0.7146
   14MOL   C63013136   2.444   0.371   6.783  0.3754  0.2582 -0.1100
   14MOL   C63113137   2.397   0.463   6.880 -0.1509  0.0664 -0.5865
   14MOL   C63213138   2.463   0.583   6.896 -0.3876 -0.1385  0.2743
   14MOL   C63313139   2.559   0.629   6.798 -0.2754  0.5639  0.0656
   14MOL   C63413140   2.618   0.763   6.825  0.0601 -0.9323 -0.1013
   14MOL   N63513141   2.525   0.866   6.774 -0.8565  0.1514  0.2543
   14MOL   C63613142   2.552   0.936   6.667 -0.2085 -0.3796 -0.3846
   14MOL   O63713143   2.662   0.933   6.613  0.0871  0.2491 -0.1649
   14MOL   C63813144   2.451   1.038   6.619  0.1299 -0.1794 -0.5383
   14MOL   C63913145   2.510   1.180   6.633 -0.6454 -0.1604 -0.2056
   14MOL   C64013146   2.494   1.232   6.779  0.0656  0.4714 -0.2504
   14MOL   C64113147   2.558   1.369   6.802  0.9307  1.0412  0.4275
   14MOL   C64213148   2.526   1.430   6.932  0.5710 -0.0279  0.8430
   14MOL   C64313149   2.608   1.558   6.955  0.2702  0.0318 -0.1861
   14MOL   C64413150   2.733   1.521   7.043 -0.3682 -0.0349  0.0924
   14MOL   C64513151   2.715   1.545   7.198  0.0011 -0.7076  0.0570
   14MOL   C64613152   2.633   1.447   7.269  0.7841 -0.1349 -0.3485
   14MOL   O64713153   2.681   1.336   7.304  0.2760  0.0540  1.0224
   14MOL   H64813154   2.837   0.479   6.514 -0.5914 -1.7896  1.5497
   14MOL   H64913155   2.616   0.652   6.493 -1.5634 -0.3554  0.9497
   14MOL   H65013156   2.745   0.668   6.598  0.3674 -1.5476  2.0667
   14MOL   H65113157   2.565   0.347   6.613  1.8159  2.8720 -2.0085
   14MOL   H65213158   2.393   0.277   6.770 -0.5270  0.3587  2.5072
   14MOL   H65313159   2.322   0.431   6.951  0.3225 -0.2163 -0.2151
   14MOL   H65413160   2.439   0.648   6.979 -0.9954  0.5233 -0.4108
   14MOL   H65513161   2.725   0.775   6.804 -0.3010  2.6569 -0.1357
   14MOL   H65613162   2.630   0.781   6.931  1.1575  2.0563 -0.6718
   14MOL   H65713163   2.436   0.869   6.820 -0.2320  2.4883  1.3811
   14MOL   H65813164   2.353   1.030   6.665 -0.0162 -0.4480 -0.8996
   14MOL   H65913165   2.442   1.013   6.513  0.4444 -0.8155 -0.4193
   14MOL   H66013166   2.470   1.258   6.568  0.3982  1.4281  1.0193
   14MOL   H66113167   2.617   1.177   6.615 -0.5932 -1.2486  0.2504
   14MOL   H66213168   2.386   1.241   6.795 -0.3364 -1.2714 -1.8482
   14MOL   H66313169   2.525   1.160   6.855  1.1359  1.4288  0.2522
   14MOL   H66413170   2.665   1.360   6.781  0.5595  0.8930 -1.4430
   14MOL   H66513171   2.524   1.440   6.727  0.8775  0.9084  0.3239
   14MOL   H66613172   2.421   1.457   6.931  0.7859  0.8370  1.2233
   14MOL   H66713173   2.544   1.355   7.009  1.9982  0.9305  1.4625
   14MOL   H66813174   2.546   1.627   7.013 -0.8749  0.0331 -1.3780
   14MOL   H66913175   2.638   1.612   6.865 -0.4563  0.5893 -0.1038
   14MOL   H67013176   2.764   1.420   7.016  1.0000  0.7872 -1.4985
   14MOL   H67113177   2.809   1.589   7.005 -1.9658  2.0270  0.4394
   14MOL   H67213178   2.679   1.648   7.207 -1.5119 -1.1377 -1.0021
   14MOL   H67313179   2.819   1.537   7.230  0.1240 -0.9269 -0.3939
   14MOL   N67413180   2.501   1.477   7.294 -0.4704 -0.0273  0.3146
   14MOL   C67513181   2.413   1.400   7.368  0.2760 -0.6960  0.1215
   14MOL   C67613182   2.268   1.465   7.369  0.0119  0.2213 -0.4086
   14MOL   C67713183   2.170   1.397   7.298  0.5418 -0.2001  0.2112
   14MOL   C67813184   2.049   1.459   7.278  0.1872 -0.0453 -0.0639
   14MOL   C67913185   2.016   1.572   7.358  0.1051  0.5635  0.3527
   14MOL   C68013186   2.113   1.631   7.444  0.3361  0.3952  0.2089
   14MOL   C68113187   2.251   1.590   7.438  0.3734  0.4617 -0.7731
   14MOL   C68213188   2.356   1.669   7.508 -0.5131  0.0028 -0.4967
   14MOL   N68313189   2.367   1.809   7.465 -0.4956 -0.0816 -0.5999
   14MOL   C68413190   2.413   1.848   7.347 -0.0105  0.5610  0.0798
   14MOL   O68513191   2.461   1.775   7.263  0.1231 -0.5511  0.1827
   14MOL   C68613192   2.378   1.996   7.307 -0.2947  0.1921 -0.2807
   14MOL   C68713193   2.462   2.051   7.192  0.6171 -0.8813 -0.1839
   14MOL   C68813194   2.611   2.079   7.231  0.2919 -0.4863  0.0599
   14MOL   C68913195   2.687   2.116   7.102 -0.7436 -0.4549  0.7305
   14MOL   C69013196   2.831   2.168   7.126 -0.2776  0.5404 -0.6896
   14MOL   C69113197   2.842   2.308   7.181  0.3881 -0.0736  0.1501
   14MOL   C69213198   2.773   2.417   7.097 -0.7052  0.2336  0.0527
   14MOL   C69313199   2.814   2.554   7.139  0.3070 -0.4308 -0.3288
   14MOL   C69413200   2.949   2.614   7.092 -0.8869 -0.0847  0.1111
   14MOL   O69513201   3.041   2.544   7.059 -0.1778  0.4732 -0.2424
   14MOL   H69613202   2.464   1.567   7.266  0.2468 -0.1323 -1.0366
   14MOL   H69713203   2.445   1.393   7.472  1.7599  0.1332 -0.2673
   14MOL   H69813204   2.413   1.300   7.326  2.8291 -0.8481  0.4271
   14MOL   H69913205   2.196   1.312   7.237 -0.3032  1.3338 -2.3756
   14MOL   H70013206   1.980   1.426   7.201  1.4778  2.1552 -2.2667
   14MOL   H70113207   1.913   1.603   7.352  0.0498  0.5803  1.3021
   14MOL   H70213208   2.109   1.703   7.524  1.1513 -0.3148  0.8974
   14MOL   H70313209   2.457   1.628   7.508  0.4927  2.2230  2.5141
   14MOL   H70413210   2.329   1.684   7.613  2.0197 -2.0909  0.5053
   14MOL   H70513211   2.338   1.884   7.526 -0.1003  0.1745 -0.7218
   14MOL   H70613212   2.388   2.062   7.393  0.4504 -2.8865  2.0831
   14MOL   H70713213   2.274   2.005   7.275 -0.6022 -2.2213 -0.0967
   14MOL   H70813214   2.417   2.140   7.148 -1.6420 -2.4660 -1.1929
   14MOL   H70913215   2.455   1.990   7.103 -2.4940 -0.6444 -0.1675
   14MOL   H71013216   2.615   2.157   7.307 -1.4129 -0.1749 -0.1412
   14MOL   H71113217   2.660   1.992   7.275 -0.3828 -2.3384 -2.6973
   14MOL   H71213218   2.711   2.022   7.052 -3.3244 -0.9056  0.2667
   14MOL   H71313219   2.628   2.181   7.038 -0.8361 -0.2725  1.0025
   14MOL   H71413220   2.878   2.093   7.190  1.5189  0.7753 -1.6915
   14MOL   H71513221   2.888   2.155   7.034 -0.5851 -0.5486 -0.7315
   14MOL   H71613222   2.949   2.327   7.192  0.3575 -0.6482  1.4674
   14MOL   H71713223   2.793   2.315   7.278 -0.3958  2.7731 -0.4105
   14MOL   H71813224   2.668   2.395   7.082  0.0511 -2.7935 -1.1441
   14MOL   H71913225   2.815   2.409   6.996  1.3360  3.0021  0.6081
   14MOL   H72013226   2.818   2.560   7.248 -0.8988  2.2339 -0.4063
   14MOL   H72113227   2.745   2.632   7.108  1.7127  1.1160  0.4047
   14MOL   N72213228   2.955   2.746   7.076 -0.0589 -0.0585 -0.5655
   14MOL   C72313229   3.065   2.841   7.038  0.7024  0.2906  0.2521
   14MOL   C72413230   3.150   2.884   7.157  0.2304  0.3972 -0.4659
   14MOL   C72513231   3.150   2.812   7.280  0.1526  0.0954 -0.9549
   14MOL   C72613232   3.231   2.859   7.382 -0.5149  0.9324  0.5728
   14MOL   C72713233   3.310   2.975   7.370  0.5377  0.1365 -0.6716
   14MOL   C72813234   3.305   3.044   7.250 -0.1778 -0.2078  0.2362
   14MOL   C72913235   3.230   2.996   7.145  0.9867  0.0446 -0.0536
   14MOL   C73013236   3.234   3.074   7.010  0.6910 -0.0728 -0.3755
   14MOL   N73113237   3.269   2.994   6.899  0.4590  0.0598 -0.3233
   14MOL   C73213238   3.219   3.011   6.775  0.0875 -0.4169  0.0610
   14MOL   O73313239   3.133   3.092   6.758 -0.0740  0.8543 -0.8074
   14MOL   C73413240   3.247   2.902   6.666 -0.0415  0.8471  0.0846
   14MOL   C73513241   3.122   2.833   6.607 -0.4352  0.5335 -0.3854
   14MOL   C73613242   3.045   2.741   6.702 -0.4342  0.1550  0.0599
   14MOL   C73713243   2.943   2.641   6.638  0.4313 -0.3096 -0.4397
   14MOL   C73813244   2.880   2.543   6.736 -0.6412  0.4830 -0.3377
   14MOL   C73913245   2.817   2.434   6.657  0.2977 -0.5813 -0.7800
   14MOL   C74013246   2.736   2.338   6.744  0.0183  0.0834  0.4359
   14MOL   C74113247   2.660   2.229   6.678 -0.3228 -0.4504  0.3450
   14MOL   C74213248   2.729   2.096   6.672  0.2676 -0.1034 -0.4257
   14MOL   O74313249   2.845   2.075   6.697 -0.0881 -0.0070  0.0823
   14MOL   H74413250   2.869   2.790   7.104  1.0995  0.9390  1.5622
   14MOL   H74513251   3.024   2.924   6.982  0.1340 -1.0684 -1.3884
   14MOL   H74613252   3.137   2.786   6.977  1.4306  1.0555  0.4018
   14MOL   H74713253   3.097   2.721   7.304 -0.4044  0.3899 -1.0673
   14MOL   H74813254   3.221   2.802   7.473  2.2412 -0.8511 -0.1671
   14MOL   H74913255   3.358   3.009   7.460 -0.7191  0.1184  0.0167
   14MOL   H75013256   3.374   3.125   7.234  0.0894 -0.6268 -0.7309
   14MOL   H75113257   3.313   3.149   7.015 -0.4237  1.1040 -0.2365
   14MOL   H75213258   3.137   3.124   7.003  0.9324  0.5631  0.6989
   14MOL   H75313259   3.349   2.935   6.918  0.7208  0.1902 -1.0008
   14MOL   H75413260   3.310   2.827   6.712 -0.8374  0.5291  0.6782
   14MOL   H75513261   3.301   2.946   6.582  0.3016  0.6865  0.2206
   14MOL   H75613262   3.159   2.771   6.526  0.6818 -1.9883  1.9523
   14MOL   H75713263   3.049   2.910   6.580 -2.3466 -0.2836  2.1914
   14MOL   H75813264   3.116   2.677   6.755 -2.4227 -0.7169  1.7405
   14MOL   H75913265   2.991   2.805   6.772  0.9663  3.2048 -1.5467
   14MOL   H76013266   2.860   2.691   6.587  2.1925  0.4729 -2.6162
   14MOL   H76113267   2.991   2.584   6.558 -0.2531 -0.6553 -0.6099
   14MOL   H76213268   2.942   2.495   6.813 -1.2112  1.5887  0.8320
   14MOL   H76313269   2.806   2.603   6.789 -1.2851 -0.3911 -0.2286
   14MOL   H76413270   2.886   2.368   6.603 -2.0067 -3.9454  0.2078
   14MOL   H76513271   2.757   2.486   6.582  1.3591  0.9586 -0.5787
   14MOL   H76613272   2.800   2.288   6.817  0.2871  1.7474  1.3504
   14MOL   H76713273   2.662   2.392   6.803 -0.9462  0.4508 -1.0922
   14MOL   H76813274   2.584   2.209   6.754 -0.3323 -1.5155  0.0550
   14MOL   H76913275   2.605   2.263   6.590 -1.1281 -0.2284  0.9187
   14MOL   N77013276   2.661   1.996   6.624  0.5771  0.0920  0.5025
   14MOL   C77113277   2.528   1.997   6.577  0.4213  0.0625 -0.3987
   14MOL   C77213278   2.433   1.912   6.657  1.1118  0.2579  0.2366
   14MOL   C77313279   2.437   1.926   6.797  0.4504 -0.0362  0.3762
   14MOL   C77413280   2.367   1.835   6.880  0.3997  0.1468 -1.2111
   14MOL   C77513281   2.277   1.750   6.829 -0.1166 -0.4254 -0.2452
   14MOL   C77613282   2.269   1.735   6.689  0.2007 -1.0882  0.2393
   14MOL   C77713283   2.349   1.813   6.602 -0.1883 -0.6648  0.6771
   14MOL   C77813284   2.336   1.785   6.454 -0.0920 -0.3195 -0.3009
   14MOL   N77913285   2.424   1.682   6.403 -0.2853  0.3269  0.5606
   14MOL   C78013286   2.399   1.611   6.292 -0.2480  0.2838  0.4974
   14MOL   O78113287   2.303   1.632   6.224 -0.6893 -0.4892  0.3397
   14MOL   C78213288   2.486   1.491   6.273 -0.9495 -1.0126  0.6190
   14MOL   C78313289   2.516   1.448   6.120 -0.1383  0.5446  0.3128
   14MOL   C78413290   2.392   1.408   6.034 -0.1641  0.0748 -0.1840
   14MOL   C78513291   2.435   1.395   5.879 -0.9219 -0.4336  0.8535
   14MOL   C78613292   2.321   1.343   5.787 -0.9250  0.0575  0.9473
   14MOL   C78713293   2.360   1.372   5.642  0.1375 -0.1607  0.7767
   14MOL   C78813294   2.274   1.300   5.535 -0.0321 -0.2718  0.6585
   14MOL   C78913295   2.315   1.319   5.389 -0.5046  0.5775  0.6052
   14MOL   C79013296   2.263   1.449   5.329 -0.4739  0.5050  0.5527
   14MOL   O79113297   2.141   1.463   5.297 -0.4953 -0.4557  0.0069
   14MOL   H79213298   2.716   1.915   6.598 -2.3667 -1.0073 -2.5871
   14MOL   H79313299   2.478   2.093   6.563 -0.1917 -0.6505 -3.5696
   14MOL   H79413300   2.534   1.959   6.475 -2.0485 -1.3062 -0.0652
   14MOL   H79513301   2.508   1.997   6.838 -1.5941  0.5602  3.0422
   14MOL   H79613302   2.380   1.844   6.987  0.4237  1.8815 -1.3387
   14MOL   H79713303   2.218   1.686   6.893 -0.5194  0.2559  0.0638
   14MOL   H79813304   2.192   1.667   6.655 -0.1958 -0.7374  0.4160
   14MOL   H79913305   2.347   1.880   6.402  1.5382 -0.0640  0.4494
   14MOL   H80013306   2.236   1.744   6.439  0.8055 -2.5085 -0.5119
   14MOL   H80113307   2.500   1.650   6.462  0.2029  0.6224  0.0945
   14MOL   H80213308   2.451   1.406   6.330  0.7660 -2.7039 -0.7596
   14MOL   H80313309   2.579   1.524   6.319 -2.7896  2.1655  2.2088
   14MOL   H80413310   2.598   1.377   6.120 -1.8306 -1.4975 -1.5990
   14MOL   H80513311   2.557   1.536   6.071  2.4995 -1.6069 -1.4581
   14MOL   H80613312   2.311   1.481   6.043 -0.4923 -0.5855  3.0142
   14MOL   H80713313   2.347   1.315   6.070  0.7901 -0.0228  0.7906
   14MOL   H80813314   2.473   1.489   5.841  0.3971 -1.7028 -1.0587
   14MOL   H80913315   2.516   1.322   5.872 -0.3162  0.2746  0.4612
   14MOL   H81013316   2.296   1.237   5.801  2.1376 -0.8997 -0.2730
   14MOL   H81113317   2.232   1.403   5.806 -1.4399 -0.7407  1.0869
   14MOL   H81213318   2.465   1.364   5.615  0.3388  2.7351  0.5354
   14MOL   H81313319   2.349   1.480   5.635 -0.0920 -0.2912 -1.2247
   14MOL   H81413320   2.167   1.320   5.548 -0.1641 -0.8949  0.5671
   14MOL   H81513321   2.275   1.192   5.550 -1.7316 -0.0535  2.5710
   14MOL   H81613322   2.265   1.244   5.327 -1.4362 -0.4061  2.5216
   14MOL   H81713323   2.422   1.315   5.368 -0.3997  2.0102  0.7988
   14MOL   N81813324   2.353   1.546   5.305  0.5398 -0.1268  0.2569
   14MOL   C81913325   2.317   1.686   5.280  0.9708 -0.2454 -0.1861
   14MOL   C82013326   2.381   1.774   5.391 -0.0730  0.2757  0.2903
   14MOL   C82113327   2.298   1.809   5.507 -0.2686  0.1566 -0.1511
   14MOL   C82213328   2.354   1.873   5.616  0.0898 -0.1358 -0.0247
   14MOL   C82313329   2.486   1.920   5.607 -0.2034  0.2769 -0.3998
   14MOL   C82413330   2.572   1.880   5.505 -0.0430  0.2769  0.6266
   14MOL   C82513331   2.521   1.802   5.394 -0.4033 -0.3849 -0.7804
   14MOL   C82613332   2.611   1.756   5.286 -0.0783 -0.3154 -0.7099
   14MOL   N82713333   2.722   1.680   5.350  0.2600 -0.3547  0.4319
   14MOL   C82813334   2.714   1.554   5.402 -0.0452 -0.2284 -0.1675
   14MOL   O82913335   2.609   1.492   5.393 -0.4669 -0.2330 -0.0280
   14MOL   C83013336   2.837   1.504   5.474 -0.3774 -0.4754  0.3635
   14MOL   C83113337   2.812   1.444   5.611 -0.3443  1.0534  0.6687
   14MOL   C83213338   2.752   1.540   5.716  0.0683  0.0174 -0.7535
   14MOL   C83313339   2.772   1.510   5.864 -0.3437  0.3236 -0.3565
   14MOL   C83413340   2.920   1.503   5.918 -0.3750 -0.0384  0.3420
   14MOL   C83513341   2.949   1.438   6.055 -0.2654  0.2558  0.2651
   14MOL   C83613342   3.003   1.300   6.052 -0.1048  0.4041 -0.2926
   14MOL   C83713343   3.011   1.246   6.194 -0.6709 -0.2693  0.7830
   14MOL   C83813344   3.070   1.102   6.190 -0.7501  0.7526  0.1583
   14MOL   O83913345   3.095   1.042   6.088 -0.0615  0.3266 -0.2587
   14MOL   H84013346   2.451   1.531   5.327  0.0638 -3.1752  0.5881
   14MOL   H84113347   2.337   1.713   5.176  0.0517  1.5254  0.0829
   14MOL   H84213348   2.209   1.691   5.284  0.8381 -2.6475  0.4074
   14MOL   H84313349   2.193   1.783   5.505 -0.2817 -0.0422  2.3528
   14MOL   H84413350   2.300   1.896   5.707 -1.0900  0.3361 -0.8371
   14MOL   H84513351   2.532   1.973   5.689  0.7912  1.0701 -1.4600
   14MOL   H84613352   2.678   1.900   5.501 -0.1546  0.4902 -1.8116
   14MOL   H84713353   2.654   1.843   5.236  1.3691  0.4918  1.8398
   14MOL   H84813354   2.567   1.695   5.207  0.7932  1.2223 -2.4181
   14MOL   H84913355   2.811   1.727   5.351 -1.2333  2.5789  0.5328
   14MOL   H85013356   2.904   1.589   5.490 -1.9001  0.6322  0.9220
   14MOL   H85113357   2.882   1.429   5.408  0.2969  0.2009  0.0409
   14MOL   H85213358   2.893   1.380   5.647 -0.1280  0.9642  0.0130
   14MOL   H85313359   2.743   1.361   5.599  1.6474 -0.2693 -1.9626
   14MOL   H85413360   2.645   1.533   5.695 -0.3405  0.1380  1.1995
   14MOL   H85513361   2.768   1.646   5.702 -3.1962  0.7994  0.9362
   14MOL   H85613362   2.713   1.577   5.927  0.0187  0.3475 -0.0439
   14MOL   H85713363   2.721   1.414   5.875 -1.0126  0.8754  1.5536
   14MOL   H85813364   2.989   1.454   5.849 -0.1501 -2.7031  2.3829
   14MOL   H85913365   2.957   1.606   5.925  0.3345 -0.1778 -1.0781
   14MOL   H86013366   2.862   1.451   6.119 -0.1143  1.6340  0.2114
   14MOL   H86113367   3.020   1.499   6.111 -1.3497  1.8880 -0.0820
   14MOL   H86213368   3.102   1.315   6.009 -0.7008  4.5943 -0.4503
   14MOL   H86313369   2.939   1.232   5.995 -2.9989  0.8981  2.1946
   14MOL   H86413370   3.082   1.308   6.248 -1.5834  1.4715  0.0181
   14MOL   H86513371   2.916   1.245   6.248 -0.8114 -0.7572  0.5351
   14MOL   N86613372   3.093   1.044   6.307 -0.5755  0.1925 -0.3293
   14MOL   C86713373   3.143   0.909   6.322  0.0524 -0.8315 -0.2587
   14MOL   C86813374   3.097   0.840   6.452 -0.9701 -0.7683 -0.2291
   14MOL   C86913375   3.021   0.897   6.556  0.1634 -0.6378 -0.8774
   14MOL   C87013376   3.003   0.837   6.680 -0.0385 -0.0278  0.2244
   14MOL   C87113377   3.053   0.710   6.696 -0.1245  0.1921 -0.3394
   14MOL   C87213378   3.115   0.642   6.588 -0.0966  1.2215  0.5151
   14MOL   C87313379   3.137   0.704   6.471 -0.2588  0.3540 -0.0664
   14MOL   C87413380   3.202   0.618   6.369  0.1073 -0.0353  0.0652
   14MOL   N87513381   3.352   0.629   6.364  0.3907 -0.4655  0.1501
   14MOL   C87613382   3.448   0.573   6.440 -0.4421 -0.6514  0.1510
   14MOL   O87713383   3.411   0.497   6.534 -0.1272 -0.0748  0.2805
   14MOL   C87813384   3.592   0.594   6.402 -0.2522 -0.2833  0.1924
   14MOL   C87913385   3.689   0.488   6.472  0.3237  0.0179 -0.5798
   14MOL   C88013386   3.838   0.527   6.457 -0.0701 -0.1197 -0.2893
   14MOL   C88113387   3.881   0.633   6.557 -0.6701  0.2452 -0.1544
   14MOL   C88213388   4.027   0.671   6.536  1.0208 -0.0029 -0.5347
   14MOL   C88313389   4.083   0.781   6.621 -0.2027  0.4936  0.2777
   14MOL   C88413390   4.006   0.921   6.600  0.5554 -0.2958 -0.1658
   14MOL   C88513391   4.060   1.040   6.678 -0.2302  0.4142 -0.9945
   14MOL   C88613392   3.949   1.133   6.737  0.3806  0.8127 -0.0568
   14MOL   O88713393   3.868   1.176   6.661  0.5758 -0.1142  0.1503
   14MOL   H88813394   3.071   1.096   6.391  3.3062 -1.4352  1.8396
   14MOL   H88913395   3.118   0.855   6.231 -1.2670 -0.8385  0.1000
   14MOL   H89013396   3.252   0.919   6.321 -0.1876  2.5217 -0.0799
   14MOL   H89113397   2.978   0.993   6.533 -0.3163 -0.7381 -0.3955
   14MOL   H89213398   2.954   0.873   6.769  2.0522 -0.6214  1.6657
   14MOL   H89313399   3.044   0.654   6.788 -0.0515  0.9247  0.1203
   14MOL   H89413400   3.143   0.539   6.604 -3.1907  0.1087 -1.0311
   14MOL   H89513401   3.158   0.654   6.276  1.2274  0.9102 -0.1075
   14MOL   H89613402   3.174   0.515   6.393  1.8395 -0.3612  0.7647
   14MOL   H89713403   3.388   0.680   6.285 -1.0805  1.0656  0.4396
   14MOL   H89813404   3.625   0.694   6.430  1.7406 -0.0535 -2.8040
   14MOL   H89913405   3.606   0.593   6.294  0.6047  0.3919  0.2911
   14MOL   H90013406   3.676   0.389   6.429 -0.3198  0.1622 -0.7246
   14MOL   H90113407   3.662   0.476   6.577  0.3907  2.8551 -0.1871
   14MOL   H90213408   3.895   0.435   6.474  1.3210  0.4253 -1.9055
   14MOL   H90313409   3.861   0.561   6.356  0.0453  2.9303  0.6940
   14MOL   H90413410   3.833   0.730   6.542  2.1031  2.1487  2.6325
   14MOL   H90513411   3.876   0.603   6.661  1.4878  2.1477  0.5427
   14MOL   H90613412   4.081   0.577   6.549  1.8753  0.3509 -1.4518
   14MOL   H90713413   4.052   0.702   6.434 -2.3071 -1.3554 -1.8245
   14MOL   H90813414   4.182   0.816   6.593 -0.3907  0.7083 -0.1301
   14MOL   H90913415   4.077   0.756   6.726  0.3557 -0.1846  0.1522
   14MOL   H91013416   3.996   0.949   6.495  1.0162  1.0528  0.1347
   14MOL   H91113417   3.901   0.906   6.621 -0.2530  1.9021 -2.3724
   14MOL   H91213418   4.131   1.006   6.753  0.9467  1.4703 -1.6197
   14MOL   H91313419   4.121   1.099   6.611  0.3892 -1.4167 -2.0862
   14MOL   N91413420   3.952   1.150   6.867 -0.3010  0.0758 -0.7281
   14MOL   C91513421   3.861   1.225   6.951 -0.1758 -0.1336  0.1366
   14MOL   C91613422   3.904   1.240   7.100  0.3721 -0.5492  0.3731
   14MOL   C91713423   3.920   1.369   7.141  0.4320 -0.1631  0.6692
   14MOL   C91813424   3.971   1.390   7.277 -0.5478 -1.0570  0.7662
   14MOL   C91913425   3.994   1.282   7.362  0.2914  0.1400 -0.0885
   14MOL   C92013426   3.957   1.152   7.323  0.0400  0.0600  0.2524
   14MOL   C92113427   3.915   1.133   7.189 -0.1517 -0.3022 -0.0063
   14MOL   C92213428   3.868   0.993   7.159 -0.3009 -0.4430 -0.4603
   14MOL   N92313429   3.962   0.886   7.176 -0.3845  0.1100 -0.1961
   14MOL   C92413430   4.055   0.847   7.085 -0.8778  0.1750  0.6697
   14MOL   O92513431   4.079   0.908   6.977 -0.5061  0.0327  0.2293
   14MOL   C92613432   4.132   0.726   7.137  0.0154  0.2211  0.3689
   14MOL   C92713433   4.183   0.622   7.025  0.4661 -0.2080  0.8346
   14MOL   C92813434   4.065   0.546   6.964  0.5661  0.7757  0.0145
   14MOL   C92913435   4.113   0.441   6.862 -0.7825  0.1080 -0.0502
   14MOL   C93013436   4.002   0.340   6.820  0.6287  0.2058  0.0512
   14MOL   C93113437   4.046   0.249   6.710 -0.0840  0.3268 -0.4009
   14MOL   C93213438   3.926   0.184   6.645  0.3941 -1.0931 -0.0349
   14MOL   C93313439   3.958   0.095   6.528 -0.0152 -0.1931 -0.3475
   14MOL   C93413440   3.996   0.159   6.397  0.1993  0.7342 -0.1056
   14MOL   O93513441   3.912   0.201   6.319  0.4823  0.1791  0.6239
   14MOL   H93613442   4.011   1.084   6.916  1.7228  1.2499 -1.5206
   14MOL   H93713443   3.850   1.324   6.907 -0.3635 -0.5994 -0.8913
   14MOL   H93813444   3.758   1.192   6.936  0.0064  0.1742 -2.0333
   14MOL   H93913445   3.904   1.461   7.086 -0.7357 -0.2004  0.9350
   14MOL   H94013446   3.996   1.489   7.311 -0.0485 -1.1523  0.6894
   14MOL   H94113447   4.032   1.297   7.462 -1.6685 -0.3432  0.7441
   14MOL   H94213448   3.961   1.068   7.391 -1.6085  0.7800  1.2792
   14MOL   H94313449   3.822   0.980   7.061  1.1876 -1.2803 -1.0587
   14MOL   H94413450   3.791   0.963   7.230  1.3060 -0.9015  1.1274
   14MOL   H94513451   3.928   0.831   7.253 -0.7074 -0.3117 -0.6380
   14MOL   H94613452   4.067   0.677   7.210 -1.5085  2.4024  0.5590
   14MOL   H94713453   4.216   0.763   7.197 -0.3658 -0.8996  1.6106
   14MOL   H94813454   4.245   0.549   7.077  3.6765  1.2970 -0.7719
   14MOL   H94913455   4.240   0.663   6.942  0.9824 -2.1613  0.1845
   14MOL   H95013456   3.997   0.501   7.036 -2.1928  2.4444 -1.4782
   14MOL   H95113457   4.003   0.619   6.911 -1.1822 -0.2433  0.6338
   14MOL   H95213458   4.153   0.490   6.773 -0.9976  0.6416  0.1424
   14MOL   H95313459   4.189   0.373   6.900 -0.5910 -0.0502 -0.7204
   14MOL   H95413460   3.929   0.404   6.772  0.8091  0.0162 -0.4815
   14MOL   H95513461   3.956   0.283   6.900 -0.0827  0.3757 -0.2387
   14MOL   H95613462   4.104   0.306   6.637 -0.8837  2.5522  0.6432
   14MOL   H95713463   4.112   0.172   6.751 -1.1681 -1.8928 -2.7111
   14MOL   H95813464   3.856   0.264   6.620 -0.0927 -2.0281 -1.7578
   14MOL   H95913465   3.888   0.131   6.732 -1.3997 -0.8855 -0.6755
   14MOL   H96013466   3.865   0.041   6.509  0.3940 -1.2107  0.5071
   14MOL   H96113467   4.030   0.022   6.564  1.8739  1.4169 -0.8117
   14MOL   H96213468   4.101   0.147   6.368  0.1564  3.1595 -1.4395
   15MOL     N113469   1.522   5.905   1.784  0.3899  0.0736  0.3591
   15MOL     C213470   1.431   5.936   1.673 -0.5371 -0.2815  0.3729
   15MOL     C313471   1.396   6.081   1.658 -0.4754 -0.1987  0.6057
   15MOL     C413472   1.452   6.145   1.541 -0.0084  0.3376  0.2423
   15MOL     C513473   1.450   6.287   1.527  0.0768 -0.5535  0.2278
   15MOL     C613474   1.374   6.357   1.622 -0.1358 -0.3099 -0.8544
   15MOL     C713475   1.299   6.291   1.720  0.1027 -0.3894  0.4363
   15MOL     C813476   1.303   6.152   1.736  0.2966 -0.8459  0.4719
   15MOL     C913477   1.216   6.073   1.841  0.0585 -0.4341  0.2130
   15MOL    N1013478   1.310   6.031   1.949 -0.2339 -0.0307  0.1454
   15MOL    C1113479   1.283   6.004   2.080  0.0200  0.1640  0.4530
   15MOL    O1213480   1.173   6.002   2.127 -0.0547  0.4241 -0.0204
   15MOL    C1313481   1.402   5.966   2.171  0.2350 -0.4721 -0.0982
   15MOL    C1413482   1.380   5.830   2.231 -0.0591 -0.0831  0.1052
   15MOL    C1513483   1.428   5.711   2.148 -0.6362  0.4248 -0.1386
   15MOL    C1613484   1.314   5.667   2.050 -0.6681 -0.8206 -0.5765
   15MOL    C1713485   1.355   5.554   1.956 -0.8812 -0.3031  0.6474
   15MOL    C1813486   1.432   5.597   1.831  0.2759 -0.2458 -0.0634
   15MOL    C1913487   1.473   5.469   1.753  0.6765 -0.3294 -0.3731
   15MOL    C2013488   1.414   5.473   1.614  0.2031 -0.6375  0.6763
   15MOL    C2113489   1.465   5.587   1.521  0.7186 -1.0927 -0.3804
   15MOL    O2213490   1.583   5.628   1.530  1.0497  0.3728  0.2449
   15MOL    H2313491   1.612   5.878   1.749  1.5476  1.0127  2.5365
   15MOL    H2413492   1.479   5.899   1.583  1.5813  1.0405  0.9201
   15MOL    H2513493   1.338   5.880   1.690 -0.1076 -0.9286  0.6316
   15MOL    H2613494   1.508   6.087   1.469 -0.1593 -0.9059  1.1154
   15MOL    H2713495   1.481   6.334   1.434 -3.3376  0.4592 -0.4699
   15MOL    H2813496   1.366   6.465   1.612 -1.9339  0.0203  3.3166
   15MOL    H2913497   1.240   6.343   1.793  1.2135 -0.1392  1.1659
   15MOL    H3013498   1.181   5.979   1.798  0.1393 -0.9590  1.2704
   15MOL    H3113499   1.140   6.134   1.888  1.0232  0.8503  0.1357
   15MOL    H3213500   1.406   6.059   1.934 -0.5600 -0.3619 -2.7184
   15MOL    H3313501   1.413   6.040   2.250 -1.1172 -0.1299 -0.2086
   15MOL    H3413502   1.488   5.956   2.105  0.3617 -0.3979  0.0581
   15MOL    H3513503   1.280   5.813   2.270 -0.3403 -0.5788 -0.8001
   15MOL    H3613504   1.446   5.833   2.317 -0.8234  0.1069  0.6944
   15MOL    H3713505   1.518   5.751   2.101 -1.7770  0.7630 -2.0568
   15MOL    H3813506   1.463   5.640   2.224  1.1513  0.7947 -0.5866
   15MOL    H3913507   1.239   5.625   2.117 -1.4986  0.3261 -0.7717
   15MOL    H4013508   1.280   5.754   1.993 -2.4442  0.0039  1.6723
   15MOL    H4113509   1.407   5.479   2.015  1.8998  0.7290 -0.4171
   15MOL    H4213510   1.262   5.504   1.929 -1.3974  1.1294 -0.2774
   15MOL    H4313511   1.525   5.643   1.865  1.2623 -1.0333 -1.6236
   15MOL    H4413512   1.373   5.673   1.779  1.5618  0.1452 -0.9822
   15MOL    H4513513   1.581   5.452   1.755  0.7060 -0.0807  0.3286
   15MOL    H4613514   1.442   5.386   1.815  1.0258 -0.3747 -0.2550
   15MOL    H4713515   1.305   5.464   1.617  0.0877  0.1459 -0.6018
   15MOL    H4813516   1.453   5.392   1.553 -1.5342 -0.9928  0.0177
   15MOL    H4913517   1.492   5.819   1.828  0.1201 -0.8183 -1.5104
   15MOL    N5013518   1.380   5.647   1.441  0.0295  0.0272  0.4166
   15MOL    C5113519   1.403   5.755   1.352 -0.4273 -0.7179 -0.4607
   15MOL    C5213520   1.296   5.765   1.248  1.1269  0.5905 -0.0667
   15MOL    C5313521   1.298   5.680   1.136 -0.7348  0.3646 -0.0740
   15MOL    C5413522   1.198   5.676   1.040 -0.5404  0.9446  0.0334
   15MOL    C5513523   1.088   5.766   1.056 -0.6072 -0.0479 -0.0626
   15MOL    C5613524   1.073   5.847   1.174  0.4565 -0.1294 -0.0663
   15MOL    C5713525   1.183   5.848   1.272  0.0615  0.0621  1.1022
   15MOL    C5813526   1.181   5.939   1.395 -0.0712  0.2259  0.2568
   15MOL    N5913527   1.051   6.008   1.408 -0.3539 -1.1720 -1.1392
   15MOL    C6013528   0.968   6.007   1.510  0.5566 -0.6240 -0.2816
   15MOL    O6113529   0.976   5.929   1.605 -0.7197  0.5555  0.7997
   15MOL    C6213530   0.860   6.115   1.511 -0.1020  0.5926 -1.1658
   15MOL    C6313531   0.868   6.214   1.627  0.5614  0.3616  0.1241
   15MOL    C6413532   0.967   6.331   1.603 -0.3428  0.3129  0.4129
   15MOL    C6513533   0.955   6.446   1.708  0.1233  0.3022  0.0480
   15MOL    C6613534   1.040   6.568   1.664 -0.3362  0.2794  0.3705
   15MOL    C6713535   1.098   6.653   1.779 -0.5052 -0.2151  0.3589
   15MOL    C6813536   1.174   6.780   1.728  0.1679 -0.9619 -0.5481
   15MOL    C6913537   1.223   6.868   1.838  0.2276  0.1424 -0.5272
   15MOL    C7013538   1.316   6.985   1.797  0.1359  0.0455 -0.2871
   15MOL    O7113539   1.291   7.044   1.692 -0.0711 -0.2591 -0.3344
   15MOL    H7213540   1.286   5.612   1.447 -0.1514  0.5147  0.5253
   15MOL    H7313541   1.493   5.721   1.300  0.9487 -0.4268  1.6467
   15MOL    H7413542   1.428   5.858   1.379 -0.1432 -0.7697 -0.5191
   15MOL    H7513543   1.382   5.613   1.124 -1.3341 -0.6336  1.0931
   15MOL    H7613544   1.197   5.605   0.958 -1.7008  0.5826  0.3522
   15MOL    H7713545   1.004   5.761   0.989 -1.5683  0.5087  1.0706
   15MOL    H7813546   0.980   5.898   1.195 -0.6938 -0.8666 -3.0643
   15MOL    H7913547   1.239   6.030   1.376  0.1787  0.2017  0.9090
   15MOL    H8013548   1.199   5.884   1.487 -1.0800 -0.5679 -0.0078
   15MOL    H8113549   1.032   6.079   1.338 -0.2472 -0.3767 -0.3666
   15MOL    H8213550   0.759   6.074   1.518 -0.0088  0.3367 -1.2790
   15MOL    H8313551   0.858   6.160   1.412  1.6407 -0.9043 -1.9205
   15MOL    H8413552   0.899   6.174   1.724 -1.2060 -4.0880 -1.0383
   15MOL    H8513553   0.769   6.255   1.647  1.4392  2.1044  0.9684
   15MOL    H8613554   1.066   6.286   1.599 -1.1612 -1.6166  1.1823
   15MOL    H8713555   0.949   6.380   1.508 -1.4841 -2.2272 -0.7255
   15MOL    H8813556   0.853   6.478   1.731 -0.4955 -1.4194 -0.2569
   15MOL    H8913557   0.993   6.413   1.805 -1.9229  1.3028  1.2155
   15MOL    H9013558   1.121   6.534   1.599  0.3853 -0.8063  1.8070
   15MOL    H9113559   0.969   6.622   1.601  2.6815  2.0367 -1.6351
   15MOL    H9213560   1.169   6.596   1.839  0.9256  1.3616  0.2402
   15MOL    H9313561   1.019   6.695   1.841 -0.2490  3.0675 -1.4110
   15MOL    H9413562   1.097   6.838   1.678 -1.2226 -2.6311 -0.3838
   15MOL    H9513563   1.250   6.756   1.654  0.7115  0.0380 -0.3317
   15MOL    H9613564   1.279   6.811   1.913 -0.2724  0.1818 -0.1207
   15MOL    H9713565   1.129   6.897   1.885  1.8991 -0.0028  3.0388
   15MOL    N9813566   1.411   7.025   1.881  0.2072  0.5066  0.2350
   15MOL    C9913567   1.485   7.148   1.875 -0.2430  0.2763  0.3250
   15MOL   C10013568   1.489   7.228   2.010  0.0536  0.2734  0.6097
   15MOL   C10113569   1.422   7.181   2.125 -0.1739 -0.3463 -0.6917
   15MOL   C10213570   1.442   7.236   2.254  0.5900 -0.5898 -0.0746
   15MOL   C10313571   1.523   7.346   2.264 -0.1803  0.2320  0.4210
   15MOL   C10413572   1.601   7.388   2.154 -0.9003 -0.9081  0.3382
   15MOL   C10513573   1.590   7.324   2.029  0.2845  0.1924 -0.4717
   15MOL   C10613574   1.686   7.369   1.923  0.0135  0.2449 -0.3380
   15MOL   N10713575   1.823   7.381   1.973  0.3452  0.1288  0.2476
   15MOL   C10813576   1.903   7.487   1.961  0.1161 -0.2282  0.0304
   15MOL   O10913577   1.877   7.582   1.885  0.1761  0.0499 -0.2281
   15MOL   C11013578   2.037   7.501   2.042  0.0998 -0.2160  0.0170
   15MOL   C11113579   2.165   7.467   1.974  0.7095 -0.5507  0.1964
   15MOL   C11213580   2.177   7.346   1.880  0.1965 -0.1334 -0.0249
   15MOL   C11313581   2.173   7.214   1.962 -0.7731  0.2115 -0.6854
   15MOL   C11413582   2.187   7.088   1.879  0.1856  0.4021 -0.7709
   15MOL   C11513583   2.175   6.961   1.962  0.0066  0.1879  0.5218
   15MOL   C11613584   2.185   6.827   1.896  0.1833 -0.0381 -0.0391
   15MOL   C11713585   2.213   6.715   1.997  0.8660  0.3288  0.0019
   15MOL   C11813586   2.116   6.719   2.113 -0.3197  0.7681  0.3774
   15MOL   O11913587   2.009   6.652   2.107 -0.2710 -0.5649 -0.7766
   15MOL   H12013588   1.427   6.971   1.965 -0.5772 -0.4707 -0.2354
   15MOL   H12113589   1.591   7.126   1.863 -0.0847 -0.0120  2.1183
   15MOL   H12213590   1.459   7.208   1.788 -0.5741 -0.0079  0.2259
   15MOL   H12313591   1.336   7.116   2.116 -1.3738  1.3951 -2.1435
   15MOL   H12413592   1.386   7.200   2.339  0.6445 -3.1106 -1.0578
   15MOL   H12513593   1.543   7.393   2.359 -1.2285  0.6922  0.4243
   15MOL   H12613594   1.672   7.467   2.170 -1.1103 -1.0175  1.8706
   15MOL   H12713595   1.644   7.465   1.895 -0.1018 -0.1553 -1.5873
   15MOL   H12813596   1.688   7.309   1.832 -0.7282  1.2394 -1.0140
   15MOL   H12913597   1.851   7.302   2.029  1.0287 -0.8914 -1.4728
   15MOL   H13013598   2.035   7.441   2.133  2.6083 -1.9200 -0.9883
   15MOL   H13113599   2.047   7.605   2.074 -0.9630  0.6071 -2.2256
   15MOL   H13213600   2.241   7.446   2.049 -1.0238  1.7237  2.6528
   15MOL   H13313601   2.202   7.554   1.918  2.7532 -1.9756 -0.7586
   15MOL   H13413602   2.104   7.351   1.799  2.7968  0.8960 -2.3957
   15MOL   H13513603   2.275   7.344   1.833 -0.4834 -0.6271 -1.4596
   15MOL   H13613604   2.261   7.209   2.025 -2.0846  1.4638  1.3073
   15MOL   H13713605   2.080   7.216   2.019  0.1873 -1.2286  0.9791
   15MOL   H13813606   2.115   7.078   1.797  1.4010 -2.6695 -1.5532
   15MOL   H13913607   2.287   7.077   1.836  0.6734 -0.6616  0.6072
   15MOL   H14013608   2.075   6.962   2.007 -0.1753 -1.2150  0.1739
   15MOL   H14113609   2.244   6.966   2.047 -0.4671 -1.9790  1.0864
   15MOL   H14213610   2.099   6.821   1.830 -0.6246  0.6655  0.9320
   15MOL   H14313611   2.280   6.844   1.847  0.7262  0.4852  1.1685
   15MOL   H14413612   2.314   6.731   2.036 -0.1531  1.8319  2.1811
   15MOL   H14513613   2.211   6.613   1.960  0.3124 -0.1548  1.3318
   15MOL   N14613614   2.146   6.783   2.224  0.1876  0.1718  0.0714
   15MOL   C14713615   2.052   6.804   2.336 -0.2471  0.3243  0.1813
   15MOL   C14813616   1.987   6.943   2.329 -0.9766 -0.1743 -0.0994
   15MOL   C14913617   2.069   7.057   2.333 -0.1663 -0.9956 -0.4776
   15MOL   C15013618   2.018   7.189   2.333 -0.7424  0.0680 -0.8599
   15MOL   C15113619   1.880   7.205   2.309  0.1811  0.4766  0.3545
   15MOL   C15213620   1.797   7.092   2.298 -0.0068 -0.3207  0.1378
   15MOL   C15313621   1.849   6.959   2.309  0.8182 -0.1078  0.4121
   15MOL   C15413622   1.753   6.846   2.275  0.5335 -1.1399  0.0177
   15MOL   N15513623   1.773   6.799   2.141  0.3019 -0.1284  0.1153
   15MOL   C15613624   1.687   6.817   2.040  0.3698  0.0810  0.6467
   15MOL   O15713625   1.564   6.850   2.048 -0.1746 -0.0632  0.4853
   15MOL   C15813626   1.739   6.792   1.903  0.0304  0.3419 -0.2853
   15MOL   C15913627   1.641   6.713   1.807  0.1131  0.2382  0.3707
   15MOL   C16013628   1.676   6.734   1.655  0.4485  0.1377  0.4258
   15MOL   C16113629   1.605   6.632   1.565 -0.3507  0.5513 -0.1504
   15MOL   C16213630   1.567   6.690   1.426 -0.6473  0.2139 -0.4022
   15MOL   C16313631   1.490   6.594   1.346 -0.3621 -0.3983 -0.4468
   15MOL   C16413632   1.483   6.632   1.191  0.0861  0.4902 -0.2076
   15MOL   C16513633   1.440   6.772   1.173  0.2075 -0.3185  0.6304
   15MOL   C16613634   1.438   6.819   1.027 -0.3713 -0.3844 -0.0322
   15MOL   O16713635   1.446   6.734   0.933 -0.2115 -0.4369  0.3625
   15MOL   H16813636   2.241   6.814   2.237 -0.0596  0.8944  0.2417
   15MOL   H16913637   2.096   6.783   2.433 -1.0179  0.1378  0.4914
   15MOL   H17013638   1.970   6.732   2.331  1.6207 -1.7602 -1.9947
   15MOL   H17113639   2.176   7.045   2.338 -0.1030 -1.0119 -1.6665
   15MOL   H17213640   2.083   7.275   2.346  0.4630 -0.9752  0.1574
   15MOL   H17313641   1.838   7.304   2.306  1.0172  0.7940 -1.3276
   15MOL   H17413642   1.690   7.098   2.284  0.2435  1.3444 -1.2019
   15MOL   H17513643   1.647   6.868   2.288  1.2816  2.2078  0.9450
   15MOL   H17613644   1.769   6.756   2.334  1.5620 -0.9406  0.0441
   15MOL   H17713645   1.865   6.769   2.115 -0.4854 -1.8834 -0.7254
   15MOL   H17813646   1.839   6.749   1.905 -0.5239 -0.9844 -0.5794
   15MOL   H17913647   1.742   6.895   1.866 -0.5470 -0.0957 -1.5892
   15MOL   H18013648   1.535   6.730   1.820 -0.6014 -1.8769 -2.3238
   15MOL   H18113649   1.643   6.607   1.830  0.9909 -0.0689 -1.0117
   15MOL   H18213650   1.652   6.836   1.624 -2.4726 -0.2092  1.4726
   15MOL   H18313651   1.783   6.720   1.639 -0.0322 -1.1823 -1.8749
   15MOL   H18413652   1.655   6.535   1.565 -1.1191  0.1468  0.2302
   15MOL   H18513653   1.517   6.603   1.623 -0.6988 -1.5950 -1.7105
   15MOL   H18613654   1.494   6.769   1.444 -1.7611 -0.9987  0.5348
   15MOL   H18713655   1.652   6.727   1.370  1.2870 -1.1724  1.5570
   15MOL   H18813656   1.396   6.569   1.396 -1.3074  2.7293 -0.5602
   15MOL   H18913657   1.549   6.502   1.340  0.6844  0.3344 -1.5199
   15MOL   H19013658   1.582   6.621   1.146  0.0507 -0.4175 -0.0825
   15MOL   H19113659   1.420   6.558   1.142 -1.0321  0.9913  0.4397
   15MOL   H19213660   1.489   6.848   1.233 -0.4957  0.0569  0.7353
   15MOL   H19313661   1.337   6.771   1.208  0.3427  1.6194  1.1136
   15MOL   N19413662   1.442   6.958   1.004 -0.1353  0.3300 -0.3065
   15MOL   C19513663   1.454   7.021   0.874  0.3267  0.0370  0.7268
   15MOL   C19613664   1.353   7.132   0.868 -0.1139 -0.3874  0.1377
   15MOL   C19713665   1.220   7.089   0.841 -0.0923 -0.2408  0.3399
   15MOL   C19813666   1.117   7.186   0.846 -0.1710  0.2411  0.1763
   15MOL   C19913667   1.140   7.312   0.900  0.2965 -0.3053 -0.4181
   15MOL   C20013668   1.272   7.361   0.921  0.8450  0.9813  0.1635
   15MOL   C20113669   1.381   7.264   0.906 -0.6623  0.2542  0.4103
   15MOL   C20213670   1.526   7.303   0.938  0.3728 -0.4614 -0.4011
   15MOL   N20313671   1.630   7.332   0.835 -0.3181  0.2953  0.3930
   15MOL   C20413672   1.601   7.407   0.731 -0.0910  0.0065  0.3385
   15MOL   O20513673   1.506   7.484   0.729 -0.7058  0.2731 -0.7764
   15MOL   C20613674   1.688   7.385   0.615 -0.0962  0.5098  0.5272
   15MOL   C20713675   1.830   7.459   0.621  0.4896 -0.0146 -0.1964
   15MOL   C20813676   1.938   7.385   0.706  0.4001 -0.4870  0.1051
   15MOL   C20913677   1.976   7.241   0.651 -0.2941 -0.6616  0.2157
   15MOL   C21013678   2.103   7.180   0.716  0.1108 -0.2722  0.8214
   15MOL   C21113679   2.171   7.074   0.627 -0.3499 -0.5282  0.0986
   15MOL   C21213680   2.281   7.134   0.544 -0.3172  0.0059 -0.2667
   15MOL   C21313681   2.360   7.032   0.464 -0.2898 -0.1129  0.6673
   15MOL   C21413682   2.430   6.918   0.541  0.2674  0.6524 -0.2187
   15MOL   O21513683   2.452   6.938   0.660  0.3790 -0.4996  0.1562
   15MOL   H21613684   1.444   7.021   1.083 -0.0276 -3.7639  3.0779
   15MOL   H21713685   1.555   7.058   0.857  0.6568 -0.4010  1.7102
   15MOL   H21813686   1.438   6.945   0.798 -0.1933  1.1744 -0.3167
   15MOL   H21913687   1.197   6.986   0.815 -0.7204  0.3316 -1.4619
   15MOL   H22013688   1.015   7.159   0.823 -0.1160  0.7877 -0.7362
   15MOL   H22113689   1.057   7.381   0.912  0.6006 -0.0086 -0.0018
   15MOL   H22213690   1.292   7.461   0.955  2.6356  0.5217  0.5418
   15MOL   H22313691   1.559   7.232   1.014  0.9898 -2.5856 -2.5823
   15MOL   H22413692   1.517   7.404   0.976 -0.6615 -0.3284 -0.9772
   15MOL   H22513693   1.713   7.276   0.827 -1.0792 -1.0923  2.0031
   15MOL   H22613694   1.641   7.416   0.522 -0.0626 -1.4501 -0.1672
   15MOL   H22713695   1.701   7.278   0.601  0.2954  0.6077  0.1191
   15MOL   H22813696   1.872   7.463   0.521  0.7275  4.8692 -0.0240
   15MOL   H22913697   1.815   7.562   0.653  3.2847  0.4959 -0.4253
   15MOL   H23013698   2.029   7.444   0.713 -0.6471  1.3437 -1.2539
   15MOL   H23113699   1.890   7.375   0.803 -4.5099  1.2686 -1.9462
   15MOL   H23213700   1.904   7.160   0.663  0.5405 -1.6541 -1.3993
   15MOL   H23313701   1.989   7.245   0.543 -1.0734  1.5976  0.1897
   15MOL   H23413702   2.169   7.256   0.757  0.4670 -1.9372  3.4450
   15MOL   H23513703   2.056   7.129   0.800  0.3650 -3.6427 -0.9906
   15MOL   H23613704   2.094   7.026   0.566  0.3821  0.1006 -1.3396
   15MOL   H23713705   2.209   6.991   0.687 -1.7223  0.0626  1.8513
   15MOL   H23813706   2.356   7.191   0.599  1.2266 -0.6340 -1.6317
   15MOL   H23913707   2.227   7.201   0.478  0.5913  0.5786 -0.4416
   15MOL   H24013708   2.298   6.986   0.387  0.0019 -1.6474  1.3300
   15MOL   H24113709   2.452   7.069   0.420 -0.1155 -1.1995  0.1055
   15MOL   N24213710   2.455   6.804   0.480 -0.5374  0.2949  0.0950
   15MOL   C24313711   2.519   6.691   0.545  0.3567  0.2030  0.1948
   15MOL   C24413712   2.544   6.566   0.459  0.4787 -0.7875 -0.1784
   15MOL   C24513713   2.673   6.541   0.414  0.2925 -0.3521 -0.3439
   15MOL   C24613714   2.705   6.437   0.331  0.7724 -0.3121 -0.6531
   15MOL   C24713715   2.593   6.370   0.272 -0.1322  0.2271  0.4410
   15MOL   C24813716   2.459   6.386   0.318 -0.2878 -0.3629  0.0221
   15MOL   C24913717   2.439   6.488   0.410  0.2702 -0.1968 -0.2960
   15MOL   C25013718   2.293   6.513   0.463  0.0934 -0.0468 -0.2469
   15MOL   N25113719   2.215   6.593   0.372 -0.2422  0.3622 -0.2388
   15MOL   C25213720   2.079   6.597   0.362  0.1869 -0.7054  0.2134
   15MOL   O25313721   2.002   6.525   0.424  0.7499 -0.3396 -0.3298
   15MOL   C25413722   2.028   6.699   0.264  0.0261 -0.0333  0.1968
   15MOL   C25513723   1.892   6.765   0.314  0.2491  0.5957  0.1766
   15MOL   C25613724   1.880   6.844   0.452  0.1129  0.4218  0.0092
   15MOL   C25713725   1.746   6.884   0.489  0.6164 -0.3900  0.0053
   15MOL   C25813726   1.686   7.001   0.414 -0.1336 -0.4030  0.1188
   15MOL   C25913727   1.554   7.043   0.469 -0.1191 -0.0927 -0.6371
   15MOL   C26013728   1.482   7.159   0.403  1.1146 -0.3319  0.1063
   15MOL   C26113729   1.361   7.219   0.488 -0.1764  1.0648 -1.2368
   15MOL   C26213730   1.303   7.336   0.419  0.2946 -0.5337 -0.7753
   15MOL   O26313731   1.340   7.365   0.306  0.1093 -0.1221  0.4484
   15MOL   H26413732   2.439   6.773   0.385  1.7096 -0.1478 -0.1657
   15MOL   H26513733   2.612   6.722   0.593  1.5481  0.1700 -2.0379
   15MOL   H26613734   2.456   6.662   0.629 -0.9028  0.6950 -0.5667
   15MOL   H26713735   2.754   6.600   0.454  0.4670  0.8130 -2.3522
   15MOL   H26813736   2.803   6.415   0.291  0.9015 -0.2368 -0.3752
   15MOL   H26913737   2.615   6.286   0.208  1.4658  0.2898  0.8919
   15MOL   H27013738   2.381   6.326   0.274 -0.4591 -1.2573  1.4950
   15MOL   H27113739   2.301   6.547   0.566  1.5227  0.0247 -0.3683
   15MOL   H27213740   2.238   6.420   0.477  0.9057 -0.7729 -1.7538
   15MOL   H27313741   2.265   6.635   0.295  0.1620  0.7051  0.2175
   15MOL   H27413742   2.022   6.652   0.166  1.0872 -0.4072  0.3042
   15MOL   H27513743   2.097   6.783   0.270 -1.1358  1.1042 -1.9566
   15MOL   H27613744   1.810   6.694   0.316  0.3661  0.4594  0.1641
   15MOL   H27713745   1.866   6.836   0.235  1.6476  0.9461  0.0138
   15MOL   H27813746   1.944   6.931   0.441  0.8510 -0.2313 -0.9448
   15MOL   H27913747   1.926   6.793   0.537  1.0148  0.0968 -0.6668
   15MOL   H28013748   1.671   6.805   0.482  0.2420 -0.0508  0.1800
   15MOL   H28113749   1.740   6.918   0.593  1.7724 -0.0274 -0.0453
   15MOL   H28213750   1.754   7.086   0.416  0.2969 -0.7051 -1.2945
   15MOL   H28313751   1.674   6.964   0.312 -0.4543 -0.6392  0.2415
   15MOL   H28413752   1.556   7.060   0.577 -2.4289 -2.7609 -0.1130
   15MOL   H28513753   1.488   6.957   0.460 -1.5187  1.0430 -1.5961
   15MOL   H28613754   1.554   7.239   0.390 -0.4983  1.3199  1.1273
   15MOL   H28713755   1.454   7.127   0.302 -2.3266 -1.4286  1.3251
   15MOL   H28813756   1.285   7.145   0.516 -0.7283  1.6675 -1.1448
   15MOL   H28913757   1.390   7.247   0.590  2.3191  1.4734 -2.0186
   15MOL   N29013758   1.208   7.405   0.493 -0.2613 -0.3427 -0.2646
   15MOL   C29113759   1.142   7.528   0.447 -0.0326 -0.0968  1.1933
   15MOL   C29213760   1.092   7.616   0.566  0.4126 -0.4031  0.4372
   15MOL   C29313761   1.150   7.598   0.692  0.2840  0.2252 -1.1209
   15MOL   C29413762   1.108   7.688   0.796  0.6486  0.1627 -0.1216
   15MOL   C29513763   1.011   7.780   0.781 -0.0566 -0.0440 -0.0379
   15MOL   C29613764   0.959   0.012   0.654 -0.5771  0.5959 -0.1294
   15MOL   C29713765   0.994   7.723   0.548  0.1640  0.4173  0.2055
   15MOL   C29813766   0.934   7.759   0.407 -0.5604  0.6749 -0.7143
   15MOL   N29913767   0.946   0.113   0.381 -0.4104 -0.8451  0.5098
   15MOL   C30013768   1.053   0.176   0.332 -0.1730  0.1411 -0.2696
   15MOL   O30113769   1.153   0.116   0.300 -0.4695  0.1188  0.2183
   15MOL   C30213770   1.036   0.322   0.307 -0.1809  0.7591  0.3157
   15MOL   C30313771   1.087   0.375   0.173  0.1464  0.2801  0.1114
   15MOL   C30413772   1.083   0.524   0.161  0.7774  0.1694  0.1116
   15MOL   C30513773   1.089   0.574   0.014 -0.4153 -0.1264 -0.3127
   15MOL   C30613774   1.181   0.496   7.710  0.0370  0.4185 -0.2449
   15MOL   C30713775   1.250   0.583   7.600 -0.5113  0.5646 -0.4783
   15MOL   C30813776   1.341   0.489   7.516  0.1745 -0.2405 -0.2535
   15MOL   C30913777   1.415   0.557   7.402  0.0004  0.8182  0.7635
   15MOL   C31013778   1.514   0.465   7.335  1.0684  0.0025 -0.7075
   15MOL   O31113779   1.500   0.348   7.357 -0.2014  0.1728 -0.0406
   15MOL   H31213780   1.208   7.403   0.594  3.4982  1.7595 -0.1325
   15MOL   H31313781   1.209   7.583   0.381  0.3741  0.4984  2.1033
   15MOL   H31413782   1.060   7.494   0.382 -0.4175  3.4920 -0.3275
   15MOL   H31513783   1.234   7.533   0.705 -1.3716 -1.3481  2.6623
   15MOL   H31613784   1.156   7.678   0.893 -0.5006 -2.0510  0.2623
   15MOL   H31713785   0.980   0.060   0.857  0.4187  0.8571 -0.6666
   15MOL   H31813786   0.885   0.090   0.644  0.6864  1.8311  0.1223
   15MOL   H31913787   0.830   7.727   0.401 -0.0414 -1.1171 -0.4151
   15MOL   H32013788   0.992   7.703   0.333  1.8562 -0.5110  1.9553
   15MOL   H32113789   0.874   0.172   0.420 -0.9215 -0.1974 -1.3702
   15MOL   H32213790   0.935   0.357   0.329 -1.1946 -0.8888 -1.6177
   15MOL   H32313791   1.083   0.357   0.400 -0.9318 -0.2923  1.0964
   15MOL   H32413792   1.025   0.334   0.094 -1.7277  0.6939  1.3427
   15MOL   H32513793   1.186   0.328   0.167 -0.0408 -0.0334 -0.5564
   15MOL   H32613794   1.171   0.562   0.213  3.2976 -0.5859 -3.4800
   15MOL   H32713795   0.997   0.564   0.217  0.6607  0.1304 -0.0402
   15MOL   H32813796   0.992   0.573   7.754 -0.1127 -0.7960 -0.8901
   15MOL   H32913797   1.134   0.672   0.025 -2.0901  0.5258  0.9333
   15MOL   H33013798   1.262   0.445   7.761 -1.9853 -0.1071  2.5151
   15MOL   H33113799   1.118   0.412   7.679 -2.1093  1.3016  1.5368
   15MOL   H33213800   1.308   0.659   7.651  0.9410 -1.5900  1.2034
   15MOL   H33313801   1.174   0.634   7.541 -1.1826  0.8989  0.6631
   15MOL   H33413802   1.416   0.438   7.578 -1.2427  2.2047  3.6668
   15MOL   H33513803   1.273   0.410   7.483 -1.1925  1.2742 -1.1193
   15MOL   H33613804   1.341   0.596   7.333  1.0774 -0.2808 -1.0467
   15MOL   H33713805   1.472   0.637   7.450  1.0159  1.4231 -1.3858
   15MOL   N33813806   1.601   0.510   7.250 -0.3154  0.1613  0.1581
   15MOL   C33913807   1.693   0.433   7.170  0.1891  0.1715 -0.0572
   15MOL   C34013808   1.821   0.506   7.136 -0.3277  0.6972 -0.0163
   15MOL   C34113809   1.877   0.593   7.231  0.4133  0.2213 -0.7161
   15MOL   C34213810   2.000   0.654   7.207 -0.4822 -0.6614  0.4625
   15MOL   C34313811   2.068   0.641   7.087 -0.0326 -0.5609  0.2948
   15MOL   C34413812   2.009   0.559   6.985  0.3642  0.3689 -0.2222
   15MOL   C34513813   1.887   0.486   7.011 -0.5669 -0.1420  0.2414
   15MOL   C34613814   1.846   0.373   6.914  0.8421  0.4285  0.4503
   15MOL   N34713815   1.900   0.248   6.954 -0.1033 -0.1437  0.9149
   15MOL   C34813816   2.023   0.206   6.916  0.1133  0.1715 -0.0452
   15MOL   O34913817   2.094   0.269   6.837  0.6209  0.2869  0.0711
   15MOL   C35013818   2.059   0.062   6.963  0.1393 -0.0345 -0.1744
   15MOL   C35113819   2.090   7.749   6.852  0.5690  0.0250  0.9087
   15MOL   C35213820   1.961   7.702   6.769  0.2194 -0.5370 -0.2456
   15MOL   C35313821   1.893   7.589   6.849 -0.1677  1.1117 -0.0797
   15MOL   C35413822   1.950   7.456   6.807 -0.1907 -0.0353  0.2332
   15MOL   C35513823   1.914   7.348   6.911  0.3165  0.2864  0.4798
   15MOL   C35613824   2.001   7.223   6.887  0.5576 -0.1999 -0.4027
   15MOL   C35713825   1.974   7.113   6.997  0.4409 -0.3090  0.6630
   15MOL   C35813826   2.033   6.975   6.987  0.0550  0.2193  0.2880
   15MOL   O35913827   1.969   6.886   6.939 -0.1382 -0.7715  0.0705
   15MOL   H36013828   1.609   0.611   7.244 -0.3208  0.1911  0.6709
   15MOL   H36113829   1.728   0.340   7.216 -0.4169 -0.7158 -1.3660
   15MOL   H36213830   1.646   0.421   7.072  2.9936 -1.1206 -1.3167
   15MOL   H36313831   1.833   0.595   7.330 -1.6212  0.1788 -1.6164
   15MOL   H36413832   2.053   0.711   7.281 -2.0852 -1.2480  2.0984
   15MOL   H36513833   2.171   0.670   7.069 -0.2624 -0.6168 -1.1870
   15MOL   H36613834   2.054   0.549   6.887 -0.8604 -0.1709 -0.7376
   15MOL   H36713835   1.881   0.402   6.815  0.4608 -0.4472  0.0601
   15MOL   H36813836   1.738   0.369   6.900  1.1059  0.3971 -1.6505
   15MOL   H36913837   1.831   0.197   7.008 -0.9660 -0.3736 -0.3734
   15MOL   H37013838   1.981   0.019   7.025  1.1719 -2.2625 -0.3670
   15MOL   H37113839   2.154   0.076   7.017  0.3380  1.3656 -0.8742
   15MOL   H37213840   2.136   7.659   6.894  0.2393 -0.4381  0.2767
   15MOL   H37313841   2.151   0.011   6.777 -0.6178  1.8858  1.2011
   15MOL   H37413842   1.887   7.778   6.745 -0.0859 -0.9112 -0.4930
   15MOL   H37513843   1.993   7.672   6.669 -0.5886 -1.8213 -0.1263
   15MOL   H37613844   1.793   7.585   6.804  1.3622  0.3545 -3.5559
   15MOL   H37713845   1.894   7.604   6.956 -0.1327 -2.4789  0.4954
   15MOL   H37813846   1.916   7.422   6.710  0.1372  2.3360 -0.7282
   15MOL   H37913847   2.059   7.460   6.798 -0.4563  2.5548 -2.3921
   15MOL   H38013848   1.808   7.327   6.903  0.5507 -0.4775 -0.8519
   15MOL   H38113849   1.934   7.382   7.013  0.9701 -0.6265  0.6615
   15MOL   H38213850   1.986   7.201   6.782  3.0272  0.6891 -0.9889
   15MOL   H38313851   2.107   7.249   6.895  0.1237  1.6468 -0.5276
   15MOL   H38413852   1.870   7.082   6.989  0.7507 -1.3228  0.4642
   15MOL   H38513853   1.991   7.147   7.100 -3.3432 -0.6634  1.4610
   15MOL   N38613854   2.158   6.960   7.026 -0.0903 -0.2339 -1.0370
   15MOL   C38713855   2.226   6.836   7.049 -0.0621  0.4835  0.6085
   15MOL   C38813856   2.332   6.819   6.944 -0.2239 -0.0797  0.8801
   15MOL   C38913857   2.284   6.763   6.828  0.2104 -0.3761  0.3656
   15MOL   C39013858   2.372   6.745   6.720  0.9021 -0.1995  0.5892
   15MOL   C39113859   2.503   6.787   6.725 -0.0401  0.1492 -0.1122
   15MOL   C39213860   2.554   6.851   6.841  0.4968  0.0913  0.4255
   15MOL   C39313861   2.466   6.862   6.952 -0.6682  0.1833  0.3716
   15MOL   C39413862   2.515   6.917   7.086 -0.3341 -0.2253 -0.0326
   15MOL   N39513863   2.532   7.063   7.075  0.1183  0.0747  0.0661
   15MOL   C39613864   2.443   7.159   7.079  0.3084  0.4598  0.0458
   15MOL   O39713865   2.326   7.146   7.113 -0.0157 -0.2648 -0.0002
   15MOL   C39813866   2.487   7.296   7.033 -0.2355 -0.3617  0.1963
   15MOL   C39913867   2.397   7.367   6.928  0.3675  0.2434  0.0257
   15MOL   C40013868   2.373   7.291   6.799  0.0886  0.1711 -0.3763
   15MOL   C40113869   2.500   7.261   6.709 -0.6881 -0.1428  0.3333
   15MOL   C40213870   2.478   7.229   6.555  0.7879 -0.2791 -0.8605
   15MOL   C40313871   2.606   7.172   6.490  0.3749  0.3867 -0.2640
   15MOL   C40413872   2.589   7.152   6.338 -0.1765 -0.1074  0.7475
   15MOL   C40513873   2.710   7.090   6.270  0.2266  0.0484 -0.0396
   15MOL   C40613874   2.762   7.161   6.148  0.0089 -0.0353 -0.3659
   15MOL   O40713875   2.739   7.275   6.131  0.3550 -0.5541 -0.4392
   15MOL   H40813876   2.213   7.037   7.062 -1.5408  0.2971  0.1150
   15MOL   H40913877   2.258   6.838   7.153 -0.1092 -0.8659  0.6579
   15MOL   H41013878   2.158   6.751   7.054 -0.6310  0.9401  0.8167
   15MOL   H41113879   2.180   6.732   6.827 -0.2850  1.2072  1.6494
   15MOL   H41213880   2.331   6.696   6.633 -0.7641  0.7898  0.7985
   15MOL   H41313881   2.569   6.765   6.643 -1.1378 -1.1182 -0.6783
   15MOL   H41413882   2.661   6.866   6.840  0.2216  2.2877  1.0994
   15MOL   H41513883   2.615   6.874   7.084  0.7563  2.2394 -0.4096
   15MOL   H41613884   2.449   6.883   7.166  0.0480  0.5220  0.6051
   15MOL   H41713885   2.626   7.095   7.057  0.0997  1.2003  1.8676
   15MOL   H41813886   2.493   7.368   7.114 -0.6139  0.6660 -0.6851
   15MOL   H41913887   2.589   7.282   6.997 -0.0566 -0.5605  0.7714
   15MOL   H42013888   2.448   7.461   6.908  3.1680 -1.4361 -1.1169
   15MOL   H42113889   2.302   7.378   6.979  0.1244 -0.1261 -0.3470
   15MOL   H42213890   2.311   7.363   6.746 -0.7052  0.0623  0.3888
   15MOL   H42313891   2.314   7.201   6.820 -1.0396  0.5464 -1.7974
   15MOL   H42413892   2.555   7.355   6.717  0.8695 -1.0813  0.7472
   15MOL   H42513893   2.554   7.172   6.741  2.2585  1.9997  1.4853
   15MOL   H42613894   2.388   7.167   6.548  1.1087 -0.8117 -0.3108
   15MOL   H42713895   2.457   7.318   6.495 -0.1454 -1.5026 -2.4108
   15MOL   H42813896   2.631   7.075   6.533 -3.1178 -0.3137  0.2853
   15MOL   H42913897   2.686   7.242   6.515 -0.1363  0.7286  0.4279
   15MOL   H43013898   2.567   7.250   6.296 -1.7245 -0.6226  0.3299
   15MOL   H43113899   2.506   7.086   6.315  2.4570 -2.8377 -1.2478
   15MOL   H43213900   2.683   6.986   6.248 -1.7403  0.4381  0.4312
   15MOL   H43313901   2.801   7.091   6.330 -0.7835  1.0249  1.4885
   15MOL   N43413902   2.826   7.092   6.055  0.1111 -0.2056 -0.5887
   15MOL   C43513903   2.880   7.155   5.934  0.3118  0.5113  0.1210
   15MOL   C43613904   2.910   7.066   5.814  0.2258  0.8097 -0.7020
   15MOL   C43713905   3.041   7.021   5.790 -0.4090  0.0835 -0.4630
   15MOL   C43813906   3.079   6.953   5.673  0.3741  0.1588  0.7072
   15MOL   C43913907   2.973   6.922   5.580 -0.4396 -0.2059 -0.4158
   15MOL   C44013908   2.839   6.962   5.608 -0.5377 -0.2311  0.6146
   15MOL   C44113909   2.806   7.031   5.728  0.3547  0.1079  0.6957
   15MOL   C44213910   2.653   7.054   5.761 -0.1899 -0.4670  0.1353
   15MOL   N44313911   2.555   6.958   5.701 -0.5311  0.1172 -0.1152
   15MOL   C44413912   2.476   6.872   5.773 -0.1269 -0.5519  0.2703
   15MOL   O44513913   2.490   6.861   5.890 -0.2326  0.2658  0.2975
   15MOL   C44613914   2.360   6.798   5.695 -0.0696 -0.4610  0.4911
   15MOL   C44713915   2.232   6.879   5.711 -0.3769 -0.8279 -0.6613
   15MOL   C44813916   2.106   6.807   5.654  0.4552 -1.0313 -0.6758
   15MOL   C44913917   1.982   6.896   5.636 -0.8046  0.0010  0.1416
   15MOL   C45013918   1.872   6.825   5.561  0.6030 -0.6497 -0.1941
   15MOL   C45113919   1.741   6.906   5.549  0.6052  0.8715  0.5397
   15MOL   C45213920   1.624   6.826   5.499 -0.0921  0.9286  0.4798
   15MOL   C45313921   1.550   6.916   5.393  0.7044  0.0790 -0.6033
   15MOL   C45413922   1.440   6.836   5.335 -0.9169  1.1906  0.0579
   15MOL   O45513923   1.453   6.798   5.215  0.0961 -0.2302 -0.5029
   15MOL   H45613924   2.847   6.994   6.072 -0.2713  0.3065  3.3995
   15MOL   H45713925   2.978   7.197   5.954  1.0613 -1.4951  0.8213
   15MOL   H45813926   2.818   7.241   5.908 -1.4517 -0.4280  1.0792
   15MOL   H45913927   3.118   7.044   5.863 -1.0329 -0.1684  0.2872
   15MOL   H46013928   3.181   6.929   5.647  0.1370  0.5123 -0.5609
   15MOL   H46113929   2.989   6.869   5.487 -0.7280  1.8301 -1.6604
   15MOL   H46213930   2.761   6.927   5.542  0.7008 -0.2893 -0.8187
   15MOL   H46313931   2.626   7.147   5.711  0.0851  0.2108  1.2241
   15MOL   H46413932   2.635   7.063   5.869 -0.7409  0.0272  0.0019
   15MOL   H46513933   2.560   6.968   5.600  3.8126  1.3432  0.1177
   15MOL   H46613934   2.345   6.702   5.745  0.6715 -2.1402 -2.3508
   15MOL   H46713935   2.380   6.781   5.589  0.3365 -1.2864  0.6927
   15MOL   H46813936   2.241   6.977   5.664  2.3328  0.2923  2.0402
   15MOL   H46913937   2.220   6.894   5.818  1.9473  1.3898 -0.6717
   15MOL   H47013938   2.134   6.769   5.556  0.3623 -0.8303 -0.7822
   15MOL   H47113939   2.084   6.724   5.721 -0.2907  0.3003  0.7634
   15MOL   H47213940   1.952   6.921   5.737  2.2284  0.5061  0.9773
   15MOL   H47313941   2.007   6.988   5.584  2.1341  0.0826  1.6104
   15MOL   H47413942   1.907   6.779   5.469 -1.6495  0.5899 -1.6924
   15MOL   H47513943   1.834   6.751   5.633  5.4855  0.5296  3.9045
   15MOL   H47613944   1.759   6.987   5.478 -1.0811 -0.2619 -1.2650
   15MOL   H47713945   1.714   6.955   5.642 -0.7732 -0.0821  0.6659
   15MOL   H47813946   1.642   6.727   5.457 -0.2415  0.7886  0.7396
   15MOL   H47913947   1.545   6.815   5.574 -1.8397 -1.1210 -1.5778
   15MOL   H48013948   1.502   7.004   5.437 -1.4374 -1.5657  0.3863
   15MOL   H48113949   1.623   6.941   5.316 -0.0433 -0.3901 -1.4756
   15MOL   N48213950   1.349   6.799   5.426 -0.3243  0.3966 -0.2622
   15MOL   C48313951   1.235   6.720   5.391 -0.5395  0.1190  0.4231
   15MOL   C48413952   1.110   6.778   5.323  0.0977 -0.4389  0.0515
   15MOL   C48513953   1.071   6.914   5.328 -0.5027 -0.1607  0.3467
   15MOL   C48613954   0.963   6.969   5.261 -0.2605  0.3079  0.0527
   15MOL   C48713955   0.884   6.878   5.187  1.1216 -0.4058 -0.4160
   15MOL   C48813956   0.906   6.742   5.187  0.7391 -0.5914  0.2579
   15MOL   C48913957   1.020   6.690   5.256  0.5197 -0.1554 -0.3014
   15MOL   C49013958   1.028   6.539   5.248 -0.0847  0.0141 -0.1482
   15MOL   N49113959   1.089   6.504   5.118  0.6359  0.2371 -0.1109
   15MOL   C49213960   1.185   6.416   5.099  0.9478  0.4366 -0.1197
   15MOL   O49313961   1.221   6.341   5.191 -0.4694  0.1146 -0.4152
   15MOL   C49413962   1.257   6.416   4.973 -0.2105  0.7238 -0.4562
   15MOL   C49513963   1.384   6.499   4.989 -0.2449 -0.8587 -0.7344
   15MOL   C49613964   1.459   6.524   4.858  0.6256  0.8261  0.3635
   15MOL   C49713965   1.600   6.589   4.890  0.1183  0.3380 -0.1758
   15MOL   C49813966   1.661   6.661   4.770 -0.0749 -0.0221 -0.1542
   15MOL   C49913967   1.813   6.674   4.797  0.2887 -0.1888  0.6314
   15MOL   C50013968   1.883   6.716   4.672  0.3097  0.4374  0.1834
   15MOL   C50113969   2.037   6.724   4.702 -0.2496 -0.2973  0.2797
   15MOL   C50213970   2.138   6.767   4.597 -1.0173 -0.0658 -0.0932
   15MOL   O50313971   2.116   6.858   4.524  0.1185 -0.3525  0.6814
   15MOL   H50413972   1.349   6.834   5.521  3.3103  1.0347 -0.4139
   15MOL   H50513973   1.274   6.649   5.319 -0.3778 -1.1366  1.7375
   15MOL   H50613974   1.182   6.678   5.476 -1.1547 -1.5078 -0.7409
   15MOL   H50713975   1.138   6.981   5.380 -0.1517 -0.4887  0.3273
   15MOL   H50813976   0.931   7.072   5.263 -0.0785  0.3652  0.0166
   15MOL   H50913977   0.788   6.908   5.149  1.4884  1.8055  0.2829
   15MOL   H51013978   0.832   6.680   5.140  0.0663  0.5205 -0.1635
   15MOL   H51113979   0.929   6.492   5.244 -0.7424  1.0601  2.7429
   15MOL   H51213980   1.085   6.497   5.331 -0.2795  0.1818  0.0707
   15MOL   H51313981   1.065   6.554   5.034 -0.1427 -1.7039 -1.0577
   15MOL   H51413982   1.201   6.446   4.885  1.8895  2.0916 -1.3391
   15MOL   H51513983   1.263   6.309   4.954  1.8033  1.2010 -2.6019
   15MOL   H51613984   1.440   6.441   5.062 -2.2914 -1.5061  0.3487
   15MOL   H51713985   1.362   6.597   5.031 -0.7422 -1.3948  0.2703
   15MOL   H51813986   1.473   6.429   4.806 -3.9096  2.3539 -4.0947
   15MOL   H51913987   1.398   6.573   4.782 -0.6190 -1.8561 -0.4235
   15MOL   H52013988   1.600   6.661   4.972 -1.2820 -0.4029  0.5047
   15MOL   H52113989   1.653   6.499   4.923 -2.0055  0.1454  2.9175
   15MOL   H52213990   1.644   6.609   4.676 -1.7817 -0.0987  0.1759
   15MOL   H52313991   1.619   6.761   4.761 -0.0196  0.0019 -0.1425
   15MOL   H52413992   1.845   6.576   4.833  0.9281 -0.1768  0.1031
   15MOL   H52513993   1.845   6.744   4.875 -0.7109  0.9379  0.0382
   15MOL   H52613994   1.863   6.649   4.589 -1.7015  1.1783  0.0443
   15MOL   H52713995   1.858   6.819   4.646  0.0845 -0.0443 -1.5635
   15MOL   H52813996   2.058   6.619   4.725 -1.1856 -1.1018 -2.3968
   15MOL   H52913997   2.044   6.787   4.791  2.7011 -1.0214  0.6117
   15MOL   N53013998   2.252   6.698   4.592  0.0120 -0.2156  0.1107
   15MOL   C53113999   2.357   6.736   4.502 -0.3079  0.4273 -0.6006
   15MOL   C53214000   2.492   6.674   4.539  0.6691 -0.2805 -0.4304
   15MOL   C53314001   2.549   6.706   4.663 -0.2153  0.1853 -0.0676
   15MOL   C53414002   2.681   6.670   4.690  0.4568  0.3502  0.2222
   15MOL   C53514003   2.755   6.598   4.595  0.0827  0.1972 -0.3323
   15MOL   C53614004   2.698   6.571   4.473  0.2974  0.2256 -0.1804
   15MOL   C53714005   2.560   6.594   4.447 -0.3357 -0.9890  0.8356
   15MOL   C53814006   2.500   6.551   4.311 -0.6497  0.6224 -0.0991
   15MOL   N53914007   2.381   6.475   4.342  0.3355  0.2294 -0.6779
   15MOL   C54014008   2.272   6.452   4.264  0.2608  0.9951 -0.8402
   15MOL   O54114009   2.276   6.487   4.143 -0.1918  0.3014  0.0340
   15MOL   C54214010   2.157   6.376   4.335  0.4582  0.3190 -0.7630
   15MOL   C54314011   2.024   6.447   4.334 -0.3573  0.5057 -0.1374
   15MOL   C54414012   1.938   6.454   4.207  0.0938 -0.4704 -0.3412
   15MOL   C54514013   1.805   6.525   4.240  0.2387  0.8005 -0.1111
   15MOL   C54614014   1.717   6.549   4.115  0.1631 -0.0729  0.4231
   15MOL   C54714015   1.762   6.669   4.034  0.2978 -0.0576 -0.0376
   15MOL   C54814016   1.638   6.736   3.979  0.1760 -0.4395  0.0575
   15MOL   C54914017   1.682   6.858   3.892 -0.2252  0.0160 -0.3503
   15MOL   C55014018   1.725   6.976   3.979  0.1212  0.3523 -0.0771
   15MOL   O55114019   1.844   7.001   4.000  0.2251  0.2789 -0.2574
   15MOL   H55214020   2.269   6.616   4.649 -0.6111 -1.1756 -1.0746
   15MOL   H55314021   2.363   6.842   4.476 -0.0574 -0.0525 -2.5742
   15MOL   H55414022   2.315   6.710   4.405 -1.9290 -1.2350  0.5173
   15MOL   H55514023   2.484   6.763   4.729 -1.1672  0.4214 -1.1868
   15MOL   H55614024   2.726   6.704   4.782 -0.1468  2.7871 -0.3614
   15MOL   H55714025   2.853   6.559   4.618  0.1207  0.3068 -0.3090
   15MOL   H55814026   2.761   6.516   4.403 -1.9178  0.2156 -2.2473
   15MOL   H55914027   2.579   6.496   4.260 -0.8488  0.9696 -0.7851
   15MOL   H56014028   2.473   6.635   4.247 -1.4069  0.9959  0.6925
   15MOL   H56114029   2.372   6.440   4.437 -0.7671  0.1096 -0.8198
   15MOL   H56214030   2.192   6.348   4.435  1.6467  0.7711 -1.0374
   15MOL   H56314031   2.143   6.282   4.283  1.1402 -0.3883  0.3027
   15MOL   H56414032   2.053   6.545   4.371 -0.2621 -0.7532  3.3525
   15MOL   H56514033   1.957   6.398   4.406  1.3815  0.0563  1.2015
   15MOL   H56614034   1.980   6.512   4.125  2.1791 -0.8427  0.4422
   15MOL   H56714035   1.918   6.355   4.167  1.7862 -0.2544 -1.8003
   15MOL   H56814036   1.743   6.454   4.295  1.6556 -1.0479 -0.8152
   15MOL   H56914037   1.821   6.615   4.298  1.0073  1.9939 -2.1110
   15MOL   H57014038   1.706   6.460   4.052 -2.5410  0.4863  0.0440
   15MOL   H57114039   1.614   6.562   4.147  0.6837  0.0099  2.1206
   15MOL   H57214040   1.830   6.641   3.953  0.6168 -0.6425  0.4323
   15MOL   H57314041   1.811   6.746   4.095 -0.6038  2.5517 -2.4851
   15MOL   H57414042   1.591   6.664   3.912  0.4837 -0.0850 -0.5450
   15MOL   H57514043   1.566   6.759   4.057 -1.0365 -3.4465 -0.0942
   15MOL   H57614044   1.599   6.882   3.826 -1.4660  0.6359  1.3800
   15MOL   H57714045   1.767   6.825   3.833  0.8356  1.1451  0.5289
   15MOL   N57814046   1.626   7.045   4.040  0.4170 -0.4352  0.3163
   15MOL   C57914047   1.643   7.140   4.150  0.0104 -0.1812 -0.4001
   15MOL   C58014048   1.626   7.092   4.301  0.4945  0.1778 -0.2575
   15MOL   C58114049   1.662   6.962   4.343 -0.4485 -0.6125  0.0759
   15MOL   C58214050   1.637   6.922   4.477  0.9490  0.0988  0.2163
   15MOL   C58314051   1.551   6.992   4.556 -0.3767  0.6996  0.3713
   15MOL   C58414052   1.522   7.127   4.522  0.1491 -0.7555  0.5336
   15MOL   C58514053   1.563   7.177   4.398 -0.8261  0.1564 -0.0779
   15MOL   C58614054   1.533   7.325   4.375  0.2216 -0.3576  0.3695
   15MOL   N58714055   1.657   7.394   4.337 -0.0338  0.1325  0.1573
   15MOL   C58814056   1.666   7.523   4.289 -0.1434 -0.4669 -1.0228
   15MOL   O58914057   1.572   7.597   4.266  1.2957 -0.1646 -0.3325
   15MOL   C59014058   1.809   7.574   4.267 -0.0394 -0.1975  0.4060
   15MOL   C59114059   1.822   7.721   4.204 -0.5273  0.0891  0.1977
   15MOL   C59214060   1.733   7.749   4.075 -0.7260 -0.1454 -1.0836
   15MOL   C59314061   1.772   7.658   3.954  0.5884 -0.2070  0.6923
   15MOL   C59414062   1.686   7.662   3.826 -0.1021 -0.0411 -0.8097
   15MOL   C59514063   1.552   7.577   3.832  0.9906 -0.2575  0.2570
   15MOL   C59614064   1.562   7.435   3.874  0.3236 -0.8102  0.4635
   15MOL   C59714065   1.661   7.336   3.806  0.1280 -0.1706  0.7804
   15MOL   C59814066   1.605   7.272   3.675  0.3212 -0.5925  0.4364
   15MOL   O59914067   1.498   7.310   3.640 -0.0691 -0.4530  0.5229
   15MOL   H60014068   1.539   7.048   3.989 -1.2231 -1.7687  2.9338
   15MOL   H60114069   1.594   7.234   4.124 -0.0213 -0.0300  0.2124
   15MOL   H60214070   1.744   7.179   4.138  0.3786 -1.1922 -0.6365
   15MOL   H60314071   1.716   6.894   4.278  2.9735  3.5865 -1.7253
   15MOL   H60414072   1.658   6.818   4.497  1.7959  0.0588 -0.8665
   15MOL   H60514073   1.500   6.953   4.642 -0.6948  2.7690  1.1469
   15MOL   H60614074   1.476   7.193   4.594 -2.3444 -1.4069 -0.4131
   15MOL   H60714075   1.479   7.370   4.458  0.0040  1.7317 -0.8665
   15MOL   H60814076   1.459   7.331   4.295  1.1723  0.5946 -0.4445
   15MOL   H60914077   1.740   7.337   4.325 -0.3251  0.0529 -1.6615
   15MOL   H61014078   1.847   7.496   4.201  0.1824 -0.5368  0.9333
   15MOL   H61114079   1.862   7.566   4.362 -2.3240 -0.8327  1.6765
   15MOL   H61214080   1.929   7.734   4.187 -0.5225 -1.3663 -0.9892
   15MOL   H61314081   1.791   0.002   4.280  1.2197  0.7377  0.3248
   15MOL   H61414082   1.627   7.748   4.100 -0.9239 -3.1750 -1.9120
   15MOL   H61514083   1.750   0.066   4.059  0.4057 -0.4424 -1.9398
   15MOL   H61614084   1.868   7.695   3.918 -0.0251  1.7197  0.9742
   15MOL   H61714085   1.790   7.554   3.983  0.3981 -1.0559 -2.1319
   15MOL   H61814086   1.664   7.767   3.807 -0.6470  0.1074  0.5957
   15MOL   H61914087   1.748   7.625   3.744  0.8900 -0.0750 -0.0533
   15MOL   H62014088   1.515   7.585   3.730  1.7479 -0.9543 -0.0750
   15MOL   H62114089   1.468   7.621   3.885 -0.5687 -1.3340 -1.2728
   15MOL   H62214090   1.603   7.434   3.976 -2.9383  2.3840  1.8982
   15MOL   H62314091   1.463   7.391   3.885 -0.4560  0.5677 -0.8742
   15MOL   H62414092   1.762   7.370   3.785  0.5889 -1.7116  0.4215
   15MOL   H62514093   1.670   7.255   3.879  0.7819 -1.1289 -0.3365
   15MOL   N62614094   1.688   7.179   3.615 -0.2963 -0.2775 -0.3782
   15MOL   C62714095   1.650   7.099   3.500 -0.3321  0.0808  0.9596
   15MOL   C62814096   1.671   6.946   3.526 -0.6120 -0.1552  0.2230
   15MOL   C62914097   1.561   6.867   3.557  0.0712  0.0505  1.0947
   15MOL   C63014098   1.574   6.729   3.586 -0.6000 -0.8295  0.5352
   15MOL   C63114099   1.701   6.670   3.585 -0.2538 -0.2723  0.6039
   15MOL   C63214100   1.815   6.752   3.563  0.0721  0.3480 -0.5570
   15MOL   C63314101   1.798   6.891   3.534 -0.6445 -0.3345  0.1486
   15MOL   C63414102   1.925   6.975   3.531 -0.8441  0.5086  0.6203
   15MOL   N63514103   1.986   7.004   3.658  0.4010 -0.6260 -0.0586
   15MOL   C63614104   2.024   7.123   3.693  0.3385 -0.9006  0.9278
   15MOL   O63714105   2.002   7.226   3.623 -0.5786  0.0555  0.3709
   15MOL   C63814106   2.099   7.142   3.830 -0.4538 -1.0354 -0.1295
   15MOL   C63914107   2.199   7.261   3.816 -0.7337 -0.4325 -0.7788
   15MOL   C64014108   2.146   7.401   3.846  0.3027  0.8225 -0.4032
   15MOL   C64114109   2.146   7.410   4.006 -0.3790 -0.1042  0.3485
   15MOL   C64214110   2.156   7.546   4.061  0.1152  0.4287 -0.3385
   15MOL   C64314111   2.172   7.532   4.214  0.2843  0.3325 -0.0888
   15MOL   C64414112   2.243   7.653   4.278  0.4184  0.3117 -0.1976
   15MOL   C64514113   2.394   7.662   4.255 -0.4137 -0.1014  0.1069
   15MOL   C64614114   2.469   7.768   4.335 -0.5557  0.4506 -0.1753
   15MOL   O64714115   2.406   0.060   4.408 -0.0534 -0.4064 -0.2654
   15MOL   H64814116   1.758   7.149   3.681  1.4019  0.4106 -1.8197
   15MOL   H64914117   1.715   7.127   3.417 -1.1150 -0.0133  0.3149
   15MOL   H65014118   1.544   7.116   3.484 -0.6889 -0.2040  2.9104
   15MOL   H65114119   1.462   6.908   3.569 -0.0347 -0.2029  1.1021
   15MOL   H65214120   1.486   6.667   3.598 -1.1372  0.0856  1.4409
   15MOL   H65314121   1.719   6.566   3.605  3.1611 -0.2761 -2.1350
   15MOL   H65414122   1.915   6.715   3.578 -0.7335 -1.6629  0.1427
   15MOL   H65514123   1.921   7.064   3.469 -0.6539 -0.7124 -1.2188
   15MOL   H65614124   1.998   6.917   3.473  1.1676  2.1079  1.4929
   15MOL   H65714125   2.004   6.921   3.713  0.4494 -2.3532 -2.5846
   15MOL   H65814126   2.160   7.054   3.854  1.4671  0.7572  1.7913
   15MOL   H65914127   2.023   7.155   3.907 -0.7674  0.5693 -0.6968
   15MOL   H66014128   2.240   7.251   3.716  0.1968  0.2537 -0.4697
   15MOL   H66114129   2.280   7.248   3.888  0.6244  2.4446 -1.7199
   15MOL   H66214130   2.221   7.471   3.809 -0.8452  0.7153 -3.0796
   15MOL   H66314131   2.054   7.435   3.800  0.9285  0.1167 -2.2190
   15MOL   H66414132   2.064   7.351   4.047  1.5764 -2.3306  1.1870
   15MOL   H66514133   2.242   7.367   4.036 -0.6311 -1.6635 -1.0339
   15MOL   H66614134   2.238   7.603   4.017 -0.4879  0.5530 -1.3048
   15MOL   H66714135   2.072   7.609   4.031  1.5065  1.8401 -1.3632
   15MOL   H66814136   2.228   7.444   4.246 -3.0642 -0.8166  2.9567
   15MOL   H66914137   2.072   7.532   4.258  0.1420  0.9753 -0.4121
   15MOL   H67014138   2.184   7.741   4.255  0.9695  0.4197 -1.2487
   15MOL   H67114139   2.225   7.649   4.385  1.1113  1.0231 -0.0489
   15MOL   H67214140   2.409   7.670   4.148  1.6515  0.8171  0.4387
   15MOL   H67314141   2.447   7.570   4.278 -0.4480  0.0345  0.7653
   15MOL   N67414142   2.603   7.764   4.334  0.0958  0.2945 -0.0625
   15MOL   C67514143   2.692   0.081   4.387  0.4031  0.0280  0.5614
   15MOL   C67614144   2.750   0.054   4.525 -0.5133  0.1737  0.0148
   15MOL   C67714145   2.835   7.740   4.539  0.5392  0.0186  0.5874
   15MOL   C67814146   2.869   7.692   4.666  0.3231 -0.2303  0.8205
   15MOL   C67914147   2.845   7.775   4.779 -0.2898  0.5104  0.1338
   15MOL   C68014148   2.771   0.104   4.763  0.1047 -0.2314  0.1977
   15MOL   C68114149   2.721   0.141   4.635 -0.3320 -0.1788 -0.0851
   15MOL   C68214150   2.634   0.265   4.629  0.1070 -0.1636  0.3816
   15MOL   N68314151   2.494   0.224   4.612 -0.1615 -0.1436 -0.2810
   15MOL   C68414152   2.396   0.247   4.698  0.0887 -0.3300 -0.2509
   15MOL   O68514153   2.422   0.296   4.813 -0.0509  0.8840 -0.1115
   15MOL   C68614154   2.256   0.204   4.663  0.0734 -0.3675 -0.1273
   15MOL   C68714155   2.154   0.223   4.775 -0.4174 -0.3117 -0.0086
   15MOL   C68814156   2.123   0.364   4.816  0.9500 -0.3796 -0.6466
   15MOL   C68914157   2.095   0.375   4.968  0.2540 -0.3377 -0.3827
   15MOL   C69014158   1.975   0.296   5.014  0.4068 -0.5211  0.7896
   15MOL   C69114159   1.833   0.357   4.984 -0.9246  0.6011 -0.3068
   15MOL   C69214160   1.758   0.465   5.064 -0.2315  0.4701 -0.5586
   15MOL   C69314161   1.639   0.513   4.991 -0.0278  0.1297  0.4131
   15MOL   C69414162   1.524   0.411   4.982  0.1400 -0.6799  0.8139
   15MOL   O69514163   1.497   0.340   5.082 -0.8519 -0.4013 -0.3995
   15MOL   H69614164   2.650   7.689   4.285 -0.7660  1.3995 -2.6981
   15MOL   H69714165   2.652   0.181   4.368 -1.6834 -1.1055 -1.1923
   15MOL   H69814166   2.778   0.092   4.321 -0.8403  0.7596 -0.9896
   15MOL   H69914167   2.860   7.673   4.458  0.2183  1.9642 -1.1712
   15MOL   H70014168   2.925   7.601   4.683 -0.1809 -0.5603  0.7456
   15MOL   H70114169   2.872   7.756   4.882 -2.2679  0.0918  0.5942
   15MOL   H70214170   2.742   0.161   4.850 -0.9891 -1.7818  0.8831
   15MOL   H70314171   2.665   0.336   4.552 -0.6236 -0.9603 -0.6714
   15MOL   H70414172   2.650   0.318   4.723  1.8864  0.8379 -0.4576
   15MOL   H70514173   2.474   0.173   4.527 -2.4149 -0.1816  0.2449
   15MOL   H70614174   2.263   0.099   4.637  0.2643 -0.8915  1.9537
   15MOL   H70714175   2.217   0.270   4.585 -0.4260  0.1831  0.5797
   15MOL   H70814176   2.199   0.172   4.860  1.8176 -1.6330 -1.8955
   15MOL   H70914177   2.061   0.169   4.760  0.9395 -1.8295 -3.4068
   15MOL   H71014178   2.202   0.435   4.790 -0.3281  2.7629  3.4279
   15MOL   H71114179   2.038   0.399   4.758 -0.1999  1.8531  2.2511
   15MOL   H71214180   2.180   0.339   5.027  1.1531 -1.4096 -2.2817
   15MOL   H71314181   2.066   0.478   4.985 -1.8979 -1.2280  1.6118
   15MOL   H71414182   1.977   0.193   4.979  1.3749 -1.0768  2.4311
   15MOL   H71514183   1.976   0.280   5.122 -2.5039 -1.2616  0.7289
   15MOL   H71614184   1.764   0.274   4.972 -0.5395  0.2716 -0.2634
   15MOL   H71714185   1.841   0.392   4.881  0.1078 -2.5919 -1.3579
   15MOL   H71814186   1.822   0.551   5.084 -0.1899  0.4964 -0.8056
   15MOL   H71914187   1.730   0.430   5.163  1.6302  0.7800  0.0977
   15MOL   H72014188   1.661   0.544   4.889  1.9096 -1.9490  0.1467
   15MOL   H72114189   1.602   0.606   5.035 -1.6199  0.1180 -0.8551
   15MOL   N72214190   1.476   0.375   4.861  0.2812  0.2298 -0.7801
   15MOL   C72314191   1.433   0.239   4.842 -0.4896 -0.3668 -0.3148
   15MOL   C72414192   1.473   0.191   4.704 -1.0081  0.1097 -0.5910
   15MOL   C72514193   1.586   0.114   4.689  0.0185  0.1905 -0.3539
   15MOL   C72614194   1.629   0.067   4.562  0.2232  0.3572 -0.0561
   15MOL   C72714195   1.558   0.100   4.447  0.5394 -0.0421  0.4205
   15MOL   C72814196   1.434   0.169   4.462  0.1586  0.1108  0.1389
   15MOL   C72914197   1.393   0.219   4.589  0.0836  0.3460 -0.0662
   15MOL   C73014198   1.265   0.301   4.617 -0.0880  0.2925  0.0188
   15MOL   N73114199   1.186   0.333   4.496 -0.1435 -0.3233 -0.2531
   15MOL   C73214200   1.056   0.362   4.493 -0.3201 -0.2147 -0.3163
   15MOL   O73314201   0.990   0.400   4.593  0.6029 -0.2012 -0.4093
   15MOL   C73414202   1.006   0.347   4.346 -0.4817  0.5534 -0.0715
   15MOL   C73514203   0.878   0.409   4.308  0.3900 -0.3040  0.3726
   15MOL   C73614204   0.903   0.556   4.268 -0.4790 -0.2726 -0.4085
   15MOL   C73714205   0.766   0.626   4.250  0.0110  0.0057 -0.7614
   15MOL   C73814206   0.784   0.758   4.172 -0.8474 -0.7383 -0.8051
   15MOL   C73914207   0.657   0.830   4.130  0.1535  0.1163 -0.5612
   15MOL   C74014208   0.692   0.965   4.068  0.3164  0.5836 -0.0572
   15MOL   C74114209   0.568   1.051   4.018  0.4373  0.0541  0.2738
   15MOL   C74214210   0.448   1.049   4.108  0.0929  0.3819  0.1292
   15MOL   O74314211   0.380   0.943   4.111 -1.0106  0.2250  0.1117
   15MOL   H74414212   1.495   0.428   4.777  1.0050  1.8295  0.3555
   15MOL   H74514213   1.330   0.228   4.876  0.2551  0.3937  2.2667
   15MOL   H74614214   1.477   0.175   4.918 -4.2090 -2.4364  0.2091
   15MOL   H74714215   1.645   0.079   4.773  0.0828 -0.0959 -0.5193
   15MOL   H74814216   1.725   0.017   4.558  0.2599  0.3901  0.3820
   15MOL   H74914217   1.607   0.072   4.355 -1.1427 -1.6744 -0.0150
   15MOL   H75014218   1.374   0.206   4.380 -0.5300  2.6256  1.7125
   15MOL   H75114219   1.293   0.397   4.662  1.1089  0.2635 -0.6482
   15MOL   H75214220   1.209   0.229   4.675  1.0700 -1.8892 -1.5059
   15MOL   H75314221   1.232   0.327   4.406  1.6337  1.0509  0.5512
   15MOL   H75414222   1.010   0.240   4.327 -1.3346  0.4917  0.0848
   15MOL   H75514223   1.082   0.398   4.287  1.6709 -1.2949  1.0197
   15MOL   H75614224   0.805   0.411   4.389 -0.7492  2.7531 -0.6751
   15MOL   H75714225   0.821   0.350   4.236  1.7845 -0.8734 -0.2906
   15MOL   H75814226   0.965   0.600   4.346  2.4246 -0.2886 -2.6162
   15MOL   H75914227   0.960   0.558   4.176  0.0006  2.0360 -0.0858
   15MOL   H76014228   0.694   0.569   4.191  0.1514 -0.1822 -0.7522
   15MOL   H76114229   0.726   0.643   4.350 -0.2751 -0.5521 -0.7767
   15MOL   H76214230   0.839   0.827   4.236  1.2959 -0.4303 -2.9194
   15MOL   H76314231   0.843   0.756   4.080  0.3549  0.9330 -0.0905
   15MOL   H76414232   0.587   0.842   4.212  2.7640  0.4166  1.6785
   15MOL   H76514233   0.593   0.775   4.061 -4.0272  1.6453  1.9052
   15MOL   H76614234   0.759   1.025   4.130 -1.5259  0.4419  2.1478
   15MOL   H76714235   0.747   0.937   3.978  0.4134 -0.2479  0.2644
   15MOL   H76814236   0.607   1.152   4.001 -1.7156  1.2115  1.9740
   15MOL   H76914237   0.533   1.003   3.927 -0.7133 -1.3806  1.4735
   15MOL   N77014238   0.423   1.164   4.177 -0.3164 -0.5228  0.7524
   15MOL   C77114239   0.323   1.185   4.281 -0.1709 -0.5586 -0.1934
   15MOL   C77214240   0.176   1.223   4.239 -0.1811  0.7613  0.4926
   15MOL   C77314241   0.080   1.119   4.238 -0.0050 -0.3917  0.0476
   15MOL   C77414242   7.740   1.149   4.193 -0.1429 -0.2158  0.3415
   15MOL   C77514243   7.699   1.278   4.152 -0.6246 -1.1410  0.0800
   15MOL   C77614244   0.009   1.381   4.156  0.6187  0.4610  0.7219
   15MOL   C77714245   0.139   1.357   4.203 -0.3193  0.3143 -0.0319
   15MOL   C77814246   0.233   1.478   4.221  0.4544 -0.0621  0.4705
   15MOL   N77914247   0.360   1.472   4.142  1.1067 -0.2509  0.3986
   15MOL   C78014248   0.384   1.555   4.041 -0.4443 -0.2862 -0.0316
   15MOL   O78114249   0.330   1.662   4.018  0.1413  0.0295  0.8352
   15MOL   C78214250   0.492   1.506   3.949  0.5089 -0.0429  0.1312
   15MOL   C78314251   0.486   1.532   3.795 -0.3823  0.2391 -0.4598
   15MOL   C78414252   0.372   1.448   3.731 -0.6598 -0.1813  0.5879
   15MOL   C78514253   0.367   1.439   3.579 -0.7203  0.1732 -0.5864
   15MOL   C78614254   0.478   1.352   3.517 -0.0253 -0.3243  0.0115
   15MOL   C78714255   0.456   1.333   3.366 -0.2271 -0.1973 -0.4701
   15MOL   C78814256   0.562   1.243   3.301 -0.8579  0.3962  0.5284
   15MOL   C78914257   0.697   1.306   3.276 -0.4842 -0.2632  1.0812
   15MOL   C79014258   0.788   1.203   3.214 -0.0542  0.2371 -0.4371
   15MOL   O79114259   0.771   1.164   3.102 -0.6127  0.0881  0.2836
   15MOL   H79214260   0.505   1.224   4.181 -0.5448 -0.1093 -0.5169
   15MOL   H79314261   0.310   1.087   4.327 -0.2096  0.4825  2.0874
   15MOL   H79414262   0.361   1.251   4.360  0.3894 -0.8425 -0.2246
   15MOL   H79514263   0.109   1.017   4.260  2.6353  0.9255  3.2676
   15MOL   H79614264   7.673   1.065   4.185 -0.7800  0.3637 -0.5524
   15MOL   H79714265   7.600   1.298   4.113 -0.8064 -1.9659  0.1039
   15MOL   H79814266   7.770   1.481   4.126 -2.3186 -0.0342  1.7848
   15MOL   H79914267   0.266   1.483   4.325 -0.1548  1.6602  0.5985
   15MOL   H80014268   0.179   1.571   4.207 -0.5292 -1.1377 -3.6354
   15MOL   H80114269   0.434   1.404   4.156  0.9033 -0.9084 -1.6026
   15MOL   H80214270   0.495   1.397   3.955  0.0111 -0.1216 -1.0051
   15MOL   H80314271   0.587   1.544   3.987  0.2881  0.4681  0.1725
   15MOL   H80414272   0.584   1.505   3.755 -0.5585 -1.9519  0.4966
   15MOL   H80514273   0.477   1.636   3.765  3.0240  0.3495 -1.3174
   15MOL   H80614274   0.273   1.473   3.769 -0.0346  0.1101  2.0580
   15MOL   H80714275   0.386   1.347   3.770  1.3298 -0.5298 -0.9486
   15MOL   H80814276   0.274   1.389   3.552  0.8536 -1.9310 -2.2530
   15MOL   H80914277   0.378   1.536   3.533  0.5781  0.6703  0.7080
   15MOL   H81014278   0.570   1.407   3.534 -0.4045  0.5212 -0.6180
   15MOL   H81114279   0.484   1.255   3.566 -0.1253 -0.4390 -0.2018
   15MOL   H81214280   0.444   1.424   3.308 -4.5130 -1.9115 -2.5743
   15MOL   H81314281   0.357   1.288   3.353 -1.5300  1.9346  1.6670
   15MOL   H81414282   0.519   1.206   3.208  0.2457  1.1779 -0.2985
   15MOL   H81514283   0.584   1.154   3.360 -0.0973 -0.4930 -1.0547
   15MOL   H81614284   0.742   1.348   3.366 -1.5566 -0.7440  1.8595
   15MOL   H81714285   0.671   1.379   3.199 -0.6753 -1.7022 -0.2430
   15MOL   N81814286   0.889   1.160   3.290 -0.2939  0.1906  0.6726
   15MOL   C81914287   0.984   1.055   3.251 -0.4412 -0.0623  0.4999
   15MOL   C82014288   0.948   0.918   3.320 -0.0071 -0.5098 -0.0545
   15MOL   C82114289   0.914   0.819   3.237  0.0674  0.0058  0.1749
   15MOL   C82214290   0.907   0.686   3.283 -1.0966  0.1371  0.0160
   15MOL   C82314291   0.941   0.656   3.418  0.1794 -0.0933  0.4899
   15MOL   C82414292   0.979   0.756   3.505  0.2441  0.3826  0.8073
   15MOL   C82514293   0.979   0.890   3.456 -0.3733 -0.4231 -0.0813
   15MOL   C82614294   1.049   0.998   3.539 -0.4467 -0.3441  0.6218
   15MOL   N82714295   0.954   1.046   3.638  0.5696  0.9021 -0.3260
   15MOL   C82814296   0.897   1.167   3.638  0.1246 -0.8872  0.2677
   15MOL   O82914297   0.923   1.247   3.556  0.1803 -0.4402 -0.0268
   15MOL   C83014298   0.809   1.204   3.751  0.8041  0.5059 -0.4760
   15MOL   C83114299   0.868   1.295   3.863 -0.1756  0.8231  0.7676
   15MOL   C83214300   0.982   1.227   3.947 -0.4338 -0.1651  0.0641
   15MOL   C83314301   1.031   1.308   4.067 -0.4127 -0.3551  0.5305
   15MOL   C83414302   1.102   1.439   4.020  0.4986  0.0298  0.1239
   15MOL   C83514303   1.087   1.555   4.127  0.6569  0.1639  0.4798
   15MOL   C83614304   1.185   1.669   4.112  0.3649  0.0787 -0.1877
   15MOL   C83714305   1.163   1.796   4.199  0.2553 -0.1080  0.0676
   15MOL   C83814306   1.249   1.914   4.144  0.1255 -0.1881  0.4477
   15MOL   O83914307   1.299   1.903   4.031  0.3700 -0.0554  0.4051
   15MOL   H84014308   0.895   1.195   3.384  3.3423 -1.6274  1.2037
   15MOL   H84114309   0.981   1.053   3.142  0.9629 -1.3083  0.4605
   15MOL   H84214310   1.086   1.092   3.261 -0.6784  0.7815 -0.1555
   15MOL   H84314311   0.896   0.845   3.133  0.2009  0.3172  0.2305
   15MOL   H84414312   0.894   0.610   3.207 -1.2147  0.8860 -0.7170
   15MOL   H84514313   0.939   0.551   3.441 -0.3440 -0.1025  0.4070
   15MOL   H84614314   1.012   0.733   3.606  0.2320  0.1357  0.7535
   15MOL   H84714315   1.104   1.071   3.479  0.9438 -1.7190  0.2022
   15MOL   H84814316   1.124   0.964   3.610  2.3856 -0.1225 -2.1655
   15MOL   H84914317   0.907   0.984   3.702 -0.9093 -0.1576 -2.3831
   15MOL   H85014318   0.772   1.118   3.807  2.0261  1.4127  1.8045
   15MOL   H85114319   0.716   1.248   3.715  0.0615 -0.8474 -0.2557
   15MOL   H85214320   0.791   1.321   3.934 -2.8140 -1.5904 -1.0774
   15MOL   H85314321   0.893   1.383   3.804  0.9545 -0.8199 -1.3006
   15MOL   H85414322   1.055   1.213   3.867 -0.5574 -0.3147 -0.0243
   15MOL   H85514323   0.954   1.127   3.981  0.1421 -0.2551  0.2788
   15MOL   H85614324   0.938   1.326   4.120  0.4097  3.4189  0.8065
   15MOL   H85714325   1.090   1.255   4.143 -0.2378 -1.0678 -0.0877
   15MOL   H85814326   1.206   1.423   3.992 -0.1082 -3.0281 -0.6072
   15MOL   H85914327   1.052   1.485   3.935  0.0144  2.2253  1.5355
   15MOL   H86014328   1.091   1.510   4.226 -0.0036 -1.9548 -0.4285
   15MOL   H86114329   0.982   1.583   4.121  0.3499 -1.0517  0.0966
   15MOL   H86214330   1.213   1.682   4.008 -0.7877 -0.0724 -0.5280
   15MOL   H86314331   1.270   1.618   4.156 -0.4175 -2.4983 -1.5801
   15MOL   H86414332   1.056   1.809   4.217  0.4666  0.3836  1.0445
   15MOL   H86514333   1.204   1.775   4.298  1.1648  0.0842 -0.2616
   15MOL   N86614334   1.264   2.017   4.223  0.6631  0.0579  0.0015
   15MOL   C86714335   1.334   2.136   4.183  0.1591  0.1530 -0.9875
   15MOL   C86814336   1.372   2.224   4.302  0.0054 -0.2754 -0.5805
   15MOL   C86914337   1.485   2.181   4.376  0.3125 -0.3175  0.7663
   15MOL   C87014338   1.538   2.260   4.483  0.1711 -0.3163 -0.0819
   15MOL   C87114339   1.476   2.374   4.512 -0.1911  0.2466 -0.4913
   15MOL   C87214340   1.359   2.420   4.444 -0.1545 -0.0089  0.1424
   15MOL   C87314341   1.313   2.350   4.332  0.4563 -0.5980 -0.8619
   15MOL   C87414342   1.196   2.411   4.251  0.3989 -0.2386 -0.1602
   15MOL   N87514343   1.085   2.318   4.250 -0.1821 -0.3548  0.2152
   15MOL   C87614344   1.013   2.274   4.140 -0.5150  0.3882  0.0107
   15MOL   O87714345   1.023   2.327   4.030  0.1706  0.7487 -0.0107
   15MOL   C87814346   0.899   2.174   4.176  0.4592  0.8668 -0.1585
   15MOL   C87914347   0.836   2.089   4.060 -0.1148  0.2567  0.4790
   15MOL   C88014348   0.929   1.980   4.005  0.1500  0.0284 -0.0186
   15MOL   C88114349   0.878   1.915   3.875  0.6577 -0.4318  0.3969
   15MOL   C88214350   0.988   1.827   3.821  0.5593  0.2064  0.3389
   15MOL   C88314351   0.959   1.764   3.683  0.1780  0.1976 -0.2801
   15MOL   C88414352   0.828   1.683   3.662  0.7243  0.3306 -0.8962
   15MOL   C88514353   0.832   1.588   3.535 -0.1373  0.1867  0.2473
   15MOL   C88614354   0.863   1.660   3.403 -0.1556 -0.7668 -0.7789
   15MOL   O88714355   0.796   1.759   3.364  0.6601 -0.0905  0.1164
   15MOL   H88814356   1.237   2.010   4.320  1.7760 -1.8837  0.1987
   15MOL   H88914357   1.427   2.107   4.134  1.3141 -0.5697  1.5428
   15MOL   H89014358   1.280   2.176   4.097  1.0140 -1.8070 -2.4813
   15MOL   H89114359   1.544   2.096   4.346  0.6071 -0.3162  1.3322
   15MOL   H89214360   1.618   2.217   4.542 -0.0111  1.6465  1.6510
   15MOL   H89314361   1.517   2.423   4.599 -1.2688 -3.4627  2.2486
   15MOL   H89414362   1.310   2.514   4.462 -0.1288  0.0276  0.0279
   15MOL   H89514363   1.236   2.440   4.154  1.6492 -0.5768  0.2516
   15MOL   H89614364   1.173   2.499   4.310  0.1926  0.8588 -1.8275
   15MOL   H89714365   1.055   2.283   4.339 -0.9796 -0.4705 -0.0972
   15MOL   H89814366   0.824   2.236   4.226 -0.1113  0.8212 -0.9512
   15MOL   H89914367   0.941   2.104   4.248 -1.7476 -1.0850 -0.7089
   15MOL   H90014368   0.807   2.156   3.979 -1.5073 -0.7895  0.0873
   15MOL   H90114369   0.746   2.038   4.095  0.7091 -1.3934  0.2513
   15MOL   H90214370   1.021   2.034   3.987 -0.0463  0.7584  1.1067
   15MOL   H90314371   0.946   1.908   4.085  1.4267 -0.5236 -0.7790
   15MOL   H90414372   0.783   1.866   3.898 -0.0239  0.1256 -1.1604
   15MOL   H90514373   0.866   1.991   3.798  0.9301 -0.3891  0.3990
   15MOL   H90614374   1.081   1.883   3.810 -0.9784  3.2357  2.0369
   15MOL   H90714375   1.002   1.742   3.889  1.2724  1.1644  1.4088
   15MOL   H90814376   1.042   1.697   3.660  0.5182  1.2049 -2.0663
   15MOL   H90914377   0.963   1.843   3.609  0.3452 -0.7621 -1.3124
   15MOL   H91014378   0.804   1.623   3.750  0.0253  1.0434 -0.5952
   15MOL   H91114379   0.743   1.751   3.666  0.9450  0.5233  1.7772
   15MOL   H91214380   0.910   1.512   3.543 -3.0320 -3.1215 -1.2754
   15MOL   H91314381   0.737   1.534   3.531  0.3705 -0.7121  0.1637
   15MOL   N91414382   0.976   1.618   3.337  0.3515  0.0242  0.1327
   15MOL   C91514383   1.031   1.667   3.213  0.4047 -0.7680 -0.0920
   15MOL   C91614384   1.111   1.555   3.158  0.3189 -0.6024 -0.3018
   15MOL   C91714385   1.036   1.457   3.088 -0.8227 -0.1791  0.0112
   15MOL   C91814386   1.101   1.341   3.044  0.1625  0.2197  0.4709
   15MOL   C91914387   1.244   1.333   3.057  0.0381 -0.5143 -0.5615
   15MOL   C92014388   1.309   1.433   3.131  0.0436  0.0860 -0.1620
   15MOL   C92114389   1.247   1.550   3.183 -0.0750  0.5817 -0.3351
   15MOL   C92214390   1.316   1.668   3.251 -0.2381 -0.4554 -0.0139
   15MOL   N92314391   1.463   1.656   3.252 -0.3751 -0.0129  0.8106
   15MOL   C92414392   1.556   1.749   3.215  0.3104  0.2032  0.3695
   15MOL   O92514393   1.528   1.864   3.193 -0.3406 -0.1936  0.0451
   15MOL   C92614394   1.703   1.704   3.204 -0.4286 -0.6919  0.4906
   15MOL   C92714395   1.797   1.794   3.125  0.0718  0.5308 -0.3583
   15MOL   C92814396   1.779   1.799   2.973  0.0239 -0.1685  0.3752
   15MOL   C92914397   1.868   1.898   2.900  0.0693 -0.3795  0.2530
   15MOL   C93014398   1.835   1.905   2.749 -0.3654  0.3247 -0.1612
   15MOL   C93114399   1.906   2.025   2.682 -0.9758 -0.4908  0.5159
   15MOL   C93214400   2.065   2.023   2.711  0.0816 -0.5322  0.4310
   15MOL   C93314401   2.145   2.138   2.647 -0.4755 -0.2136 -0.5353
   15MOL   C93414402   2.197   2.120   2.507 -0.2729  0.4146 -0.5502
   15MOL   O93514403   2.143   2.045   2.432 -0.0272 -0.1701  0.6021
   15MOL   H93614404   1.014   1.541   3.389 -0.0623 -0.3031 -0.0461
   15MOL   H93714405   0.937   1.671   3.158  0.0592 -1.2017  0.4562
   15MOL   H93814406   1.073   1.767   3.217  0.9040 -1.0282  1.6040
   15MOL   H93914407   0.928   1.464   3.082 -0.9563 -1.3968  0.8426
   15MOL   H94014408   1.047   1.260   2.998 -1.3042  0.9352  0.8910
   15MOL   H94114409   1.294   1.249   3.011  1.9410  1.1895 -1.7049
   15MOL   H94214410   1.416   1.419   3.138 -0.1209 -0.7783  0.9780
   15MOL   H94314411   1.292   1.672   3.357  0.8279 -1.7750  0.2935
   15MOL   H94414412   1.287   1.763   3.205 -1.4306 -1.4226 -1.3274
   15MOL   H94514413   1.491   1.560   3.263 -1.0916 -0.1701  1.3031
   15MOL   H94614414   1.702   1.609   3.151  0.5542  0.4409 -1.5871
   15MOL   H94714415   1.743   1.683   3.303 -0.3306 -1.1650  0.3518
   15MOL   H94814416   1.898   1.766   3.153 -0.9179 -3.2492 -0.2420
   15MOL   H94914417   1.782   1.893   3.167 -0.5634  0.9446 -1.5507
   15MOL   H95014418   1.800   1.704   2.923  0.5578  0.1412 -0.0004
   15MOL   H95114419   1.676   1.813   2.940 -0.0165 -0.4005  0.4055
   15MOL   H95214420   1.837   1.996   2.936  0.1522  0.1926 -1.1946
   15MOL   H95314421   1.974   1.873   2.913  0.1290  0.2525  0.9654
   15MOL   H95414422   1.726   1.903   2.741 -0.4436  1.2053  0.6022
   15MOL   H95514423   1.873   1.812   2.707 -3.8385 -1.1935 -0.1224
   15MOL   H95614424   1.890   2.027   2.575  0.6809 -0.5386  0.2570
   15MOL   H95714425   1.860   2.118   2.716  0.7659  0.5196  0.2065
   15MOL   H95814426   2.116   1.929   2.690  0.0032 -0.4239 -0.2578
   15MOL   H95914427   2.077   2.040   2.818 -0.3322  0.8770  0.2702
   15MOL   H96014428   2.229   2.156   2.715 -2.7387  1.8327  1.8041
   15MOL   H96114429   2.087   2.230   2.643 -0.4917 -0.2640 -1.6875
   15MOL   H96214430   2.281   2.183   2.480  0.9472 -0.5290  0.9327
   16MOL     N114431   4.312   3.876   4.487 -0.2183 -0.0382  0.1399
   16MOL     C214432   4.341   4.014   4.527  0.4859  0.4987  0.4284
   16MOL     C314433   4.488   4.046   4.553 -0.1433 -0.2313  0.3188
   16MOL     C414434   4.557   4.141   4.477  0.3935  0.9758  0.3665
   16MOL     C514435   4.692   4.168   4.509  0.0166 -0.1320 -0.0730
   16MOL     C614436   4.765   4.100   4.600 -0.6142  0.4923 -0.1872
   16MOL     C714437   4.695   4.004   4.677  0.3747  0.0780 -0.0269
   16MOL     C814438   4.557   3.982   4.666  0.4805  0.1288 -0.5503
   16MOL     C914439   4.483   3.895   4.771 -0.5303  0.5816  0.3556
   16MOL    N1014440   4.470   3.757   4.721  0.0775 -0.1068  0.0802
   16MOL    C1114441   4.458   3.648   4.797  0.5821 -0.1007 -0.6791
   16MOL    O1214442   4.484   3.656   4.917  0.3833  0.0991 -0.0788
   16MOL    C1314443   4.396   3.517   4.734  0.0008 -0.3457  0.2602
   16MOL    C1414444   4.377   3.396   4.822  0.2204  0.1740  0.0563
   16MOL    C1514445   4.327   3.265   4.742  0.0678  0.3300  0.1691
   16MOL    C1614446   4.310   3.137   4.826  0.1497 -0.2190  0.6994
   16MOL    C1714447   4.446   3.088   4.889 -1.0522  0.6866 -0.3420
   16MOL    C1814448   4.534   3.006   4.782 -0.1873 -0.3649 -0.5819
   16MOL    C1914449   4.639   3.087   4.695 -0.3220 -0.3669  1.0024
   16MOL    C2014450   4.745   2.996   4.623  0.4527 -0.1776  0.3015
   16MOL    C2114451   4.679   2.882   4.552  0.0663 -0.4542 -0.5999
   16MOL    O2214452   4.693   2.776   4.602 -0.3110 -0.0059  0.2084
   16MOL    H2314453   4.220   3.855   4.523 -0.2066  0.8365  0.7107
   16MOL    H2414454   4.317   4.080   4.443 -2.2251 -1.3918 -0.3375
   16MOL    H2514455   4.268   4.041   4.603  0.0601 -0.4789  0.3685
   16MOL    H2614456   4.520   4.191   4.388 -0.4337 -2.4610 -1.3323
   16MOL    H2714457   4.743   4.252   4.463 -0.2106 -1.1518 -2.2632
   16MOL    H2814458   4.868   4.121   4.623  0.3305 -1.4506 -2.3733
   16MOL    H2914459   4.740   3.974   4.770  0.4602  1.3745  0.3646
   16MOL    H3014460   4.390   3.935   4.813  0.3226  3.1943 -0.1555
   16MOL    H3114461   4.559   3.877   4.847  0.2508  2.5450  0.0463
   16MOL    H3214462   4.448   3.756   4.623 -0.4157  0.6983  0.1792
   16MOL    H3314463   4.461   3.499   4.648 -0.4477 -0.5261 -0.0468
   16MOL    H3414464   4.307   3.555   4.684  0.9751  2.0495  0.2556
   16MOL    H3514465   4.298   3.422   4.893  0.2887 -0.5206  0.3974
   16MOL    H3614466   4.473   3.373   4.869 -0.4794 -0.9365  0.9917
   16MOL    H3714467   4.235   3.296   4.691  1.2735  0.7597 -1.8232
   16MOL    H3814468   4.373   3.249   4.644 -2.0429  2.0467 -1.1611
   16MOL    H3914469   4.243   3.147   4.912  1.4321  1.7149  1.4805
   16MOL    H4014470   4.258   3.061   4.767 -0.9536  0.5520  0.6594
   16MOL    H4114471   4.509   3.159   4.943  0.1690 -0.2679 -0.5066
   16MOL    H4214472   4.426   3.008   4.960 -0.3397 -0.5918 -1.5563
   16MOL    H4314473   4.460   2.952   4.723 -0.9029 -0.6501  0.5533
   16MOL    H4414474   4.596   2.933   4.833  0.5051  0.3233 -0.4375
   16MOL    H4514475   4.584   3.151   4.627 -0.2470  1.3923  2.5742
   16MOL    H4614476   4.688   3.166   4.751  1.2574 -0.7737  0.2394
   16MOL    H4714477   4.795   2.944   4.705 -0.1687  0.8161  1.3193
   16MOL    H4814478   4.817   3.055   4.566 -1.6651  0.2254 -2.0146
   16MOL    H4914479   4.295   3.868   4.388  0.9579 -0.7420 -0.0077
   16MOL    N5014480   4.628   2.905   4.435  0.6758  0.2454 -0.5768
   16MOL    C5114481   4.565   2.812   4.344 -0.1198 -0.5892 -0.1433
   16MOL    C5214482   4.504   2.876   4.225 -0.7190  0.2927  0.0743
   16MOL    C5314483   4.483   3.019   4.213 -0.0865  0.6418  0.8543
   16MOL    C5414484   4.427   3.076   4.100  0.3013  0.0270 -0.1508
   16MOL    C5514485   4.378   2.995   3.999 -0.5225  0.1099 -0.0716
   16MOL    C5614486   4.399   2.857   4.008  0.0191  0.1403 -0.0011
   16MOL    C5714487   4.470   2.795   4.112 -0.4082 -0.1921 -0.4087
   16MOL    C5814488   4.505   2.645   4.097  0.1919 -0.2289 -0.3915
   16MOL    N5914489   4.478   2.570   3.974 -0.0169 -0.1784 -0.3586
   16MOL    C6014490   4.545   2.579   3.857  0.2571  0.0641 -0.4647
   16MOL    O6114491   4.597   2.688   3.823 -0.0993 -0.1148  0.7493
   16MOL    C6214492   4.546   2.451   3.770 -0.1646  0.3071 -0.2707
   16MOL    C6314493   4.542   2.457   3.615 -0.3635 -0.0865 -0.1161
   16MOL    C6414494   4.662   2.508   3.554 -0.1079  0.2048 -0.0193
   16MOL    C6514495   4.677   2.474   3.408  0.5301  0.0405  0.0633
   16MOL    C6614496   4.812   2.529   3.353 -0.2697 -0.5334  0.1853
   16MOL    C6714497   4.810   2.527   3.200  0.0949 -0.2563 -0.4391
   16MOL    C6814498   4.812   2.388   3.141 -0.8274 -0.9363 -0.7540
   16MOL    C6914499   4.804   2.412   2.985  0.1744  0.0889 -0.2204
   16MOL    C7014500   4.777   2.293   2.904  0.0492 -0.1564 -0.2601
   16MOL    O7114501   4.821   2.181   2.941 -0.0551  0.2517  0.4136
   16MOL    H7214502   4.625   2.998   4.397 -1.6282  0.1828 -0.5858
   16MOL    H7314503   4.494   2.753   4.402 -0.3851  1.4995  1.7530
   16MOL    H7414504   4.642   2.737   4.325 -1.2323 -1.8262  0.1601
   16MOL    H7514505   4.509   3.087   4.293  2.4866 -2.3053  2.6229
   16MOL    H7614506   4.417   3.184   4.094  2.4983  0.2720  0.0934
   16MOL    H7714507   4.313   3.037   3.923 -0.2075  1.0557  0.1781
   16MOL    H7814508   4.362   2.796   3.927  0.8467 -0.8448  0.3575
   16MOL    H7914509   4.453   2.589   4.174  1.5925  1.1404  1.6013
   16MOL    H8014510   4.611   2.628   4.119  0.0067 -0.0564  0.6688
   16MOL    H8114511   4.428   2.484   3.993 -0.0075  0.3463  2.2978
   16MOL    H8214512   4.465   2.391   3.812 -1.6945  3.2928  1.2422
   16MOL    H8314513   4.635   2.399   3.803  2.4250  4.1343 -0.8720
   16MOL    H8414514   4.458   2.513   3.575 -0.5449 -0.8417 -0.8087
   16MOL    H8514515   4.518   2.360   3.570 -2.6745  0.7130 -0.7063
   16MOL    H8614516   4.656   2.616   3.558  1.0781  0.3167 -0.7656
   16MOL    H8714517   4.747   2.473   3.612  0.6823 -0.6291 -1.6196
   16MOL    H8814518   4.677   2.366   3.397 -0.8309  0.0098  0.2218
   16MOL    H8914519   4.598   2.515   3.344  1.6832  1.5165 -0.4610
   16MOL    H9014520   4.823   2.636   3.373 -0.6136 -0.2427 -1.1406
   16MOL    H9114521   4.901   2.479   3.390  0.3643 -0.5708 -1.3256
   16MOL    H9214522   4.893   2.576   3.150  2.0050 -2.0283  0.9225
   16MOL    H9314523   4.716   2.571   3.166 -0.4751 -1.2779 -0.1793
   16MOL    H9414524   4.730   2.333   3.188 -1.0945  1.6409  1.9778
   16MOL    H9514525   4.899   2.331   3.175  0.2930  1.1001 -0.1363
   16MOL    H9614526   4.895   2.458   2.947  1.0539 -0.1294  1.5767
   16MOL    H9714527   4.743   2.499   2.961  1.1302  0.0239 -3.1363
   16MOL    N9814528   4.707   2.321   2.793 -0.1720  0.0035 -0.4153
   16MOL    C9914529   4.662   2.222   2.696  0.2526  0.0542  0.5387
   16MOL   C10014530   4.583   2.274   2.577 -0.3954 -0.6223  0.5956
   16MOL   C10114531   4.640   2.387   2.510  0.1998  0.2429  0.6173
   16MOL   C10214532   4.577   2.437   2.397  0.0435  0.8614 -0.0437
   16MOL   C10314533   4.462   2.378   2.343  0.2061 -0.2643  0.1812
   16MOL   C10414534   4.409   2.264   2.407  0.5810  0.3863  0.1061
   16MOL   C10514535   4.465   2.212   2.523 -0.3560  0.1451  0.2292
   16MOL   C10614536   4.403   2.082   2.570 -0.5208  0.6686  0.3216
   16MOL   N10714537   4.260   2.088   2.585  0.1535 -0.3797 -0.1072
   16MOL   C10814538   4.175   1.988   2.594 -0.2084  0.1646  0.2658
   16MOL   O10914539   4.207   1.874   2.557  0.2326 -0.3470  0.3935
   16MOL   C11014540   4.030   2.025   2.615 -0.2327  0.1890  0.0908
   16MOL   C11114541   3.974   1.935   2.723  0.7000 -0.7677  0.6152
   16MOL   C11214542   4.013   1.959   2.868 -0.8154  0.2367  0.1644
   16MOL   C11314543   3.941   2.077   2.933 -0.8768  0.3445  0.3612
   16MOL   C11414544   3.990   2.091   3.079 -0.4872 -0.6240  0.0729
   16MOL   C11514545   3.925   2.209   3.151  0.3947  0.0714  0.1336
   16MOL   C11614546   3.949   2.196   3.295 -0.4455 -0.2017 -0.3324
   16MOL   C11714547   3.870   2.286   3.389  0.0964 -0.1352 -0.9084
   16MOL   C11814548   3.733   2.244   3.451 -0.1747 -0.0248  0.0216
   16MOL   O11914549   3.720   2.131   3.512 -0.1919  0.0476  0.1042
   16MOL   H12014550   4.680   2.418   2.795  3.3617  1.0798 -0.6643
   16MOL   H12114551   4.744   2.161   2.657 -0.6545 -0.3124 -0.8278
   16MOL   H12214552   4.604   2.141   2.740 -2.4562  1.0289 -1.0830
   16MOL   H12314553   4.725   2.440   2.552  0.4761  2.1987 -2.2701
   16MOL   H12414554   4.610   2.528   2.350  0.3087  1.1588  0.7025
   16MOL   H12514555   4.414   2.424   2.259 -0.7462 -1.3679  0.1099
   16MOL   H12614556   4.318   2.229   2.361  0.0668 -0.4699  1.7513
   16MOL   H12714557   4.435   2.049   2.669 -0.0419  1.7570  0.5390
   16MOL   H12814558   4.434   2.000   2.505 -1.3120 -0.3033  1.1560
   16MOL   H12914559   4.220   2.175   2.616  1.5075 -0.2420  1.3221
   16MOL   H13014560   3.966   2.022   2.527  0.8577 -0.4956 -0.6941
   16MOL   H13114561   4.033   2.130   2.645 -0.3954  0.6890 -1.5828
   16MOL   H13214562   3.998   1.835   2.688 -1.4712 -1.0145 -0.2023
   16MOL   H13314563   3.866   1.930   2.721  0.7771 -3.0549 -3.1606
   16MOL   H13414564   4.002   1.870   2.931  1.2914 -1.6873 -2.0740
   16MOL   H13514565   4.121   1.973   2.871 -0.8712  0.5035  0.8245
   16MOL   H13614566   3.963   2.172   2.886 -0.1287 -0.0506 -0.0889
   16MOL   H13714567   3.836   2.046   2.928 -0.7894  0.3145 -1.9897
   16MOL   H13814568   3.961   2.001   3.135  1.4902 -0.2708  1.6937
   16MOL   H13914569   4.098   2.098   3.074 -0.3132 -2.1384  1.0125
   16MOL   H14014570   3.817   2.208   3.133  0.8078 -0.0040 -2.4938
   16MOL   H14114571   3.960   2.304   3.113 -0.4519 -0.1728 -1.3107
   16MOL   H14214572   3.929   2.093   3.323  0.1531  0.1449  1.4156
   16MOL   H14314573   4.054   2.195   3.325 -0.8855 -0.3400  1.2671
   16MOL   H14414574   3.857   2.378   3.333  1.5555  0.3609 -0.4633
   16MOL   H14514575   3.923   2.318   3.479 -1.0277 -2.3027  0.5723
   16MOL   N14614576   3.632   2.329   3.444  0.4723  0.3046 -0.9661
   16MOL   C14714577   3.494   2.285   3.461 -0.0222 -1.0225 -0.0178
   16MOL   C14814578   3.415   2.413   3.481  0.9887  0.4699 -0.4630
   16MOL   C14914579   3.360   2.439   3.609 -0.2102 -0.2066 -0.0233
   16MOL   C15014580   3.304   2.567   3.634  0.5760  0.6414  0.2413
   16MOL   C15114581   3.290   2.657   3.526 -0.0730 -0.3799 -0.6239
   16MOL   C15214582   3.340   2.622   3.403 -0.6258 -0.6532 -0.0966
   16MOL   C15314583   3.403   2.504   3.374  0.3949  0.0741  0.1257
   16MOL   C15414584   3.464   2.490   3.238 -0.2445  0.4561 -0.9555
   16MOL   N15514585   3.597   2.560   3.222  0.1182 -0.4457  0.8071
   16MOL   C15614586   3.682   2.530   3.124 -0.0388  0.3972  0.3957
   16MOL   O15714587   3.648   2.458   3.026 -1.3362  0.0167 -0.7772
   16MOL   C15814588   3.830   2.577   3.133  0.0097  0.1078  0.3342
   16MOL   C15914589   3.865   2.641   3.000  0.0157 -0.1487  0.5921
   16MOL   C16014590   3.998   2.724   3.008 -0.1447  0.7397 -0.6410
   16MOL   C16114591   4.117   2.669   3.080 -0.5850  0.1973  0.5114
   16MOL   C16214592   4.189   2.558   3.007  0.3525  0.3772  0.3451
   16MOL   C16314593   4.287   2.473   3.085  0.0878  0.3039 -0.2987
   16MOL   C16414594   4.302   2.329   3.030  0.6912 -0.7350 -0.1596
   16MOL   C16514595   4.363   2.317   2.890 -0.0478  0.2664  0.1703
   16MOL   C16614596   4.281   2.376   2.772  1.0437  0.1047  0.0886
   16MOL   O16714597   4.175   2.322   2.734  0.7502  0.1835  0.2948
   16MOL   H16814598   3.650   2.419   3.402  0.4080  0.9311  0.3295
   16MOL   H16914599   3.475   2.208   3.535 -1.3237  0.5221  1.2677
   16MOL   H17014600   3.465   2.237   3.367  1.9981  0.2447 -1.3427
   16MOL   H17114601   3.361   2.371   3.693  0.0302 -1.6216 -1.1640
   16MOL   H17214602   3.265   2.588   3.733  0.9007  2.9996 -0.0983
   16MOL   H17314603   3.252   2.757   3.539 -0.6097 -0.6797  0.0882
   16MOL   H17414604   3.331   2.693   3.322  0.1175  0.6845  0.9709
   16MOL   H17514605   3.383   2.506   3.167 -0.9415  0.9401 -0.0600
   16MOL   H17614606   3.483   2.384   3.221 -0.6563 -0.2188  2.5364
   16MOL   H17714607   3.637   2.598   3.307  1.0690  1.7693 -0.5779
   16MOL   H17814608   3.901   2.501   3.164 -0.4306  0.0877  1.3028
   16MOL   H17914609   3.825   2.647   3.216  1.7254 -1.5782  1.8973
   16MOL   H18014610   3.792   2.715   2.968  1.3441  1.4545  1.2047
   16MOL   H18114611   3.861   2.565   2.922 -2.4129  1.7111 -1.1871
   16MOL   H18214612   4.026   2.755   2.907 -0.8360  2.2290 -0.3797
   16MOL   H18314613   3.970   2.814   3.062 -1.6162 -1.1685  1.8984
   16MOL   H18414614   4.186   2.753   3.093  0.1987 -0.8117  3.1759
   16MOL   H18514615   4.094   2.645   3.184  2.9972 -1.4002  0.9947
   16MOL   H18614616   4.109   2.487   2.982  0.2668  1.4360 -2.5824
   16MOL   H18714617   4.244   2.592   2.919 -1.3884  2.9153  0.2128
   16MOL   H18814618   4.249   2.474   3.187 -1.1942 -0.5987 -0.7485
   16MOL   H18914619   4.385   2.521   3.090  1.0241 -0.7105 -5.8460
   16MOL   H19014620   4.381   2.286   3.091 -0.0266 -0.9635  0.6185
   16MOL   H19114621   4.216   2.263   3.027 -0.7587  1.1092 -0.3589
   16MOL   H19214622   4.383   2.211   2.877  2.4123  0.8561 -1.3019
   16MOL   H19314623   4.459   2.369   2.901  0.0476 -0.3192  2.2282
   16MOL   N19414624   4.329   2.484   2.707 -0.5664 -0.1241  0.1086
   16MOL   C19514625   4.262   2.538   2.589 -0.1362  0.3862 -0.4241
   16MOL   C19614626   4.173   2.655   2.634  0.5834 -0.1989  0.5769
   16MOL   C19714627   4.033   2.647   2.610  0.0437 -0.0101 -0.6813
   16MOL   C19814628   3.959   2.763   2.639  0.6492 -0.2657 -0.3361
   16MOL   C19914629   4.013   2.887   2.681  0.1775  0.3642 -0.1665
   16MOL   C20014630   4.153   2.881   2.704  0.6345  0.2710  0.6576
   16MOL   C20114631   4.231   2.771   2.685  0.0916  0.0637  0.7323
   16MOL   C20214632   4.377   2.796   2.706  0.0787 -0.0862 -0.0907
   16MOL   N20314633   4.421   2.802   2.847  0.3663  0.4025 -0.3337
   16MOL   C20414634   4.503   2.725   2.917  0.3791  0.0875  0.0765
   16MOL   O20514635   4.559   2.626   2.877  0.0980  0.4448  0.5344
   16MOL   C20614636   4.529   2.778   3.059  0.3626  0.1256 -0.5137
   16MOL   C20714637   4.669   2.845   3.074  0.7118  0.1718 -0.7036
   16MOL   C20814638   4.695   2.877   3.222 -0.0212 -0.0039 -0.2724
   16MOL   C20914639   4.826   2.969   3.244 -0.4184  0.3507  0.3993
   16MOL   C21014640   4.854   3.004   3.386  0.3332 -0.1509  0.0140
   16MOL   C21114641   4.975   3.075   3.438 -0.0751 -0.2091 -0.1046
   16MOL   C21214642   4.957   3.118   3.590 -0.0337 -0.2730  0.3468
   16MOL   C21314643   5.084   3.185   3.642  0.2244 -0.4245  0.7735
   16MOL   C21414644   5.077   3.236   3.781 -0.4965 -0.5459 -0.0533
   16MOL   O21514645   4.991   3.316   3.811  0.8575 -0.9154  0.4663
   16MOL   H21614646   4.407   2.534   2.746  0.3598  0.2474 -2.1558
   16MOL   H21714647   4.334   2.569   2.512  1.9226  0.2421  1.3943
   16MOL   H21814648   4.204   2.462   2.537 -1.0441 -0.1545  1.3543
   16MOL   H21914649   3.985   2.562   2.563  1.0005 -0.3220 -1.1065
   16MOL   H22014650   3.856   2.762   2.606  0.6901 -0.5017 -0.4617
   16MOL   H22114651   3.953   2.977   2.686 -0.7933 -0.2962  0.0330
   16MOL   H22214652   4.200   2.972   2.740  0.6455 -0.9998  3.9816
   16MOL   H22314653   4.393   2.891   2.656 -3.1084  1.4804  1.7600
   16MOL   H22414654   4.441   2.728   2.649  2.4296  1.7269  0.2762
   16MOL   H22514655   4.401   2.892   2.889  1.9012  0.6441 -0.1066
   16MOL   H22614656   4.521   2.692   3.126  1.4091  0.6995  0.3695
   16MOL   H22714657   4.455   2.854   3.088 -1.4583 -1.2398 -1.5009
   16MOL   H22814658   4.749   2.782   3.037  1.0628  0.6831 -0.8215
   16MOL   H22914659   4.674   2.937   3.015 -0.7662  0.6930 -0.0484
   16MOL   H23014660   4.615   2.946   3.249 -1.2312 -1.4715 -0.0493
   16MOL   H23114661   4.703   2.786   3.280 -0.7273 -0.2952 -0.6227
   16MOL   H23214662   4.910   2.908   3.212  0.0834  0.5562  1.2909
   16MOL   H23314663   4.830   3.062   3.187  0.1485  0.1809  0.1580
   16MOL   H23414664   4.770   3.055   3.431  0.5959 -0.0128  0.3462
   16MOL   H23514665   4.856   2.909   3.439  1.0352 -0.2454 -0.1703
   16MOL   H23614666   4.998   3.158   3.372  0.6321  1.7707  2.5507
   16MOL   H23714667   5.059   3.006   3.439  0.8119  0.8445 -1.1594
   16MOL   H23814668   4.933   3.032   3.652 -0.5036 -0.0779  0.4395
   16MOL   H23914669   4.868   3.176   3.615 -0.0210  0.3350 -1.0060
   16MOL   H24014670   5.168   3.116   3.636  0.8098  0.4656 -2.7515
   16MOL   H24114671   5.109   3.261   3.568  0.2261  1.5680  2.7648
   16MOL   N24214672   5.185   3.211   3.850 -0.7728  0.2520 -0.9052
   16MOL   C24314673   5.203   3.274   3.978 -0.2493  0.8561 -0.2687
   16MOL   C24414674   5.274   3.177   4.071 -0.7866  0.7466  1.5405
   16MOL   C24514675   5.197   3.063   4.112  0.2888 -0.7682 -0.1945
   16MOL   C24614676   5.230   2.974   4.210 -0.0443  0.3660 -0.0744
   16MOL   C24714677   5.363   2.993   4.259  0.0381 -0.4311 -0.2680
   16MOL   C24814678   5.448   3.100   4.223  1.0567  0.0801  0.4615
   16MOL   C24914679   5.402   3.201   4.128  0.3739 -0.2956  0.2164
   16MOL   C25014680   5.499   3.316   4.093  0.2146 -0.6991  0.1129
   16MOL   N25114681   5.551   3.381   4.214  0.0963 -0.2294  1.0006
   16MOL   C25214682   5.498   3.489   4.283  0.4755 -0.1930  0.3757
   16MOL   O25314683   5.391   3.545   4.251 -0.1258 -0.0481 -0.0971
   16MOL   C25414684   5.571   3.513   4.422  0.2222 -1.0183 -0.4667
   16MOL   C25514685   5.472   3.534   4.539 -0.3462  0.1251 -0.6317
   16MOL   C25614686   5.424   3.676   4.540 -1.1442  0.2056  0.5509
   16MOL   C25714687   5.326   3.694   4.654  0.1937 -0.5731 -0.0235
   16MOL   C25814688   5.240   3.826   4.633  0.3920 -0.6437 -0.5585
   16MOL   C25914689   5.174   3.862   4.773 -0.3942 -0.1590  0.1426
   16MOL   C26014690   5.077   3.978   4.761  0.7854  0.3762 -0.1927
   16MOL   C26114691   5.006   4.022   4.892 -0.2893  0.3408  0.1607
   16MOL   C26214692   5.102   4.092   4.993 -0.4501  0.0309 -0.0229
   16MOL   O26314693   5.151   4.203   4.973  0.9740  0.9249 -0.5698
   16MOL   H26414694   5.253   3.143   3.818  1.3347  0.8867  2.0858
   16MOL   H26514695   5.266   3.362   3.976  1.9524 -0.6604  0.3220
   16MOL   H26614696   5.109   3.308   4.021 -0.9228 -0.2101 -0.8640
   16MOL   H26714697   5.112   3.031   4.052  1.4112 -0.7852 -1.8256
   16MOL   H26814698   5.176   2.881   4.219  1.7159 -0.4371  2.7073
   16MOL   H26914699   5.409   2.926   4.331  2.1083  1.3986  0.1771
   16MOL   H27014700   5.547   3.101   4.267 -0.0909  1.2370  3.1019
   16MOL   H27114701   5.466   3.395   4.025  0.3777 -0.3587  0.4258
   16MOL   H27214702   5.581   3.275   4.034  0.4521  0.7716 -0.6121
   16MOL   H27314703   5.632   3.338   4.257  1.9679  2.9409  0.7928
   16MOL   H27414704   5.626   3.605   4.403 -2.8412  0.9143 -0.2661
   16MOL   H27514705   5.647   3.437   4.442  1.3144 -0.3814 -2.0757
   16MOL   H27614706   5.514   3.503   4.635  2.2592  2.3372 -0.9909
   16MOL   H27714707   5.387   3.467   4.524 -1.8210  1.3868  1.7847
   16MOL   H27814708   5.380   3.693   4.442 -0.1732  0.8189  0.2113
   16MOL   H27914709   5.506   3.746   4.558 -0.4090 -1.1433  2.7038
   16MOL   H28014710   5.258   3.609   4.655  1.5352 -1.6483  0.9712
   16MOL   H28114711   5.369   3.696   4.754  0.6430 -0.3951 -0.2210
   16MOL   H28214712   5.292   3.910   4.586  2.2169 -0.7629  1.1821
   16MOL   H28314713   5.163   3.804   4.559 -0.6531  0.3292  0.2215
   16MOL   H28414714   5.255   3.884   4.843 -1.6341 -0.2952  1.6381
   16MOL   H28514715   5.127   3.771   4.810  1.8945 -0.9506  1.2374
   16MOL   H28614716   5.119   4.067   4.715 -0.3139  0.9141 -0.1626
   16MOL   H28714717   4.998   3.934   4.700  1.0093 -0.0292 -0.1932
   16MOL   H28814718   4.926   4.091   4.866 -1.8584 -2.3680 -2.5622
   16MOL   H28914719   4.952   3.933   4.925 -1.2294 -0.4787 -3.4206
   16MOL   N29014720   5.124   4.026   5.105  0.5452 -0.6371 -0.7881
   16MOL   C29114721   5.203   4.055   5.228  0.1576 -0.1689 -0.2574
   16MOL   C29214722   5.254   3.933   5.301 -0.1409 -0.0476 -0.0285
   16MOL   C29314723   5.189   3.806   5.281  0.4568 -0.5291  0.3574
   16MOL   C29414724   5.223   3.690   5.350  0.7338  0.3892 -0.0394
   16MOL   C29514725   5.322   3.694   5.446 -0.2576 -0.3756 -0.4579
   16MOL   C29614726   5.393   3.814   5.470 -0.4813 -0.5193  0.4203
   16MOL   C29714727   5.351   3.936   5.405 -0.1193 -0.3191 -0.3095
   16MOL   C29814728   5.416   4.071   5.443  0.0753  0.1991 -0.6740
   16MOL   N29914729   5.346   4.138   5.554  0.2379 -0.3306  0.1971
   16MOL   C30014730   5.355   4.272   5.575  0.3907 -0.5199  0.5734
   16MOL   O30114731   5.425   4.347   5.503  0.5449 -0.0307  0.0516
   16MOL   C30214732   5.265   4.336   5.687  0.1269  0.6042  0.4045
   16MOL   C30314733   5.357   4.416   5.784 -0.4407  0.1304  0.3239
   16MOL   C30414734   5.302   4.524   5.879  0.1033 -0.1436  0.2519
   16MOL   C30514735   5.213   4.465   5.990  0.2002 -0.2425 -0.0980
   16MOL   C30614736   5.144   4.582   6.058 -0.5810  0.0282  0.3873
   16MOL   C30714737   5.052   4.534   6.173  0.2095 -0.7009  0.0990
   16MOL   C30814738   4.963   4.643   6.235 -0.6329 -0.5763 -0.3150
   16MOL   C30914739   5.030   4.730   6.351 -0.7618  0.1133  0.6129
   16MOL   C31014740   5.042   4.644   6.478 -0.3236  0.5215  0.3067
   16MOL   O31114741   4.940   4.592   6.523  0.3674 -0.0612  0.0637
   16MOL   H31214742   5.083   3.935   5.119  0.4493 -0.2992  1.3180
   16MOL   H31314743   5.278   4.132   5.206  1.5889 -1.4645 -0.0179
   16MOL   H31414744   5.146   4.100   5.309  1.0929  0.5759 -0.0044
   16MOL   H31514745   5.117   3.784   5.204  2.3688  0.2712 -1.7408
   16MOL   H31614746   5.170   3.600   5.323 -0.3097  1.0207 -0.1194
   16MOL   H31714747   5.353   3.612   5.509 -1.6390 -0.1342  0.5659
   16MOL   H31814748   5.477   3.814   5.538  1.2019  0.8965 -1.6103
   16MOL   H31914749   5.432   4.131   5.353 -1.0113  1.2208 -0.1909
   16MOL   H32014750   5.507   4.043   5.494  1.3261  0.6553 -2.6057
   16MOL   H32114751   5.263   4.096   5.593  0.9421 -0.5977  1.4208
   16MOL   H32214752   5.205   4.412   5.638  1.4105  2.0317  1.0295
   16MOL   H32314753   5.207   4.258   5.737  3.1986 -3.1989 -1.6125
   16MOL   H32414754   5.441   4.458   5.729  0.3516 -0.7331  0.8673
   16MOL   H32514755   5.412   4.344   5.844 -0.0948  1.9536  2.2750
   16MOL   H32614756   5.233   4.589   5.826  0.5453 -1.5501 -2.1187
   16MOL   H32714757   5.371   4.600   5.917  0.6084 -0.9941  1.0741
   16MOL   H32814758   5.140   4.392   5.953 -0.5194  1.0725 -1.2946
   16MOL   H32914759   5.278   4.419   6.065 -0.1781 -2.6182 -1.1752
   16MOL   H33014760   5.220   4.649   6.100 -1.2939  0.9420  0.2486
   16MOL   H33114761   5.090   4.638   5.981  1.0349  2.4592  0.9331
   16MOL   H33214762   5.115   4.485   6.247  1.8233 -0.2919 -0.9655
   16MOL   H33314763   4.979   4.465   6.130 -1.9622 -0.8021  3.7547
   16MOL   H33414764   4.936   4.714   6.157  2.7448  0.2452 -0.8078
   16MOL   H33514765   4.869   4.602   6.272 -0.6665 -0.1007  0.1339
   16MOL   H33614766   5.125   4.769   6.315 -0.6343 -0.3575  0.4377
   16MOL   H33714767   4.965   4.815   6.374 -0.2708  0.7744 -0.3981
   16MOL   N33814768   5.164   4.625   6.534 -0.4633 -0.1528  0.4053
   16MOL   C33914769   5.195   4.523   6.636  0.2973  0.2818 -0.3300
   16MOL   C34014770   5.336   4.516   6.687  0.6388  0.0447 -0.2222
   16MOL   C34114771   5.418   4.632   6.675 -0.2861  0.2625 -0.5822
   16MOL   C34214772   5.554   4.627   6.726 -0.3045 -0.7890  0.1742
   16MOL   C34314773   5.602   4.511   6.791  0.3721 -0.1370  0.5817
   16MOL   C34414774   5.518   4.402   6.812  0.0298 -0.3964  0.1224
   16MOL   C34514775   5.388   4.404   6.757 -0.5438 -0.3471 -0.5332
   16MOL   C34614776   5.301   4.276   6.777  0.1532  0.0060 -0.3777
   16MOL   N34714777   5.376   4.157   6.815 -0.6377  0.5870  0.0368
   16MOL   C34814778   5.369   4.099   6.931  0.2299  0.3697  0.1997
   16MOL   O34914779   5.317   4.149   7.028 -0.0762  0.3894 -0.6348
   16MOL   C35014780   5.438   3.959   6.933  0.4244  0.2062  0.1043
   16MOL   C35114781   5.462   3.910   7.076  0.3949 -0.2016  0.1000
   16MOL   C35214782   5.586   3.976   7.157 -0.1669 -0.2477  0.2788
   16MOL   C35314783   5.725   3.969   7.092 -0.4597  0.0262  0.3964
   16MOL   C35414784   5.815   4.082   7.141 -0.2080  0.1319 -0.2183
   16MOL   C35514785   5.794   4.221   7.097  0.1233 -0.4950  0.1116
   16MOL   C35614786   5.844   4.318   7.198  0.7463  0.0941 -0.4241
   16MOL   C35714787   5.875   4.463   7.146 -0.2723 -0.6966 -0.4648
   16MOL   C35814788   5.979   4.495   7.034 -0.4152 -0.1702  0.5775
   16MOL   O35914789   6.089   4.439   7.019 -0.7665 -0.2658  0.5307
   16MOL   H36014790   5.245   4.670   6.494 -0.7659  0.7169  0.7615
   16MOL   H36114791   5.119   4.533   6.713 -0.7096 -0.5280 -1.1928
   16MOL   H36214792   5.179   4.431   6.579  2.5112  0.9859 -2.1860
   16MOL   H36314793   5.387   4.726   6.633 -1.7086 -0.1082 -0.3719
   16MOL   H36414794   5.624   4.706   6.704 -1.9262  0.3250 -1.1956
   16MOL   H36514795   5.707   4.505   6.816  0.4107  0.6493  0.6191
   16MOL   H36614796   5.555   4.305   6.843  0.6347 -0.5398 -0.9835
   16MOL   H36714797   5.257   4.235   6.685  1.2127 -0.7116 -0.5656
   16MOL   H36814798   5.221   4.296   6.848  0.5283  0.2557 -0.0258
   16MOL   H36914799   5.441   4.119   6.748 -2.0920  1.4612 -1.9181
   16MOL   H37014800   5.531   3.953   6.877 -0.1910 -1.0294 -0.8034
   16MOL   H37114801   5.373   3.892   6.876  2.5998 -1.3770 -0.5460
   16MOL   H37214802   5.487   3.804   7.076  1.6292  0.0788  1.4026
   16MOL   H37314803   5.372   3.918   7.137  0.2632 -3.7992  0.5078
   16MOL   H37414804   5.548   4.078   7.156 -0.3182 -0.2743 -2.8860
   16MOL   H37514805   5.598   3.949   7.262 -1.9525  3.2966  1.4523
   16MOL   H37614806   5.725   3.956   6.984 -0.6707 -2.6400  0.6764
   16MOL   H37714807   5.780   3.882   7.127 -0.6192 -0.0966  0.3385
   16MOL   H37814808   5.810   4.077   7.250 -1.4259 -0.8501 -0.2936
   16MOL   H37914809   5.919   4.058   7.121  0.4929 -1.0274  4.1085
   16MOL   H38014810   5.688   4.242   7.081  0.8031  3.1466 -0.1541
   16MOL   H38114811   5.850   4.234   7.004 -0.2902 -0.2499 -0.1021
   16MOL   H38214812   5.767   4.316   7.275 -0.4398 -0.6158 -1.6164
   16MOL   H38314813   5.939   4.280   7.235 -0.2779 -1.6346  0.4855
   16MOL   H38414814   5.900   4.526   7.232  1.7064 -0.2902 -1.2950
   16MOL   H38514815   5.780   4.502   7.111  1.3147  3.3090 -0.6474
   16MOL   N38614816   5.954   4.598   6.953 -0.6115 -0.5234 -0.2170
   16MOL   C38714817   6.041   4.666   6.857 -0.0430  0.6823  0.9251
   16MOL   C38814818   5.963   4.694   6.730  0.1765 -0.1416  0.4255
   16MOL   C38914819   5.960   4.600   6.620  0.2458  0.7005 -0.1814
   16MOL   C39014820   5.900   4.642   6.499  0.0366 -0.3357 -0.8126
   16MOL   C39114821   5.831   4.761   6.483 -0.4110  0.1279  0.4162
   16MOL   C39214822   5.826   4.847   6.591 -0.2555 -0.3815  0.8608
   16MOL   C39314823   5.890   4.816   6.715  0.0750  0.0397 -0.3792
   16MOL   C39414824   5.863   4.913   6.832 -0.5962 -0.0380  0.0853
   16MOL   N39514825   5.721   4.915   6.871 -0.1187  0.3835 -0.8423
   16MOL   C39614826   5.676   4.857   6.985 -0.2819  0.0095  0.4113
   16MOL   O39714827   5.743   4.795   7.068  0.9611  0.0993 -0.4763
   16MOL   C39814828   5.529   4.883   7.009  0.4335 -0.0030 -0.1265
   16MOL   C39914829   5.468   4.784   7.110  0.0180  0.3331  0.2051
   16MOL   C40014830   5.466   4.642   7.064  0.0550 -0.0640  0.6411
   16MOL   C40114831   5.384   4.544   7.148  0.0429 -0.3756 -0.2560
   16MOL   C40214832   5.231   4.576   7.160 -0.1583  0.4374  0.2943
   16MOL   C40314833   5.159   4.538   7.033 -0.0206  0.4784 -0.9003
   16MOL   C40414834   5.006   4.557   7.039 -0.3714 -0.2281 -0.0025
   16MOL   C40514835   4.932   4.481   7.153 -0.2494  0.3413  0.8147
   16MOL   C40614836   4.782   4.489   7.140 -0.4676 -0.0848  0.1217
   16MOL   O40714837   4.738   4.596   7.113 -0.7261 -0.0638  0.2133
   16MOL   H40814838   5.870   4.645   6.985  0.8951  2.7242 -0.8353
   16MOL   H40914839   6.078   4.762   6.891  1.3566 -0.1022  1.6605
   16MOL   H41014840   6.136   4.616   6.837 -0.6020 -0.2717  0.6368
   16MOL   H41114841   6.012   4.506   6.620 -1.2894 -0.1643 -0.1174
   16MOL   H41214842   5.903   4.584   6.407 -2.2007 -2.2769  0.2994
   16MOL   H41314843   5.778   4.789   6.394  2.6107  0.0947 -1.4545
   16MOL   H41414844   5.767   4.936   6.574  0.2415 -0.1400  0.3848
   16MOL   H41514845   5.890   5.008   6.786 -0.8484  0.7955  1.6503
   16MOL   H41614846   5.930   4.890   6.915  0.3038 -1.0825 -0.9049
   16MOL   H41714847   5.646   4.934   6.806  1.2280  2.0355 -1.9432
   16MOL   H41814848   5.521   4.985   7.046 -0.8071  0.4682 -1.6365
   16MOL   H41914849   5.476   4.868   6.915 -2.4590  1.0509  1.2632
   16MOL   H42014850   5.367   4.823   7.124 -0.5184 -0.9508  0.0382
   16MOL   H42114851   5.518   4.794   7.206 -3.2437 -2.1132  2.2418
   16MOL   H42214852   5.565   4.596   7.058 -0.0406 -0.2998  0.8744
   16MOL   H42314853   5.444   4.648   6.957  0.9856  1.2479  0.5019
   16MOL   H42414854   5.393   4.444   7.105  0.4575 -0.1663 -0.6625
   16MOL   H42514855   5.427   4.535   7.248  2.3529  0.3583 -1.1371
   16MOL   H42614856   5.191   4.513   7.239 -2.4466  0.5960 -0.6789
   16MOL   H42714857   5.210   4.680   7.187 -0.3512  0.5347 -0.2154
   16MOL   H42814858   5.181   4.436   7.002 -0.2881  0.5241 -1.2417
   16MOL   H42914859   5.192   4.602   6.951  1.0945  0.5349 -0.4088
   16MOL   H43014860   4.965   4.529   6.942 -0.6253 -1.8817  0.5694
   16MOL   H43114861   4.998   4.666   7.045  0.8419 -0.0772 -0.9166
   16MOL   H43214862   4.953   4.523   7.251  0.1410  1.1458  0.3942
   16MOL   H43314863   4.974   4.381   7.146 -1.4115 -0.2022  1.5446
   16MOL   N43414864   4.717   4.376   7.166  0.4135  0.1186 -0.0331
   16MOL   C43514865   4.573   4.356   7.153  0.1456  0.1572  0.0881
   16MOL   C43614866   4.521   4.293   7.279  0.5193 -0.2105 -0.8496
   16MOL   C43714867   4.508   4.154   7.278  0.6870  0.7846 -0.5660
   16MOL   C43814868   4.447   4.086   7.387 -0.4244 -0.0791  0.5023
   16MOL   C43914869   4.403   4.159   7.499  0.4989 -0.5706 -0.1344
   16MOL   C44014870   4.410   4.303   7.504  0.2258 -0.1977  0.5173
   16MOL   C44114871   4.464   4.369   7.391  0.2544 -0.1646  0.0547
   16MOL   C44214872   4.462   4.525   7.382  0.2102 -0.3149 -0.4585
   16MOL   N44314873   4.593   4.583   7.375  0.2198 -0.3501 -0.0034
   16MOL   C44414874   4.640   4.685   7.456  0.4760  0.2483  0.5329
   16MOL   O44514875   4.579   4.731   7.554  0.2973 -0.4602 -0.3952
   16MOL   C44614876   4.782   4.738   7.413 -0.0666  0.9432 -0.5534
   16MOL   C44714877   4.804   4.888   7.418 -0.3011 -0.1450 -0.0954
   16MOL   C44814878   4.709   4.962   7.323  0.4715 -0.5760 -0.5594
   16MOL   C44914879   4.738   5.110   7.309  0.6792 -0.4856  0.5744
   16MOL   C45014880   4.706   5.188   7.440 -0.0353 -0.4293 -0.7088
   16MOL   C45114881   4.746   5.339   7.428 -0.0706  0.2361 -0.3914
   16MOL   C45214882   4.687   5.434   7.533 -0.1169  0.4255  0.4335
   16MOL   C45314883   4.748   5.409   7.673  0.4175 -0.3191 -0.0111
   16MOL   C45414884   4.691   5.499   7.783 -0.6875  0.0518  0.4267
   16MOL   O45514885   4.631   5.594   7.758 -0.3758 -0.2012 -0.1141
   16MOL   H45614886   4.771   4.292   7.184  1.4024  0.8602  0.4698
   16MOL   H45714887   4.552   4.303   7.060 -0.6901  1.4368 -0.4680
   16MOL   H45814888   4.531   4.455   7.135  0.3635 -0.0008 -1.3722
   16MOL   H45914889   4.538   4.108   7.185  1.5076 -0.5203  0.3232
   16MOL   H46014890   4.436   3.979   7.385 -0.6471 -0.0647  0.8675
   16MOL   H46114891   4.371   4.112   7.591  0.0273 -0.4892 -0.2552
   16MOL   H46214892   4.359   4.349   7.586  0.1947  0.9536 -0.1427
   16MOL   H46314893   4.413   4.575   7.466 -2.5481  1.3956 -2.9586
   16MOL   H46414894   4.404   4.559   7.297  2.5405  1.0587 -1.5447
   16MOL   H46514895   4.648   4.567   7.292  1.0783 -1.9036  0.8384
   16MOL   H46614896   4.810   4.709   7.311 -2.7851 -1.4170 -0.7079
   16MOL   H46714897   4.861   4.697   7.476  0.5722 -0.0888 -1.9835
   16MOL   H46814898   4.910   4.905   7.398 -0.4358  0.5334 -0.2170
   16MOL   H46914899   4.781   4.924   7.518 -0.4149 -0.8527  0.1370
   16MOL   H47014900   4.711   4.918   7.224 -0.8109  0.8905 -1.2734
   16MOL   H47114901   4.605   4.947   7.353  0.5717  0.2488  0.2520
   16MOL   H47214902   4.839   5.118   7.271  1.0048 -1.1180  1.2866
   16MOL   H47314903   4.673   5.145   7.229 -0.6561 -0.7504  1.5211
   16MOL   H47414904   4.599   5.186   7.460  0.6410  2.3166  3.8877
   16MOL   H47514905   4.759   5.140   7.522 -2.8461 -1.8154  0.3826
   16MOL   H47614906   4.717   5.384   7.333  2.1434  2.2964 -0.1494
   16MOL   H47714907   4.854   5.349   7.420 -0.0621  1.8750  1.4160
   16MOL   H47814908   4.715   5.534   7.502 -0.2161  0.8778  1.7920
   16MOL   H47914909   4.578   5.439   7.532 -0.2371 -1.6757 -1.5245
   16MOL   H48014910   4.719   5.308   7.703  0.0630 -0.4680 -0.8400
   16MOL   H48114911   4.854   5.433   7.659 -0.2045  1.8253 -1.2540
   16MOL   N48214912   4.735   5.466   0.114  0.7623  0.2700 -0.1601
   16MOL   C48314913   4.709   5.540   0.235 -0.3150  0.5628  0.2270
   16MOL   C48414914   4.739   5.468   0.367  1.2801  0.4288 -0.2317
   16MOL   C48514915   4.834   5.366   0.374 -0.0773  0.0409 -0.1301
   16MOL   C48614916   4.865   5.294   0.489 -0.4514 -0.8283 -0.8441
   16MOL   C48714917   4.787   5.316   0.601 -0.0252 -0.2930 -0.3471
   16MOL   C48814918   4.695   5.421   0.605  0.2762  0.9891  0.1594
   16MOL   C48914919   4.675   5.502   0.493 -0.0671 -0.3048  0.1667
   16MOL   C49014920   4.586   5.628   0.508  0.6159 -0.4486 -0.8117
   16MOL   N49114921   4.625   5.706   0.624  0.0124 -0.8448 -0.3443
   16MOL   C49214922   4.545   5.780   0.709 -0.1968  0.4590  0.5135
   16MOL   O49314923   4.429   5.809   0.674  0.1435 -0.0058 -0.3606
   16MOL   C49414924   4.596   5.831   0.846  0.3336 -0.1089  0.4489
   16MOL   C49514925   4.492   5.806   0.953  0.1580 -0.0941 -0.3724
   16MOL   C49614926   4.391   5.927   0.964  0.0277 -0.0204  0.4130
   16MOL   C49714927   4.276   5.902   1.064  0.0133  0.1554 -0.1044
   16MOL   C49814928   4.209   6.034   1.100  0.4612  0.0540  0.0587
   16MOL   C49914929   4.106   6.032   1.211  0.9025 -0.5459 -0.2168
   16MOL   C50014930   3.967   6.035   1.162  0.4256 -0.6043 -0.2644
   16MOL   C50114931   3.917   5.914   1.091  0.0005 -0.7156  0.1906
   16MOL   C50214932   3.775   5.928   1.043 -0.2022  1.1927  0.4853
   16MOL   O50314933   3.723   6.028   0.993 -0.2500  0.4122  0.3831
   16MOL   H50414934   4.800   5.389   0.122 -0.4129 -0.5125  2.2370
   16MOL   H50514935   4.742   5.644   0.237  0.7937  0.2237  0.1426
   16MOL   H50614936   4.601   5.535   0.242 -0.5013  1.5503 -1.6240
   16MOL   H50714937   4.893   5.345   0.285 -1.8404  1.7931 -1.7603
   16MOL   H50814938   4.951   5.230   0.492 -1.3616 -2.0117  0.3527
   16MOL   H50914939   4.795   5.258   0.692 -0.6371 -0.0256 -0.1208
   16MOL   H51014940   4.639   5.443   0.695 -2.7068 -2.4008 -0.7428
   16MOL   H51114941   4.488   5.582   0.516  0.9101 -1.1224 -0.9864
   16MOL   H51214942   4.578   5.696   0.423 -0.7347  0.0141 -0.3242
   16MOL   H51314943   4.719   5.686   0.655  0.6371  1.1595 -0.8869
   16MOL   H51414944   4.646   5.928   0.851 -1.2677  0.7479  0.0908
   16MOL   H51514945   4.676   5.764   0.877  1.2766  1.2120  0.9128
   16MOL   H51614946   4.535   5.768   1.046  1.7933  2.3990 -0.0391
   16MOL   H51714947   4.444   5.713   0.925 -1.2842  1.1457 -2.1188
   16MOL   H51814948   4.445   6.018   0.991  1.2097 -0.8802  0.9933
   16MOL   H51914949   4.348   5.961   0.870 -1.2774  1.7523  1.6252
   16MOL   H52014950   4.201   5.837   1.018  0.5531  0.4153 -1.3815
   16MOL   H52114951   4.306   5.858   1.159 -0.0141  0.1041 -0.1198
   16MOL   H52214952   4.286   6.097   1.144 -1.1488  2.4261 -0.4071
   16MOL   H52314953   4.175   6.086   1.011  0.4393  0.4094  0.2717
   16MOL   H52414954   4.121   6.118   1.276  1.1151 -0.2953 -0.5926
   16MOL   H52514955   4.126   5.954   1.283 -1.3009 -1.1196 -0.1722
   16MOL   H52614956   3.890   6.065   1.233 -1.1807 -0.1273 -2.1615
   16MOL   H52714957   3.958   6.117   1.091 -0.7929 -0.2806  0.2426
   16MOL   H52814958   3.923   5.821   1.147  0.4440 -0.5683  0.3915
   16MOL   H52914959   3.985   5.895   1.008 -0.7716 -1.6414 -0.2230
   16MOL   N53014960   3.703   5.817   1.048 -0.0447 -0.1610 -0.3754
   16MOL   C53114961   3.561   5.800   1.021  0.1562 -0.2867 -0.3479
   16MOL   C53214962   3.525   5.806   0.872  0.1116 -0.0360 -0.0957
   16MOL   C53314963   3.608   5.723   0.793 -0.2640 -0.6068  0.2088
   16MOL   C53414964   3.587   5.718   0.652  0.0669 -0.3299 -0.7920
   16MOL   C53514965   3.479   5.786   0.597  0.7561 -0.2367  0.3178
   16MOL   C53614966   3.398   5.872   0.681  0.1919 -0.0550 -0.2283
   16MOL   C53714967   3.426   5.889   0.815 -0.2653  0.1455  0.2990
   16MOL   C53814968   3.351   5.987   0.908  0.5768  0.8201 -0.2792
   16MOL   N53914969   3.445   6.087   0.962 -0.7223 -0.5472  0.4009
   16MOL   C54014970   3.404   6.175   1.046 -0.1905 -0.2901 -1.4598
   16MOL   O54114971   3.283   6.188   1.081 -0.3128  0.0927  0.1349
   16MOL   C54214972   3.509   6.270   1.112  0.0421  0.1714 -0.2939
   16MOL   C54314973   3.479   6.297   1.264 -0.2544  0.1836 -0.0880
   16MOL   C54414974   3.520   6.174   1.336  0.4936  0.0054 -0.5181
   16MOL   C54514975   3.482   6.182   1.481 -0.3116  0.6943 -0.3446
   16MOL   C54614976   3.553   6.074   1.564  0.0575 -0.2957 -0.2013
   16MOL   C54714977   3.686   6.121   1.635 -0.2272  0.0585  0.1606
   16MOL   C54814978   3.805   6.152   1.544  0.5520  0.3883 -0.0306
   16MOL   C54914979   3.835   6.297   1.501  0.5827 -0.6795  0.0755
   16MOL   C55014980   3.869   6.382   1.623 -0.6177  0.3295 -0.2837
   16MOL   O55114981   3.963   6.345   1.690  0.0415 -1.4683 -0.1551
   16MOL   H55214982   3.751   5.731   1.074 -1.5417  0.2027  4.1089
   16MOL   H55314983   3.508   5.880   1.072 -0.2999 -1.6262  1.3323
   16MOL   H55414984   3.534   5.702   1.061  0.7009  0.1151  1.0431
   16MOL   H55514985   3.680   5.657   0.838  0.5624  0.3353  0.2810
   16MOL   H55614986   3.652   5.657   0.592  1.7465 -3.3997  3.8617
   16MOL   H55714987   3.450   5.769   0.494 -1.9927 -0.5444  1.0899
   16MOL   H55814988   3.308   5.919   0.647 -0.0848 -0.8227 -0.5695
   16MOL   H55914989   3.281   5.932   0.971  0.8661 -1.4121 -1.8671
   16MOL   H56014990   3.284   6.036   0.837 -2.2023 -2.3286  0.0508
   16MOL   H56114991   3.540   6.086   0.926 -1.3351  0.1276 -1.3019
   16MOL   H56214992   3.502   6.352   1.041  0.0913 -0.1575 -0.6810
   16MOL   H56314993   3.611   6.232   1.098 -0.3676 -1.1229  0.1163
   16MOL   H56414994   3.371   6.303   1.280 -0.0637 -0.7812  1.7008
   16MOL   H56514995   3.522   6.394   1.289 -0.4690 -0.3500  2.4674
   16MOL   H56614996   3.463   6.094   1.289  0.4695 -0.5374  0.4261
   16MOL   H56714997   3.625   6.154   1.319  0.7072 -0.1536  0.9381
   16MOL   H56814998   3.516   6.277   1.523 -0.6386  0.7040 -0.1000
   16MOL   H56914999   3.375   6.168   1.496  0.2005 -2.2202  0.8873
   16MOL   H57015000   3.494   6.044   1.651  1.6398 -1.8962  0.3518
   16MOL   H57115001   3.576   5.988   1.500  0.6689  2.1822 -3.4404
   16MOL   H57215002   3.712   6.041   1.703  1.0729 -0.6001 -1.1020
   16MOL   H57315003   3.677   6.211   1.696  4.4457  0.7476  0.0234
   16MOL   H57415004   3.895   6.123   1.599  0.5702  0.6992  0.1042
   16MOL   H57515005   3.811   6.083   1.460 -2.5115  0.8685 -0.6716
   16MOL   H57615006   3.753   6.342   1.445  1.3699 -0.8989 -1.2730
   16MOL   H57715007   3.918   6.296   1.429 -0.4660 -0.9608 -1.1417
   16MOL   N57815008   3.800   6.495   1.643  0.2422  0.0841 -0.0570
   16MOL   C57915009   3.811   6.588   1.758  0.2618 -0.1887 -0.0190
   16MOL   C58015010   3.711   6.548   1.868  0.0743  0.0674 -0.1609
   16MOL   C58115011   3.576   6.570   1.840  0.3934  0.1395 -0.2725
   16MOL   C58215012   3.480   6.550   1.941 -0.8063  0.3960  0.0242
   16MOL   C58315013   3.524   6.509   2.071 -0.3133 -0.0776 -0.4697
   16MOL   C58415014   3.651   6.478   2.098 -0.2161  0.6145 -0.4049
   16MOL   C58515015   3.747   6.491   1.994  0.1016  0.2716 -0.3654
   16MOL   C58615016   3.893   6.464   2.029  0.1352 -0.3684 -0.3545
   16MOL   N58715017   3.970   6.574   2.074  0.0947 -0.3116  0.1570
   16MOL   C58815018   4.099   6.563   2.106 -0.5037  0.3479  0.0437
   16MOL   O58915019   4.169   6.461   2.099  0.3836 -0.2619  0.3848
   16MOL   C59015020   4.163   6.694   2.147  0.8580  0.0289  0.2846
   16MOL   C59115021   4.277   6.674   2.253 -1.2079 -0.4509 -0.2952
   16MOL   C59215022   4.336   6.811   2.309  0.5878 -0.2259  0.1550
   16MOL   C59315023   4.383   6.903   2.186  0.1044  0.4028 -0.4860
   16MOL   C59415024   4.414   7.047   2.231  0.1352 -0.2529 -0.2465
   16MOL   C59515025   4.458   7.140   2.119  0.2278 -0.8755  0.0335
   16MOL   C59615026   4.505   7.283   2.158 -0.8657 -0.2907 -0.1306
   16MOL   C59715027   4.407   7.379   2.232 -0.0787  0.2913  0.3568
   16MOL   C59815028   4.313   7.459   2.135  0.2991  0.5849 -0.2367
   16MOL   O59915029   4.238   7.391   2.058 -0.1282 -0.4101  0.4583
   16MOL   H60015030   3.736   6.526   1.571 -1.1713  0.6713  1.3944
   16MOL   H60115031   3.792   6.693   1.735  0.4828  0.0948  1.0577
   16MOL   H60215032   3.914   6.592   1.793  0.7240 -0.6451 -1.3055
   16MOL   H60315033   3.527   6.602   1.749  1.7699 -0.0613 -1.0923
   16MOL   H60415034   3.374   6.560   1.922 -0.8843  0.9561  0.7577
   16MOL   H60515035   3.452   6.502   2.151  3.2899 -0.8744  2.8178
   16MOL   H60615036   3.688   6.461   2.199 -0.0374 -1.5636 -0.8102
   16MOL   H60715037   3.930   6.409   1.942  0.0005 -1.9899  0.5882
   16MOL   H60815038   3.894   6.399   2.117  0.3208 -0.2233 -0.2487
   16MOL   H60915039   3.917   6.658   2.092 -1.0778 -0.7644 -1.0711
   16MOL   H61015040   4.094   6.772   2.179 -0.5992 -1.6504  1.3277
   16MOL   H61115041   4.212   6.738   2.060  0.0311 -0.1023 -0.2529
   16MOL   H61215042   4.357   6.621   2.202 -0.7339 -1.6070  1.5795
   16MOL   H61315043   4.244   6.617   2.340 -0.5795  0.6643  0.6865
   16MOL   H61415044   4.250   6.861   2.355  0.7234 -1.8001  2.2037
   16MOL   H61515045   4.406   6.803   2.392 -1.8133 -1.4614  2.1629
   16MOL   H61615046   4.473   6.864   2.140  0.9994 -0.0488  1.6355
   16MOL   H61715047   4.310   6.911   2.104  1.5435 -0.4807 -1.8900
   16MOL   H61815048   4.328   7.092   2.280 -0.1055  0.8563 -1.6670
   16MOL   H61915049   4.486   7.044   2.314  0.4623  0.4773 -0.4981
   16MOL   H62015050   4.378   7.142   2.046 -0.6781  0.3171  1.0403
   16MOL   H62115051   4.541   7.090   2.069 -0.8326 -1.0606 -1.5559
   16MOL   H62215052   4.599   7.269   2.211 -1.8845 -0.2753  1.7237
   16MOL   H62315053   4.549   7.331   2.071  0.0978 -1.3661 -0.2442
   16MOL   H62415054   4.344   7.326   2.304 -1.5205  0.6437 -0.6320
   16MOL   H62515055   4.462   7.448   2.296  0.1154 -0.6602  1.2162
   16MOL   N62615056   4.316   7.588   2.140  0.3687 -0.3921 -0.1437
   16MOL   C62715057   4.244   7.675   2.052 -0.4687 -0.4729  0.0642
   16MOL   C62815058   4.329   7.726   1.940  0.0147  0.0474 -0.3235
   16MOL   C62915059   4.365   7.635   1.834 -0.4335 -0.0301  0.2554
   16MOL   C63015060   4.455   7.667   1.735  0.1865 -0.2203 -0.1343
   16MOL   C63115061   4.490   0.016   1.724  0.3168  0.0755  0.2408
   16MOL   C63215062   4.453   0.107   1.824 -0.3576 -0.1458  0.3868
   16MOL   C63315063   4.372   0.070   1.929  0.8303  0.1092 -0.1192
   16MOL   C63415064   4.331   0.167   2.041  0.7107 -0.8209  0.5367
   16MOL   N63515065   4.374   0.310   2.020  0.6856  0.5418 -0.0868
   16MOL   C63615066   4.313   0.392   1.933 -0.3877  0.1164 -0.0010
   16MOL   O63715067   4.224   0.354   1.854  0.0338  0.2905 -0.4053
   16MOL   C63815068   4.359   0.539   1.922 -0.8984  0.2081  0.3806
   16MOL   C63915069   4.387   0.583   1.772 -0.5032  0.3061 -0.1037
   16MOL   C64015070   4.398   0.734   1.758  0.1567  0.0886 -0.1148
   16MOL   C64115071   4.446   0.781   1.618 -0.4819 -0.0128  1.4499
   16MOL   C64215072   4.350   0.735   1.506 -0.1581  0.9463  0.4508
   16MOL   C64315073   4.405   0.762   1.367 -0.8708  0.9576 -0.3995
   16MOL   C64415074   4.331   0.691   1.257 -0.3575  0.3736 -0.0698
   16MOL   C64515075   4.361   0.747   1.116  0.4568  0.6008  0.2934
   16MOL   C64615076   4.295   0.673   0.999 -0.3789  0.3001  0.4043
   16MOL   O64715077   4.278   0.551   1.012  0.2793 -0.2530  0.2200
   16MOL   H64815078   4.378   7.636   2.204  0.5456  2.3525 -2.2832
   16MOL   H64915079   4.211   7.750   2.124  1.5848 -0.4938  1.0665
   16MOL   H65015080   4.148   7.639   2.017 -0.4207 -0.1513 -0.4091
   16MOL   H65115081   4.330   7.533   1.839 -1.0839  0.2630  2.0461
   16MOL   H65215082   4.491   7.599   1.658  0.7793 -0.1923  0.1185
   16MOL   H65315083   4.553   0.048   1.643  1.2052 -0.6971  0.6157
   16MOL   H65415084   4.494   0.207   1.816  0.7883 -0.6871 -0.6367
   16MOL   H65515085   4.362   0.114   2.131  3.1398  2.5012  1.7426
   16MOL   H65615086   4.222   0.165   2.045  0.6519 -0.0516 -0.5009
   16MOL   H65715087   4.448   0.345   2.079 -0.1720  0.1387  1.2568
   16MOL   H65815088   4.435   0.571   1.994 -0.5048 -1.9115  0.9309
   16MOL   H65915089   4.270   0.597   1.947 -1.0502  1.1721 -2.2077
   16MOL   H66015090   4.311   0.541   1.707 -0.0802 -0.7720  0.1010
   16MOL   H66115091   4.486   0.542   1.752  0.3112  1.8910  0.5956
   16MOL   H66215092   4.301   0.778   1.779 -0.3421 -1.4112  0.8388
   16MOL   H66315093   4.456   0.777   1.841  0.8586 -0.2779 -0.4069
   16MOL   H66415094   4.456   0.889   1.619 -0.3455 -0.0063  0.3512
   16MOL   H66515095   4.546   0.739   1.606 -0.8826 -0.6821  0.3592
   16MOL   H66615096   4.310   0.633   1.509 -1.8137  1.5027 -2.0150
   16MOL   H66715097   4.261   0.798   1.504 -1.7582 -1.2526  0.2970
   16MOL   H66815098   4.504   0.718   1.360 -0.1230  2.1290  2.3797
   16MOL   H66915099   4.413   0.869   1.350  2.5968  0.6071 -1.2113
   16MOL   H67015100   4.343   0.582   1.259 -3.5983 -0.2005 -3.9107
   16MOL   H67115101   4.225   0.717   1.265 -0.1533  1.0893  0.2709
   16MOL   H67215102   4.468   0.727   1.105  0.5930  0.2780  2.0313
   16MOL   H67315103   4.334   0.853   1.116  0.4866  0.6687 -3.3938
   16MOL   N67415104   4.258   0.741   0.891 -0.4494 -0.2897 -0.5075
   16MOL   C67515105   4.209   0.680   0.765  0.3053  0.7658 -0.3397
   16MOL   C67615106   4.062   0.700   0.730  0.3694 -0.1186 -0.3917
   16MOL   C67715107   3.964   0.655   0.819  0.1237 -0.0609 -0.0051
   16MOL   C67815108   3.826   0.679   0.805  0.1130  0.1851 -0.4833
   16MOL   C67915109   3.781   0.737   0.681  0.8178  0.3057 -0.3105
   16MOL   C68015110   3.884   0.782   0.591  0.1915 -1.0081 -0.0999
   16MOL   C68115111   4.022   0.767   0.614  0.0113  0.2297 -0.0415
   16MOL   C68215112   4.125   0.824   0.514  0.5708 -0.1950 -0.0268
   16MOL   N68315113   4.198   0.938   0.570  0.2103  0.1965  0.1704
   16MOL   C68415114   4.316   0.983   0.523 -0.5914 -0.5400 -0.5681
   16MOL   O68515115   4.374   0.922   0.429 -0.1116  0.0818  0.1911
   16MOL   C68615116   4.374   1.104   0.592 -0.0143  0.7411 -0.0040
   16MOL   C68715117   4.526   1.104   0.604 -1.0450  0.4368 -0.4170
   16MOL   C68815118   4.604   1.156   0.483 -0.2676 -0.5201 -0.1457
   16MOL   C68915119   4.750   1.114   0.468  0.4585 -0.0848  0.9126
   16MOL   C69015120   4.774   0.963   0.438 -0.6228 -0.0198 -0.3163
   16MOL   C69115121   4.705   0.900   0.320 -0.4934  0.3792  1.0610
   16MOL   C69215122   4.733   0.745   0.291  0.3409  0.2398  0.3173
   16MOL   C69315123   4.646   0.653   0.385  0.0310  0.6819  0.2809
   16MOL   C69415124   4.676   0.508   0.370 -0.0381  0.6607  0.4648
   16MOL   O69515125   4.760   0.473   0.289 -0.2501  0.1050 -0.8325
   16MOL   H69615126   4.278   0.840   0.901 -3.3440  0.2953 -0.3051
   16MOL   H69715127   4.214   0.572   0.778 -0.5546  0.8174  0.5183
   16MOL   H69815128   4.269   0.706   0.678 -1.1438  0.5955 -1.4082
   16MOL   H69915129   3.992   0.603   0.909 -0.4181  1.2513  0.9399
   16MOL   H70015130   3.751   0.634   0.867 -0.0260  0.2430 -0.6100
   16MOL   H70115131   3.675   0.736   0.659  0.7035 -3.0988  0.0366
   16MOL   H70215132   3.858   0.835   0.500 -1.8913 -0.0781  0.9973
   16MOL   H70315133   4.075   0.864   0.425  0.3904 -0.4946 -0.0598
   16MOL   H70415134   4.191   0.743   0.483 -0.1753 -1.8183  2.4897
   16MOL   H70515135   4.152   0.983   0.648 -1.8269  1.9335 -1.9553
   16MOL   H70615136   4.343   1.106   0.697 -0.7284  0.4537 -0.2075
   16MOL   H70715137   4.326   1.189   0.544 -1.3319 -0.2016 -0.3851
   16MOL   H70815138   4.561   1.002   0.616 -1.0194  0.7200  2.2084
   16MOL   H70915139   4.554   1.164   0.691 -2.9551  1.6397 -0.6018
   16MOL   H71015140   4.548   1.116   0.399  1.4312  0.7020 -1.9209
   16MOL   H71115141   4.591   1.264   0.480 -2.1010 -0.6347  2.4616
   16MOL   H71215142   4.778   1.174   0.381 -1.0963 -2.6252 -1.4181
   16MOL   H71315143   4.816   1.141   0.551 -0.3991  2.3413  0.8394
   16MOL   H71415144   4.881   0.946   0.426 -0.8119 -1.3984 -0.1274
   16MOL   H71515145   4.757   0.901   0.525  1.7320 -0.5546 -0.1941
   16MOL   H71615146   4.731   0.959   0.232 -2.9186 -0.4106 -0.2501
   16MOL   H71715147   4.597   0.913   0.332 -0.7514 -2.3134  2.1273
   16MOL   H71815148   4.835   0.720   0.319  1.1222  1.3888 -1.3950
   16MOL   H71915149   4.719   0.717   0.187  3.4447 -1.6184  0.3717
   16MOL   H72015150   4.543   0.666   0.352  0.5012 -2.9179 -2.9444
   16MOL   H72115151   4.654   0.683   0.490 -0.7683 -0.9568  0.8248
   16MOL   N72215152   4.614   0.417   0.449  0.2154 -0.2687 -0.0205
   16MOL   C72315153   4.624   0.272   0.440  0.0137  0.1379 -0.4997
   16MOL   C72415154   4.747   0.212   0.512 -0.7299  0.3184  0.8572
   16MOL   C72515155   4.841   0.286   0.582  0.1119  0.0003 -0.2593
   16MOL   C72615156   4.952   0.222   0.654 -0.5188  0.7497 -0.0681
   16MOL   C72715157   4.960   0.084   0.660  0.0954 -0.2550  0.3555
   16MOL   C72815158   4.856   0.015   0.597 -0.0619 -0.0524  0.4671
   16MOL   C72915159   4.753   0.068   0.526 -0.3206 -0.2222  0.4347
   16MOL   C73015160   4.649   7.762   0.466  0.4652  0.2342  0.3637
   16MOL   N73115161   4.715   7.649   0.402  0.5301  0.5853  1.1319
   16MOL   C73215162   4.667   7.528   0.380 -0.6096 -0.8085 -0.2582
   16MOL   O73315163   4.560   7.496   0.416  0.2224 -0.7078  0.6518
   16MOL   C73415164   4.762   7.433   0.305  0.5968 -0.7179  0.4361
   16MOL   C73515165   4.697   7.345   0.194 -0.6227 -0.4828  0.1940
   16MOL   C73615166   4.742   7.195   0.203  0.4593  0.8673 -0.5422
   16MOL   C73715167   4.678   7.096   0.310 -0.2139 -0.6565  0.4916
   16MOL   C73815168   4.723   6.950   0.289 -0.4706 -0.1945  0.1569
   16MOL   C73915169   4.657   6.881   0.167 -0.5160  0.1332  0.2350
   16MOL   C74015170   4.696   6.733   0.158 -0.3056 -0.5848  1.0313
   16MOL   C74115171   4.623   6.668   0.035  0.3400  0.8927  0.6209
   16MOL   C74215172   4.699   6.547   7.777  0.5028  0.4505 -0.2967
   16MOL   O74315173   4.797   6.565   7.704  0.0143  1.0707  0.2201
   16MOL   H74415174   4.549   0.456   0.516  0.2749 -2.2179  1.1833
   16MOL   H74515175   4.624   0.247   0.334  0.7402 -2.4479  0.0636
   16MOL   H74615176   4.525   0.244   0.476 -0.1189  0.6045 -0.4948
   16MOL   H74715177   4.832   0.393   0.586  1.0557  0.1416 -1.3431
   16MOL   H74815178   5.023   0.281   0.710 -1.3747  0.8138  0.9706
   16MOL   H74915179   5.039   0.025   0.703  0.6104 -1.9106 -2.7273
   16MOL   H75015180   4.853   7.697   0.606  0.5628 -0.2604 -1.5297
   16MOL   H75115181   4.585   0.027   0.397  1.8816  1.3709 -0.0636
   16MOL   H75215182   4.576   7.728   0.540 -1.2459  2.7304 -0.1147
   16MOL   H75315183   4.807   7.669   0.365 -0.0583 -1.3583 -1.5329
   16MOL   H75415184   4.791   7.363   0.384  0.6530  0.9851  1.9715
   16MOL   H75515185   4.859   7.477   0.280 -0.5934  1.4492 -0.5355
   16MOL   H75615186   4.697   7.399   0.099 -1.4774  0.2396  0.5928
   16MOL   H75715187   4.590   7.341   0.211 -0.3833 -1.1443  1.5690
   16MOL   H75815188   4.717   7.150   0.107 -2.5442 -1.0522  1.0284
   16MOL   H75915189   4.849   7.200   0.219  0.2660 -0.1906  1.2977
   16MOL   H76015190   4.685   7.136   0.411  0.0582  2.5531 -0.7504
   16MOL   H76115191   4.571   7.081   0.300 -0.5906  0.8671  1.9977
   16MOL   H76215192   4.832   6.949   0.286 -0.4722  1.9111 -1.9967
   16MOL   H76315193   4.698   6.897   0.381 -0.0483  1.2416  1.1101
   16MOL   H76415194   4.683   6.931   0.074 -1.3091  2.8574  1.4319
   16MOL   H76515195   4.549   6.892   0.172 -0.6345  0.0908 -1.9788
   16MOL   H76615196   4.802   6.755   0.146 -0.2738 -1.8603 -1.1014
   16MOL   H76715197   4.673   6.674   0.247  2.1179 -1.4597  1.1138
   16MOL   H76815198   4.525   6.635   0.069 -0.2978  0.8182 -1.2033
   16MOL   H76915199   4.607   6.733   7.738  1.0643 -0.0367 -0.2248
   16MOL   N77015200   4.659   6.425   0.028 -0.0319 -0.0457  0.8383
   16MOL   C77115201   4.750   6.308   0.029 -0.4125 -0.0633  0.2205
   16MOL   C77215202   4.873   6.320   0.119 -0.2321  0.0913 -0.0826
   16MOL   C77315203   4.849   6.330   0.264  0.4006  0.3317 -0.3757
   16MOL   C77415204   4.961   6.337   0.353  0.0069  0.2966  0.6418
   16MOL   C77515205   5.091   6.337   0.299  0.6421 -0.3351  0.5245
   16MOL   C77615206   5.111   6.314   0.163  0.4545  0.7259  0.4776
   16MOL   C77715207   5.009   6.313   0.070 -0.1583  0.2995  0.1117
   16MOL   C77815208   5.048   6.285   7.717  0.5984  0.3112  0.2184
   16MOL   N77915209   5.010   6.404   7.640  0.0009  0.6935  0.1404
   16MOL   C78015210   5.056   6.420   7.519 -0.3649  0.2776 -0.0766
   16MOL   O78115211   5.130   6.336   7.460 -0.4184  0.1688 -0.0052
   16MOL   C78215212   5.022   6.547   7.447 -0.1566  0.3468  0.3118
   16MOL   C78315213   5.143   6.599   7.352 -0.0394 -0.2561 -0.2178
   16MOL   C78415214   5.159   6.514   7.223 -0.6824 -0.3421 -0.0916
   16MOL   C78515215   5.271   6.577   7.141  0.1844 -0.3178 -0.3735
   16MOL   C78615216   5.408   6.565   7.194  0.1790 -0.6121 -0.1176
   16MOL   C78715217   5.506   6.628   7.091  0.2412  0.0999  0.1897
   16MOL   C78815218   5.512   6.780   7.098 -0.8407  0.1865 -0.9975
   16MOL   C78915219   5.622   6.851   7.011 -0.1665 -0.5402 -0.0213
   16MOL   C79015220   5.663   6.983   7.070 -0.3976 -0.1891  0.9072
   16MOL   O79115221   5.580   7.065   7.103  0.0812 -0.0108 -0.2051
   16MOL   H79215222   4.578   6.412   0.087 -1.2832 -0.2892 -0.9327
   16MOL   H79315223   4.682   6.224   0.045 -0.3373 -0.2770 -0.5680
   16MOL   H79415224   4.789   6.301   7.718 -1.5532  0.1990 -0.2458
   16MOL   H79515225   4.751   6.327   0.310  0.4252 -1.7923 -0.4304
   16MOL   H79615226   4.969   6.348   0.460  1.8443 -1.2874  0.6989
   16MOL   H79715227   5.162   6.343   0.380  0.2126  4.0462  0.6838
   16MOL   H79815228   5.216   6.313   0.136 -0.4385 -1.7279 -3.1369
   16MOL   H79915229   5.008   6.192   7.677  0.8997  0.0120  0.6146
   16MOL   H80015230   5.157   6.289   7.709  0.5511 -1.0734 -1.5480
   16MOL   H80115231   4.928   6.458   7.663 -1.9779 -1.6394 -1.1617
   16MOL   H80215232   4.998   6.627   7.517 -1.9507 -0.2375  0.3860
   16MOL   H80315233   4.931   6.536   7.388  1.8075 -1.4811 -2.5191
   16MOL   H80415234   5.231   6.603   7.416 -0.3919 -0.3243  0.2808
   16MOL   H80515235   5.123   6.699   7.314 -0.8567 -0.2507  0.2097
   16MOL   H80615236   5.070   6.500   7.162  0.3062  0.0385 -1.6832
   16MOL   H80715237   5.199   6.415   7.242  1.7614  0.3353 -1.3384
   16MOL   H80815238   5.275   6.526   7.045  2.3924  0.4968 -0.7372
   16MOL   H80915239   5.239   6.676   7.109 -0.0183 -1.0165 -2.3988
   16MOL   H81015240   5.433   6.623   7.283  1.3373 -1.6708  0.2631
   16MOL   H81115241   5.438   6.461   7.206  0.6817 -0.3590  0.9056
   16MOL   H81215242   5.479   6.593   6.991 -1.1358 -0.8986  0.8872
   16MOL   H81315243   5.608   6.601   7.115  0.0356 -0.5360  0.3705
   16MOL   H81415244   5.538   6.806   7.201  0.3071 -1.5210 -0.8457
   16MOL   H81515245   5.416   6.829   7.082 -1.0730 -0.1362 -0.6069
   16MOL   H81615246   5.596   6.860   6.906 -0.1529 -5.4348 -0.5436
   16MOL   H81715247   5.712   6.790   7.004 -0.2887 -0.6506 -0.6626
   16MOL   N81815248   5.795   7.010   7.083 -0.0845 -0.0662  0.1122
   16MOL   C81915249   5.851   7.124   7.161  0.0907 -0.5358  0.2866
   16MOL   C82015250   5.881   7.260   7.095 -0.9322 -0.7046  0.3428
   16MOL   C82115251   5.841   7.288   6.958  0.6385 -0.4617 -0.4681
   16MOL   C82215252   5.860   7.418   6.903 -0.5761  0.6087 -0.3610
   16MOL   C82315253   5.928   7.516   6.974 -0.0185 -0.1507  0.4360
   16MOL   C82415254   5.968   7.490   7.107  0.1409  0.4075 -0.2645
   16MOL   C82515255   5.952   7.366   7.166  0.6676  0.2764 -0.8216
   16MOL   C82615256   6.017   7.339   7.298  0.3349 -0.0146  0.7348
   16MOL   N82715257   5.914   7.300   7.403  0.3129  0.6084  0.6824
   16MOL   C82815258   5.926   7.212   7.510 -0.5820  0.3508 -0.4311
   16MOL   O82915259   6.033   7.157   7.532 -0.3649 -0.2465  0.1642
   16MOL   C83015260   5.798   7.191   7.592 -0.1503 -0.1524  0.3685
   16MOL   C83115261   5.760   7.039   7.614 -0.2095  0.6124 -0.2836
   16MOL   C83215262   5.701   6.958   7.494 -0.8895 -0.0991  0.3326
   16MOL   C83315263   5.563   7.014   7.451  0.5753 -0.1709 -0.2960
   16MOL   C83415264   5.453   6.999   7.563  0.4109  0.8141  0.5203
   16MOL   C83515265   5.439   7.140   7.639 -0.1543 -0.1679  0.7955
   16MOL   C83615266   5.329   7.141   7.744 -0.0233 -0.4439  0.6725
   16MOL   C83715267   5.342   7.270   0.043  0.1414 -0.1022  0.4504
   16MOL   C83815268   5.440   7.245   0.153 -0.3984  0.3109  0.0077
   16MOL   O83915269   5.490   7.137   0.181  0.4964  0.4432 -0.7008
   16MOL   H84015270   5.864   6.948   7.043 -0.4804 -0.0388 -0.6251
   16MOL   H84115271   5.792   7.142   7.251  0.3741 -1.3462  0.6392
   16MOL   H84215272   5.943   7.082   7.200  1.2285  1.6633  0.0772
   16MOL   H84315273   5.788   7.214   6.900 -1.9111 -0.1841  1.3977
   16MOL   H84415274   5.821   7.445   6.807  0.3161  0.1779 -0.8537
   16MOL   H84515275   5.959   7.610   6.931 -1.0426  1.4469  3.0963
   16MOL   H84615276   6.024   7.561   7.165  1.1708 -0.3582 -0.3188
   16MOL   H84715277   6.065   7.429   7.335  1.2066  0.2035 -0.9034
   16MOL   H84815278   6.085   7.255   7.286 -1.2276 -0.8212 -3.1573
   16MOL   H84915279   5.821   7.338   7.391  0.6642  1.3936  0.3765
   16MOL   H85015280   5.716   7.248   7.549 -0.2055  0.7526  1.6488
   16MOL   H85115281   5.813   7.222   7.695  1.5030 -1.3885  0.5313
   16MOL   H85215282   5.700   7.036   7.705 -2.3524  2.4193 -1.5885
   16MOL   H85315283   5.851   6.985   7.642 -1.0969 -0.6326  0.2565
   16MOL   H85415284   5.704   6.851   7.514 -1.9235  0.0637  1.3930
   16MOL   H85515285   5.769   6.961   7.408  1.8787 -0.0058  2.4414
   16MOL   H85615286   5.575   7.118   7.423  1.0278 -0.0486  0.3393
   16MOL   H85715287   5.527   6.960   7.364 -0.6131 -0.0061  0.0730
   16MOL   H85815288   5.355   6.971   7.525  0.6381 -0.8604  1.1427
   16MOL   H85915289   5.466   6.924   7.641  0.1371 -1.5259 -1.6552
   16MOL   H86015290   5.408   7.216   7.567 -1.5855  1.8091  3.3923
   16MOL   H86115291   5.530   7.185   7.679 -0.8620  1.4855  0.5595
   16MOL   H86215292   5.348   7.051   0.012  2.7550 -0.1115  0.3107
   16MOL   H86315293   5.228   7.126   7.705 -0.5506  0.0272  1.8345
   16MOL   H86415294   5.385   7.354   7.778 -2.0953  1.6016  1.2671
   16MOL   H86515295   5.249   7.291   0.094 -1.3068 -1.9137 -1.3663
   16MOL   N86615296   5.473   7.347   0.223 -0.8283 -0.2766  0.4778
   16MOL   C86715297   5.555   7.353   0.340 -0.0815  0.8896 -0.6829
   16MOL   C86815298   5.705   7.366   0.311 -0.3584  0.3921  0.2000
   16MOL   C86915299   5.759   7.324   0.183 -0.2274  0.8817 -0.2705
   16MOL   C87015300   5.899   7.338   0.164 -0.0703 -0.3423 -0.1572
   16MOL   C87115301   5.984   7.386   0.266 -0.1234 -0.0207  0.4256
   16MOL   C87215302   5.928   7.429   0.385 -0.5611  0.2718  0.0427
   16MOL   C87315303   5.790   7.417   0.414 -0.2739 -0.3966  0.1576
   16MOL   C87415304   5.744   7.449   0.549 -0.6061 -0.3320  0.2901
   16MOL   N87515305   5.708   7.596   0.553  0.7561  0.4657  0.0151
   16MOL   C87615306   5.741   7.674   0.654 -0.2252  0.0930  0.2288
   16MOL   O87715307   5.830   7.646   0.737 -0.3506 -0.1574  0.0993
   16MOL   C87815308   5.654   0.018   0.667  0.3684  0.3738  0.3303
   16MOL   C87915309   5.707   0.113   0.774 -0.0124  1.0857 -0.8275
   16MOL   C88015310   5.829   0.195   0.741 -0.9778 -0.2056 -0.2295
   16MOL   C88115311   5.864   0.305   0.841  0.3016  0.4363  0.2520
   16MOL   C88215312   6.002   0.367   0.804  0.3299  0.0580 -0.4310
   16MOL   C88315313   6.043   0.464   0.917  0.3199 -0.8660  0.0636
   16MOL   C88415314   6.158   0.565   0.872  1.0663 -0.0500  0.0872
   16MOL   C88515315   6.206   0.667   0.981 -0.2065 -0.0470  0.1738
   16MOL   C88615316   6.360   0.678   0.985  0.4507  0.2242 -0.7272
   16MOL   O88715317   6.407   0.749   0.899  0.1353 -0.7453  0.3408
   16MOL   H88815318   5.410   7.424   0.206  0.6591  1.0664  1.0183
   16MOL   H88915319   5.529   7.435   0.406 -0.1990 -0.0561  0.4608
   16MOL   H89015320   5.529   7.265   0.400  0.2082  1.8814  0.9125
   16MOL   H89115321   5.699   7.287   0.101 -0.3905  1.8103 -0.5694
   16MOL   H89215322   5.940   7.322   0.065 -1.6977  1.3829 -1.1433
   16MOL   H89315323   6.090   7.396   0.246 -0.3752 -0.8450 -1.4588
   16MOL   H89415324   5.991   7.470   0.462  0.9027 -0.7870 -0.5638
   16MOL   H89515325   5.821   7.428   0.623  0.8183  1.6909 -0.5625
   16MOL   H89615326   5.652   7.396   0.574 -0.9255  0.4397  0.7570
   16MOL   H89715327   5.654   7.631   0.475  3.2669  0.9400 -1.5762
   16MOL   H89815328   5.557   7.774   0.704  1.9537 -2.0915  2.4252
   16MOL   H89915329   5.664   0.073   0.573  2.6259  0.8462  0.8167
   16MOL   H90015330   5.720   0.048   0.861 -0.0477 -0.7284 -2.1398
   16MOL   H90115331   5.631   0.185   0.805  1.0953  2.0543 -0.3358
   16MOL   H90215332   5.918   0.135   0.726 -1.0294 -0.3037 -0.1451
   16MOL   H90315333   5.813   0.251   0.649  0.7871  1.5944  0.5213
   16MOL   H90415334   5.785   0.379   0.854 -0.1198  0.0704 -0.2249
   16MOL   H90515335   5.875   0.260   0.940 -2.4285 -1.0519 -0.0908
   16MOL   H90615336   6.069   0.281   0.805 -1.3193 -1.2587 -0.9966
   16MOL   H90715337   6.005   0.410   0.705 -2.3243  0.1466 -0.5045
   16MOL   H90815338   6.053   0.415   1.014 -0.9796  1.9994  1.7005
   16MOL   H90915339   5.959   0.529   0.938  1.7735  0.7246  1.0454
   16MOL   H91015340   6.246   0.510   0.836  0.7167  0.2542 -1.2691
   16MOL   H91115341   6.140   0.619   0.779 -1.0721 -1.6133 -0.4428
   16MOL   H91215342   6.159   0.764   0.961  3.5335  1.6429 -0.9521
   16MOL   H91315343   6.169   0.634   1.078 -2.8720  1.3774 -0.2985
   16MOL   N91415344   6.427   0.645   1.095  0.0635  0.2796 -0.2390
   16MOL   C91515345   6.569   0.667   1.119  0.1546  0.1022  0.2574
   16MOL   C91615346   6.658   0.546   1.120 -0.1118 -0.0435  0.3508
   16MOL   C91715347   6.644   0.452   1.222 -0.0927  0.5315 -0.0733
   16MOL   C91815348   6.715   0.334   1.222 -0.2514  0.2583 -0.0442
   16MOL   C91915349   6.808   0.302   1.122 -0.3521 -0.1439 -0.6254
   16MOL   C92015350   6.821   0.390   1.017  0.1378  0.3791  0.1884
   16MOL   C92115351   6.750   0.513   1.017  0.1678 -0.4438  0.1425
   16MOL   C92215352   6.771   0.607   0.892  0.5701  0.6767 -0.5543
   16MOL   N92315353   6.828   0.552   0.776 -0.5832 -0.5100  0.4745
   16MOL   C92415354   6.923   0.607   0.701  0.2325 -0.2247 -0.1781
   16MOL   O92515355   6.965   0.720   0.725  0.5411  0.0875  0.0931
   16MOL   C92615356   6.973   0.523   0.577 -0.0184  0.5091  0.0420
   16MOL   C92715357   6.942   0.597   0.447  0.3086 -0.1518 -0.2722
   16MOL   C92815358   6.793   0.608   0.407 -0.7003  0.6186 -0.2989
   16MOL   C92915359   6.767   0.632   0.255 -0.2672 -0.3007 -0.4665
   16MOL   C93015360   6.749   0.779   0.208  0.2845 -0.3177  0.4078
   16MOL   C93115361   6.765   0.784   0.053  0.2041  0.6233  0.2368
   16MOL   C93215362   6.740   0.923   7.787  0.0141  0.1831 -0.5645
   16MOL   C93315363   6.716   0.946   7.634  0.1645 -0.1249  0.5381
   16MOL   C93415364   6.797   0.865   7.538 -0.1190 -0.8426 -0.0535
   16MOL   O93515365   6.915   0.896   7.518  0.0192 -0.0978  0.3383
   16MOL   H93615366   6.373   0.613   1.174  1.6833 -0.3642  0.6213
   16MOL   H93715367   6.617   0.744   1.059  0.4326  0.9239  1.5108
   16MOL   H93815368   6.575   0.706   1.220 -0.8766  0.4602  0.1869
   16MOL   H93915369   6.571   0.472   1.299 -0.2237 -1.1440  0.2411
   16MOL   H94015370   6.695   0.272   1.308  1.4749 -1.7869 -1.0704
   16MOL   H94115371   6.856   0.205   1.122  1.3525  0.6605  1.1660
   16MOL   H94215372   6.892   0.358   0.943  1.3711 -0.5103  1.7238
   16MOL   H94315373   6.822   0.700   0.917 -0.0491  0.5090  1.4585
   16MOL   H94415374   6.673   0.628   0.849 -0.3640 -0.2831  1.0106
   16MOL   H94515375   6.789   0.464   0.745 -0.9166 -0.6405  1.2474
   16MOL   H94615376   6.928   0.424   0.582 -2.2431  1.5499  1.4653
   16MOL   H94715377   7.080   0.506   0.568 -0.0277  1.3085 -1.6844
   16MOL   H94815378   6.981   0.532   0.369 -0.0367  0.8351 -1.2647
   16MOL   H94915379   6.989   0.695   0.448 -1.8534  0.9540 -3.0882
   16MOL   H95015380   6.731   0.526   0.442 -1.8854  0.8915 -1.7037
   16MOL   H95115381   6.747   0.696   0.454 -1.1253  1.2066 -1.7665
   16MOL   H95215382   6.821   0.571   0.182 -1.0002 -1.4036 -0.1091
   16MOL   H95315383   6.668   0.588   0.243 -0.8684  0.9423 -0.1416
   16MOL   H95415384   6.820   0.853   0.248 -1.1347  2.0395 -1.3328
   16MOL   H95515385   6.651   0.815   0.240  0.0630  0.9679 -1.6738
   16MOL   H95615386   6.868   0.757   0.031 -0.0630 -1.0203  0.9335
   16MOL   H95715387   6.701   0.710   0.005 -0.3671  1.8539 -0.9443
   16MOL   H95815388   6.814   0.993   0.036  0.1319  0.7097 -1.7140
   16MOL   H95915389   6.656   0.971   0.048  1.9892 -0.3169  3.3722
   16MOL   H96015390   6.747   1.048   7.612  0.4390  0.0816  1.8343
   16MOL   H96115391   6.610   0.944   7.609  0.5032 -2.3196 -0.8072
   16MOL   H96215392   6.746   0.778   7.497 -0.3742 -0.6129 -0.2203
   17MOL     N115393   3.642   1.845   2.337 -1.0018  0.4252  0.2495
   17MOL     C215394   3.727   1.735   2.382 -0.0205  0.0058  0.3015
   17MOL     C315395   3.793   1.666   2.264  0.2064  0.0561  0.3158
   17MOL     C415396   3.725   1.560   2.204 -0.8849 -0.0206 -0.0438
   17MOL     C515397   3.777   1.509   2.084  1.1992  0.1849  0.1682
   17MOL     C615398   3.902   1.543   2.037 -0.8514  0.5775 -0.1342
   17MOL     C715399   3.974   1.640   2.100  0.0389  0.4893  0.5329
   17MOL     C815400   3.921   1.712   2.214  0.3611 -0.1547  0.2146
   17MOL     C915401   3.993   1.833   2.270  0.4373  0.7228  0.0509
   17MOL    N1015402   4.023   1.931   2.165  0.0085 -0.3163  0.4166
   17MOL    C1115403   4.133   2.013   2.164 -0.4514 -0.3955  0.1856
   17MOL    O1215404   4.199   2.052   2.261  0.4068 -0.0785  0.2367
   17MOL    C1315405   4.160   2.065   2.019  0.4862  0.2117  0.4596
   17MOL    C1415406   4.270   2.165   1.991 -0.3217  0.2159 -0.3053
   17MOL    C1515407   4.274   2.246   1.861  0.1357  0.0632  0.7938
   17MOL    C1615408   4.296   2.166   1.732  0.8232  0.4406 -0.1249
   17MOL    C1715409   4.316   2.255   1.608 -0.0696  0.0092 -0.1470
   17MOL    C1815410   4.341   2.168   1.477 -0.1213 -0.1014 -0.5117
   17MOL    C1915411   4.369   2.264   1.359  0.3483 -0.4140 -0.5184
   17MOL    C2015412   4.376   2.194   1.226  0.6026  0.2527  0.8367
   17MOL    C2115413   4.457   2.282   1.123  0.6049  0.0615 -0.2948
   17MOL    O2215414   4.405   2.312   1.016 -0.1061 -0.0820  0.5315
   17MOL    H2315415   3.694   1.929   2.358 -2.8487  1.3942  1.0732
   17MOL    H2415416   3.792   1.777   2.459  0.4743 -1.6357  0.7826
   17MOL    H2515417   3.652   1.673   2.430  1.0575 -1.3483  0.2732
   17MOL    H2615418   3.631   1.517   2.235 -0.7827 -0.6912 -0.6386
   17MOL    H2715419   3.714   1.435   2.036  0.8103  2.1063 -2.3502
   17MOL    H2815420   3.941   1.501   1.946  1.0141  0.4616  0.7067
   17MOL    H2915421   4.071   1.674   2.065 -0.5699  0.9127 -0.7794
   17MOL    H3015422   4.092   1.791   2.292  0.0513  0.4097  1.2443
   17MOL    H3115423   3.952   1.878   2.361  0.4623  0.5324  0.1578
   17MOL    H3215424   3.969   1.913   2.081  0.9924 -1.7418  0.0726
   17MOL    H3315425   4.064   2.092   1.974 -0.6891  0.6393  3.1432
   17MOL    H3415426   4.185   1.974   1.965 -1.1508  0.9429 -1.6197
   17MOL    H3515427   4.369   2.121   1.984  0.2901  1.5568 -0.1731
   17MOL    H3615428   4.272   2.230   2.079  0.1248  0.1677 -0.2777
   17MOL    H3715429   4.187   2.310   1.848  0.0297 -0.4328 -1.0657
   17MOL    H3815430   4.372   2.292   1.874 -0.1072  0.5438  0.9303
   17MOL    H3915431   4.379   2.097   1.741  0.4101 -0.2354 -1.4247
   17MOL    H4015432   4.210   2.100   1.724  0.6427  0.7501 -0.7916
   17MOL    H4115433   4.221   2.308   1.602 -0.4904 -0.6203  0.8310
   17MOL    H4215434   4.396   2.327   1.626 -1.7350  1.0819  3.3692
   17MOL    H4315435   4.252   2.111   1.455 -0.2352 -0.2722  0.3680
   17MOL    H4415436   4.428   2.104   1.493  1.2742  1.6040 -1.0182
   17MOL    H4515437   4.285   2.330   1.335  0.8502 -0.1477 -1.5709
   17MOL    H4615438   4.453   2.331   1.376  0.1142 -0.3669  0.5045
   17MOL    H4715439   4.278   2.171   1.183  0.3480 -1.2052  2.1665
   17MOL    H4815440   4.415   2.093   1.237  0.7367  0.1283 -0.6857
   17MOL    H4915441   3.655   1.835   2.237  0.8479  1.7789  0.3216
   17MOL    N5015442   4.577   2.318   1.165  0.3612  0.1113 -0.7650
   17MOL    C5115443   4.658   2.408   1.093 -0.3587 -0.0535  0.5436
   17MOL    C5215444   4.764   2.333   1.018  0.0550 -0.0093  0.7660
   17MOL    C5315445   4.729   2.254   0.907  0.6784  0.0908 -0.1318
   17MOL    C5415446   4.829   2.181   0.837 -0.4719 -0.9126 -0.3775
   17MOL    C5515447   4.964   2.188   0.885  0.5568  0.2260 -0.1501
   17MOL    C5615448   4.993   2.254   1.000 -0.8279 -0.1106  0.2570
   17MOL    C5715449   4.896   2.321   1.077  0.6987 -1.0465  0.4985
   17MOL    C5815450   4.953   2.395   1.198  1.0504  0.5415 -0.0994
   17MOL    N5915451   5.025   2.520   1.177 -0.6302 -0.5363 -0.2550
   17MOL    C6015452   5.156   2.525   1.160 -0.9450  0.2265 -0.1986
   17MOL    O6115453   5.233   2.431   1.192  0.2319 -0.2905  0.1470
   17MOL    C6215454   5.210   2.650   1.100  0.6484 -0.3561  0.2237
   17MOL    C6315455   5.326   2.625   0.996  0.1451 -0.8836 -0.1897
   17MOL    C6415456   5.281   2.546   0.867 -0.1094 -0.6050 -0.0550
   17MOL    C6515457   5.147   2.590   0.814  0.1433  1.1917 -0.4673
   17MOL    C6615458   5.174   2.717   0.739  0.2866 -0.0281  0.1206
   17MOL    C6715459   5.045   2.754   0.667 -0.0129 -0.0453 -0.3296
   17MOL    C6815460   5.037   2.898   0.607  0.5388  0.2157 -0.2407
   17MOL    C6915461   5.144   2.946   0.507 -0.0988  0.2336 -0.2314
   17MOL    C7015462   5.155   2.848   0.390  0.0625  0.0066 -0.2828
   17MOL    O7115463   5.055   2.774   0.360  0.3625 -0.1496  0.1765
   17MOL    H7215464   4.604   2.278   1.254 -0.2941  1.5055  0.0724
   17MOL    H7315465   4.693   2.473   1.173  1.2019 -0.2963  0.0747
   17MOL    H7415466   4.603   2.477   1.029  1.1325  0.7744  0.1552
   17MOL    H7515467   4.629   2.241   0.869  0.1848 -2.9327  2.0150
   17MOL    H7615468   4.803   2.117   0.755  0.7899 -2.2639  0.2518
   17MOL    H7715469   5.036   2.130   0.830  0.2854  1.7783 -2.1630
   17MOL    H7815470   5.094   2.250   1.037 -0.1198 -0.3741 -1.6326
   17MOL    H7915471   5.014   2.313   1.237 -0.6114 -0.5877  0.1978
   17MOL    H8015472   4.867   2.395   1.265 -0.4286 -0.1188 -1.9682
   17MOL    H8115473   4.964   2.595   1.148 -0.7155 -0.3787  0.3369
   17MOL    H8215474   5.237   2.725   1.174 -0.4157  0.8339 -0.5494
   17MOL    H8315475   5.131   2.711   1.055  0.0620 -0.9722  0.4073
   17MOL    H8415476   5.410   2.576   1.047  0.7711  1.2446  0.8683
   17MOL    H8515477   5.371   2.719   0.966  1.1458 -0.7610  1.6003
   17MOL    H8615478   5.365   2.543   0.797  0.6752 -0.2226  0.8682
   17MOL    H8715479   5.268   2.439   0.882 -0.0591 -0.1343  3.8051
   17MOL    H8815480   5.096   2.511   0.758 -0.4591 -0.6951  2.6376
   17MOL    H8915481   5.075   2.605   0.894 -1.2516 -0.5938 -1.3424
   17MOL    H9015482   5.202   2.798   0.806 -0.5998 -0.0289  0.5052
   17MOL    H9115483   5.255   2.708   0.667 -0.5290 -1.7621 -0.6198
   17MOL    H9215484   4.957   2.743   0.730  2.0014  0.4900  2.6494
   17MOL    H9315485   5.030   2.683   0.586  0.9768  0.5054 -1.0126
   17MOL    H9415486   5.037   2.965   0.693 -0.9034  0.0897 -0.1306
   17MOL    H9515487   4.937   2.908   0.565  0.7326 -0.1359 -0.7934
   17MOL    H9615488   5.244   2.945   0.551 -1.5860  0.4950  3.2611
   17MOL    H9715489   5.128   3.043   0.461 -1.5673 -1.0903 -2.6359
   17MOL    N9815490   5.262   2.855   0.315 -1.1656 -0.0050  0.0703
   17MOL    C9915491   5.285   2.786   0.194 -0.4727 -0.2529  0.1439
   17MOL   C10015492   5.296   2.874   0.073  0.4912 -0.0312  0.0377
   17MOL   C10115493   5.215   2.995   0.069  0.2267  1.1669  0.2923
   17MOL   C10215494   5.200   3.071   7.745  0.6659  0.2436  0.1002
   17MOL   C10315495   5.267   3.031   7.625 -0.5049 -0.9184  0.4367
   17MOL   C10415496   5.340   2.911   7.628  0.3846 -0.0177 -0.3716
   17MOL   C10515497   5.349   2.822   7.740  0.0890  0.1864  0.1546
   17MOL   C10615498   5.404   2.678   7.719  0.1797  0.3911 -0.2042
   17MOL   N10715499   5.297   2.593   7.695  0.2672  0.6507 -0.0651
   17MOL   C10815500   5.310   2.462   7.707 -0.6659 -0.0460  0.7085
   17MOL   O10915501   5.411   2.402   7.740  1.2417 -0.7264  0.0072
   17MOL   C11015502   5.176   2.388   7.689 -0.0948 -0.3440 -0.4079
   17MOL   C11115503   5.162   2.333   7.550  0.1984 -0.4944  0.9007
   17MOL   C11215504   5.031   2.263   7.528  0.1259  0.7804  0.9762
   17MOL   C11315505   4.936   2.344   7.440 -0.3167  0.4396 -0.3716
   17MOL   C11415506   4.792   2.286   7.466  0.2647  0.1481 -0.0379
   17MOL   C11515507   4.690   2.301   7.351 -0.0894 -0.6891  0.1503
   17MOL   C11615508   4.615   2.430   7.344  0.4635 -0.1489 -0.5937
   17MOL   C11715509   4.669   2.533   7.238  0.2917 -0.5323 -0.0366
   17MOL   C11815510   4.659   2.679   7.277  0.2208 -0.0128  0.6492
   17MOL   O11915511   4.571   2.722   7.346  0.0686  0.3435 -0.0332
   17MOL   H12015512   5.329   2.922   0.349  1.5525 -3.8744  2.8279
   17MOL   H12115513   5.385   2.743   0.202  0.2935  1.3213 -0.7043
   17MOL   H12215514   5.204   2.714   0.180  2.2597 -3.4091 -0.2506
   17MOL   H12315515   5.166   3.028   0.159  0.0160  0.4922  0.4342
   17MOL   H12415516   5.142   3.163   7.745  2.3803  1.3464  0.2794
   17MOL   H12515517   5.260   3.090   7.535  2.1244  0.7724  1.2641
   17MOL   H12615518   5.378   2.875   7.534  0.5159 -0.4982 -0.1340
   17MOL   H12715519   5.455   2.645   0.020  0.5463  1.6275  0.0630
   17MOL   H12815520   5.472   2.678   7.634  1.3722 -0.4432  0.7345
   17MOL   H12915521   5.211   2.625   7.653  0.3379  2.4831  1.1582
   17MOL   H13015522   5.098   2.457   7.722  0.3706  0.3080 -0.6578
   17MOL   H13115523   5.163   2.306   7.760 -3.7914 -0.9040 -1.6077
   17MOL   H13215524   5.243   2.262   7.531 -0.1523 -0.7461  0.3534
   17MOL   H13315525   5.186   2.405   7.472  0.8005  0.9928  2.4147
   17MOL   H13415526   5.062   2.167   7.486 -0.4417  1.5045 -1.1691
   17MOL   H13515527   4.991   2.244   7.628  1.2934  1.0966  1.5156
   17MOL   H13615528   4.922   2.451   7.452  1.7841  0.9869 -2.4225
   17MOL   H13715529   4.967   2.331   7.336  1.0487 -2.3572  0.3474
   17MOL   H13815530   4.803   2.179   7.486 -1.8967  0.2156  1.6075
   17MOL   H13915531   4.762   2.325   7.563  0.5704  2.4216 -0.8248
   17MOL   H14015532   4.624   2.215   7.364 -1.2823  0.1875  0.0403
   17MOL   H14115533   4.745   2.278   7.260 -1.2021 -0.0632 -0.6951
   17MOL   H14215534   4.509   2.417   7.320  0.9487 -0.2327 -2.7435
   17MOL   H14315535   4.617   2.467   7.447 -1.6534  1.6645 -1.1536
   17MOL   H14415536   4.627   2.511   7.140  0.3904 -2.5121  0.3391
   17MOL   H14515537   4.774   2.504   7.229  0.7804  1.4891 -1.2166
   17MOL   N14615538   4.749   2.757   7.209  0.8239  0.1732 -0.3702
   17MOL   C14715539   4.765   2.899   7.235 -0.5669 -0.7921 -0.1279
   17MOL   C14815540   4.908   2.952   7.208  0.1781  0.5921 -0.0793
   17MOL   C14915541   5.002   2.925   7.310 -0.3070 -0.0635 -0.5187
   17MOL   C15015542   5.137   2.981   7.308 -0.0113 -0.0589  0.3150
   17MOL   C15115543   5.171   3.059   7.199 -0.7250 -0.7175  0.0004
   17MOL   C15215544   5.077   3.090   7.098  0.2873 -0.3290  0.4838
   17MOL   C15315545   4.946   3.035   7.100 -1.0050 -0.3776  0.3372
   17MOL   C15415546   4.854   3.063   6.983  0.3225  0.5965 -0.0392
   17MOL   N15515547   4.926   3.080   6.859 -0.5228  0.7792  0.1649
   17MOL   C15615548   4.864   3.141   6.761  0.0642  0.2156 -0.8762
   17MOL   O15715549   4.747   3.176   6.772  0.5284 -0.3176  0.7059
   17MOL   C15815550   4.943   3.159   6.629  0.1838 -0.3439 -0.1077
   17MOL   C15915551   4.864   3.140   6.500 -0.4188 -0.9185  0.5077
   17MOL   C16015552   4.858   2.998   6.456 -0.0782  0.2981  0.5204
   17MOL   C16115553   4.750   2.908   6.516 -0.0732 -0.0711 -0.1834
   17MOL   C16215554   4.780   2.760   6.488 -0.4059 -0.3285  0.5083
   17MOL   C16315555   4.896   2.700   6.566 -0.6475  0.2002  0.5767
   17MOL   C16415556   4.866   2.696   6.716 -0.5931 -0.1452 -0.1934
   17MOL   C16515557   4.962   2.605   6.786  0.2689  0.0720 -0.4466
   17MOL   C16615558   4.967   2.620   6.938 -0.3409 -0.6926  0.1576
   17MOL   O16715559   4.884   2.689   6.998  0.0676 -0.1720 -0.2485
   17MOL   H16815560   4.808   2.713   7.139  0.1904 -1.9461  0.3896
   17MOL   H16915561   4.742   2.932   7.336 -0.9046 -1.3618 -0.0102
   17MOL   H17015562   4.700   2.946   7.161 -0.6049 -1.1439 -0.3220
   17MOL   H17115563   4.985   2.856   7.391 -0.1417 -0.2106 -0.6110
   17MOL   H17215564   5.217   2.968   7.380  3.1873 -2.0707 -3.4407
   17MOL   H17315565   5.267   3.107   7.206 -0.9813 -0.5730  4.1648
   17MOL   H17415566   5.110   3.164   7.027 -0.4393 -0.5280 -0.0670
   17MOL   H17515567   4.775   3.134   7.006  0.8349  0.2979  2.8111
   17MOL   H17615568   4.799   2.969   6.975  0.0657  0.7282  0.1930
   17MOL   H17715569   5.022   3.050   6.869 -0.9903 -0.9592 -0.3742
   17MOL   H17815570   5.033   3.098   6.622  1.1502  1.1232 -0.7764
   17MOL   H17915571   4.984   3.260   6.629  1.1961 -0.7018  2.7928
   17MOL   H18015572   4.919   3.185   6.418  0.2182 -2.1694  0.2395
   17MOL   H18115573   4.770   3.194   6.515  0.1830  0.8837 -1.9107
   17MOL   H18215574   4.851   3.004   6.347  2.4157  1.1805  0.3699
   17MOL   H18315575   4.958   2.957   6.472 -0.7857 -1.6291  0.1463
   17MOL   H18415576   4.751   2.917   6.625  2.6675 -0.0538 -0.1870
   17MOL   H18515577   4.647   2.927   6.486 -0.0663  1.7244  0.8676
   17MOL   H18615578   4.694   2.700   6.519 -1.2338  0.3732 -0.3988
   17MOL   H18715579   4.785   2.738   6.381 -1.2142  2.9112 -0.2451
   17MOL   H18815580   4.989   2.755   6.549 -0.1279 -0.1868  2.1201
   17MOL   H18915581   4.918   2.604   6.520 -0.4577  2.2406 -3.8073
   17MOL   H19015582   4.855   2.792   6.765  1.7370 -0.2890  0.6934
   17MOL   H19115583   4.766   2.653   6.728 -1.3477  2.1922  2.3682
   17MOL   H19215584   5.062   2.642   6.763  0.8505 -1.0658  0.2170
   17MOL   H19315585   4.972   2.500   6.757  2.1515 -0.0769  0.6536
   17MOL   N19415586   5.056   2.538   6.996  0.2113 -0.9729  0.5230
   17MOL   C19515587   5.072   2.497   7.137 -0.0907  0.0965  0.1744
   17MOL   C19615588   5.208   2.517   7.186  0.1403 -0.1692  0.0107
   17MOL   C19715589   5.252   2.651   7.214  0.6389  0.4882  0.2644
   17MOL   C19815590   5.384   2.679   7.253 -0.1173  0.3052  0.9895
   17MOL   C19915591   5.474   2.569   7.258 -0.7023  0.2523 -0.4920
   17MOL   C20015592   5.432   2.438   7.229 -0.8389  0.5428 -0.4263
   17MOL   C20115593   5.298   2.410   7.204  0.7991  0.0692  0.0461
   17MOL   C20215594   5.248   2.261   7.195  0.0692 -0.0450 -0.0957
   17MOL   N20315595   5.234   2.220   7.056  0.0347 -0.5674  0.4372
   17MOL   C20415596   5.132   2.150   7.008 -0.5757  0.9609 -0.0759
   17MOL   O20515597   5.036   2.107   7.071  0.3922 -0.3661 -0.1491
   17MOL   C20615598   5.142   2.120   6.859 -0.9223  0.7640  0.2953
   17MOL   C20715599   5.121   2.246   6.766  0.2611  0.4907  0.2244
   17MOL   C20815600   5.106   2.216   6.617 -0.3030  0.1074  0.4500
   17MOL   C20915601   5.088   2.341   6.528 -0.4333  0.5915 -0.4697
   17MOL   C21015602   5.218   2.425   6.532  0.4744 -0.6692 -0.2815
   17MOL   C21115603   5.232   2.521   6.412  0.9182  0.5613  0.1497
   17MOL   C21215604   5.361   2.591   6.420  0.2355 -0.1353  0.5054
   17MOL   C21315605   5.375   2.698   6.307 -0.0224 -0.0731  0.2914
   17MOL   C21415606   5.517   2.768   6.295  0.5730  0.3473 -0.2388
   17MOL   O21515607   5.616   2.723   6.352 -0.9046  0.0342  0.1184
   17MOL   H21615608   5.125   2.512   6.927 -1.1184 -1.5794 -0.5980
   17MOL   H21715609   4.996   2.530   7.207  0.4058  0.9515  0.3156
   17MOL   H21815610   5.044   2.392   7.123  2.4470 -0.5273 -0.5167
   17MOL   H21915611   5.179   2.730   7.203 -2.3175 -2.0703  0.8020
   17MOL   H22015612   5.412   2.779   7.284  2.1611  0.1778 -0.4635
   17MOL   H22115613   5.573   2.590   7.294 -1.5515  2.5917  0.5978
   17MOL   H22215614   5.511   2.365   7.234  0.0585  1.4988 -0.3345
   17MOL   H22315615   5.158   2.247   7.255 -0.1749  2.1131  0.0492
   17MOL   H22415616   5.326   2.191   7.227 -0.8874 -1.7312 -1.3208
   17MOL   H22515617   5.312   2.233   6.993  0.0357 -0.2544  0.5023
   17MOL   H22615618   5.077   2.034   6.840  0.2158 -0.2436  0.9309
   17MOL   H22715619   5.246   2.091   6.847 -0.4098  2.7730 -0.2504
   17MOL   H22815620   5.038   2.297   6.815 -2.8472 -1.7301 -2.5664
   17MOL   H22915621   5.202   2.318   6.777 -1.0897  1.7842  1.9788
   17MOL   H23015622   5.189   2.159   6.576 -0.9431  1.0941 -2.3775
   17MOL   H23115623   5.011   2.164   6.603 -0.4813  0.8735 -1.5129
   17MOL   H23215624   5.061   2.303   6.430  0.2003 -1.3027  0.0759
   17MOL   H23315625   5.002   2.399   6.563 -1.2368  0.0397 -1.5001
   17MOL   H23415626   5.232   2.480   6.625  0.0076  0.5293 -0.9156
   17MOL   H23515627   5.307   2.366   6.511  1.8335  1.2247  0.0280
   17MOL   H23615628   5.161   2.604   6.414  1.5232  1.2306 -3.7385
   17MOL   H23715629   5.215   2.474   6.315 -0.1356  2.2919 -0.5252
   17MOL   H23815630   5.438   2.516   6.403 -0.4792 -0.2465 -2.6042
   17MOL   H23915631   5.382   2.642   6.514 -0.0601  1.3106 -0.1947
   17MOL   H24015632   5.338   2.658   6.213  1.5192  1.2804 -0.9243
   17MOL   H24115633   5.307   2.780   6.332  0.7383  0.1014  1.9145
   17MOL   N24215634   5.516   2.868   6.206 -0.1489 -0.5113 -0.2054
   17MOL   C24315635   5.636   2.935   6.161  0.2174 -0.1258  0.1767
   17MOL   C24415636   5.634   2.944   6.009  0.1503  0.1323  0.1917
   17MOL   C24515637   5.700   2.841   5.936 -0.8284 -0.2951  0.0387
   17MOL   C24615638   5.696   2.847   5.799 -0.3811 -0.0020  0.1184
   17MOL   C24715639   5.632   2.954   5.734 -0.4660 -0.6516  0.1256
   17MOL   C24815640   5.566   3.054   5.809 -0.0530  0.5248  0.1547
   17MOL   C24915641   5.559   3.042   5.942  0.5550 -0.0861 -1.2222
   17MOL   C25015642   5.478   3.152   6.015  0.1158  0.0244  0.7428
   17MOL   N25115643   5.341   3.160   5.972 -0.4967 -0.0826 -0.4940
   17MOL   C25215644   5.241   3.081   6.017 -0.2823 -0.4395  0.0320
   17MOL   O25315645   5.257   2.992   6.100  0.2866 -0.0313  0.3395
   17MOL   C25415646   5.100   3.107   5.961 -0.0016  0.2100  0.1083
   17MOL   C25515647   5.016   3.194   6.052  0.7294 -0.3708  0.3713
   17MOL   C25615648   4.876   3.220   6.000 -0.5685 -0.4369  0.3583
   17MOL   C25715649   4.803   3.098   5.944 -0.1487  0.1212 -0.3472
   17MOL   C25815650   4.779   2.978   6.024 -0.1187  0.0924 -0.0232
   17MOL   C25915651   4.665   2.884   5.972  0.2129 -0.1006 -0.3223
   17MOL   C26015652   4.649   2.761   6.066  0.3111  0.5539 -0.6637
   17MOL   C26115653   4.530   2.670   6.024 -0.1681  0.2148 -0.3839
   17MOL   C26215654   4.395   2.729   6.042 -0.1841  0.6509  0.0690
   17MOL   O26315655   4.328   2.767   5.942 -0.7724  0.6038  0.1056
   17MOL   H26415656   5.429   2.885   6.158 -1.2501 -0.7560  1.6525
   17MOL   H26515657   5.651   3.029   6.214  0.1961 -0.1831  0.2828
   17MOL   H26615658   5.725   2.882   6.196  0.1322  0.1157  0.7724
   17MOL   H26715659   5.749   2.763   5.991 -1.9407 -0.5523  0.6959
   17MOL   H26815660   5.727   2.765   5.735 -1.1718 -2.2801  2.5686
   17MOL   H26915661   5.638   2.961   5.626  1.2406  0.5804  0.2740
   17MOL   H27015662   5.504   3.129   5.763 -1.1703 -0.1988  0.4356
   17MOL   H27115663   5.511   3.253   5.990  0.3890 -0.3785 -0.5284
   17MOL   H27215664   5.495   3.147   6.123  2.6080  1.2908  0.4534
   17MOL   H27315665   5.325   3.243   5.917  0.5446  0.2136 -0.3568
   17MOL   H27415666   5.059   3.007   5.947  0.5400  0.3393 -2.6787
   17MOL   H27515667   5.123   3.151   5.864  0.9627  0.4277  0.4389
   17MOL   H27615668   5.063   3.289   6.080 -0.8616  0.0916  1.5453
   17MOL   H27715669   5.010   3.134   6.143 -1.9046 -1.1032 -0.2644
   17MOL   H27815670   4.865   3.305   5.933 -1.0013 -1.0504 -0.3512
   17MOL   H27915671   4.816   3.255   6.085 -1.3138  0.6356 -0.5857
   17MOL   H28015672   4.709   3.132   5.900 -0.2995 -0.5643 -0.5668
   17MOL   H28115673   4.846   3.074   5.847 -0.1549 -4.4387  0.6592
   17MOL   H28215674   4.872   2.921   6.023 -0.2504 -0.2890  3.3848
   17MOL   H28315675   4.765   3.021   6.124  1.2265  0.1634  0.1431
   17MOL   H28415676   4.670   2.846   5.870  0.6666 -0.9425  0.0164
   17MOL   H28515677   4.574   2.943   5.982 -1.1290 -1.9235 -1.4745
   17MOL   H28615678   4.742   2.705   6.065  0.3763  0.6186  1.1354
   17MOL   H28715679   4.638   2.798   6.167 -0.1845  0.8443 -0.8218
   17MOL   H28815680   4.542   2.644   5.919  1.7118 -0.8559  0.0819
   17MOL   H28915681   4.543   2.584   6.090  3.3520  0.5560 -0.5716
   17MOL   N29015682   4.340   2.725   6.171  0.3552 -0.0645  0.8474
   17MOL   C29115683   4.223   2.794   6.212  0.0234  0.2136 -0.1572
   17MOL   C29215684   4.096   2.703   6.201 -0.4388  0.4742  0.4085
   17MOL   C29315685   4.096   2.604   6.104 -0.1335  0.2778  0.7993
   17MOL   C29415686   3.979   2.529   6.070 -0.1820 -0.1753  0.2051
   17MOL   C29515687   3.863   2.547   6.142  0.4099  0.2693  0.1017
   17MOL   C29615688   3.866   2.642   6.248  0.4657 -0.3484  0.3328
   17MOL   C29715689   3.978   2.727   6.273 -0.6118 -0.7395 -0.1766
   17MOL   C29815690   3.962   2.844   6.369 -0.5562  0.3328  0.2700
   17MOL   N29915691   3.961   2.969   6.294 -0.1999  0.5088  0.3757
   17MOL   C30015692   3.976   3.084   6.364  0.4515  1.2385 -0.7270
   17MOL   O30115693   3.986   3.090   6.486  0.0785 -0.7383  0.6455
   17MOL   C30215694   3.987   3.214   6.285  0.3938 -0.1581  0.4975
   17MOL   C30315695   4.099   3.311   6.335  0.2941 -0.1504 -0.4715
   17MOL   C30415696   4.114   3.430   6.252 -0.4868 -0.1839  0.2919
   17MOL   C30515697   4.249   3.508   6.276 -0.2438  0.9128  0.0310
   17MOL   C30615698   4.260   3.635   6.181 -0.1471  0.8692 -0.3676
   17MOL   C30715699   4.403   3.646   6.133  0.0775  0.3489  0.7800
   17MOL   C30815700   4.401   3.765   6.039  0.2811  0.0363 -0.6626
   17MOL   C30915701   4.526   3.774   5.946  0.0393  0.7124 -1.3128
   17MOL   C31015702   4.659   3.805   6.018 -0.4226 -0.0972 -0.3068
   17MOL   O31115703   4.677   3.894   6.102 -0.3406 -0.6806 -0.2126
   17MOL   H31215704   4.390   2.692   6.252  0.3196  0.6885  1.1784
   17MOL   H31315705   4.240   2.819   6.316  2.4682  2.5244 -1.0775
   17MOL   H31415706   4.205   2.887   6.158  1.5173  0.3684 -0.3978
   17MOL   H31515707   4.192   2.588   6.055  0.2658  0.7957  1.4045
   17MOL   H31615708   3.976   2.459   5.988 -0.5255  1.1318 -0.9161
   17MOL   H31715709   3.765   2.508   6.120  0.3655  0.4387  0.0023
   17MOL   H31815710   3.781   2.663   6.311 -0.2177 -0.0523 -0.6754
   17MOL   H31915711   4.048   2.842   6.435  1.1676  0.1055 -1.9255
   17MOL   H32015712   3.875   2.840   6.435 -0.6934 -1.1930  0.0276
   17MOL   H32115713   3.937   2.965   6.195 -4.6513  3.3537  1.1882
   17MOL   H32215714   3.989   3.193   6.178  0.0574 -0.6068  0.5813
   17MOL   H32315715   3.891   3.265   6.293  0.4337 -0.2965  2.0376
   17MOL   H32415716   4.195   3.259   6.331  1.4664  2.0941 -2.9761
   17MOL   H32515717   4.086   3.329   6.442 -2.2190  1.1835 -0.9673
   17MOL   H32615718   4.019   3.484   6.264 -0.7137 -0.7926  1.3026
   17MOL   H32715719   4.116   3.402   6.147 -0.9398  1.2510 -0.1170
   17MOL   H32815720   4.243   3.529   6.383 -3.4376  1.1109 -0.1260
   17MOL   H32915721   4.330   3.440   6.253 -0.4997  0.2216  1.1412
   17MOL   H33015722   4.200   3.618   6.091 -1.0578  0.0474  0.3882
   17MOL   H33115723   4.218   3.717   6.240 -2.0680  0.8009 -1.5863
   17MOL   H33215724   4.436   3.551   6.092  2.2204  2.1522 -1.8721
   17MOL   H33315725   4.467   3.664   6.220 -0.9409  1.6627  1.2722
   17MOL   H33415726   4.314   3.771   5.973 -1.3291 -0.3011  1.4063
   17MOL   H33515727   4.390   3.856   6.098 -1.0013 -0.2817 -0.4066
   17MOL   H33615728   4.520   3.695   5.872 -0.5551 -1.0873  0.5822
   17MOL   H33715729   4.498   3.866   5.895  0.7170  0.4209 -2.2227
   17MOL   N33815730   4.763   3.725   5.980  0.0823  0.3371 -0.8646
   17MOL   C33915731   4.903   3.730   6.018 -0.2910 -0.4196  0.3006
   17MOL   C34015732   4.929   3.663   6.153  0.2617 -0.6528  0.3657
   17MOL   C34115733   4.889   3.532   6.175  0.3166  0.2246 -0.4711
   17MOL   C34215734   4.916   3.463   6.292  0.6815  0.7971 -0.4087
   17MOL   C34315735   5.006   3.517   6.381  0.1655 -0.2716  0.3236
   17MOL   C34415736   5.042   3.651   6.371  0.0326 -1.0063  0.3486
   17MOL   C34515737   4.999   3.727   6.258 -0.5613 -0.1034 -0.4228
   17MOL   C34615738   5.045   3.869   6.242  0.8946  0.3631  0.0935
   17MOL   N34715739   4.938   3.966   6.214 -0.0468 -0.1909 -0.2185
   17MOL   C34815740   4.958   4.099   6.212  0.1454 -0.2449  0.9846
   17MOL   O34915741   5.061   4.156   6.238 -0.0541  0.2046 -0.6558
   17MOL   C35015742   4.836   4.179   6.150  0.2793 -0.0535 -0.0179
   17MOL   C35115743   4.858   4.172   6.000  0.2666  0.1576 -0.1393
   17MOL   C35215744   4.746   4.240   5.920 -0.0780 -0.1296 -0.1727
   17MOL   C35315745   4.727   4.392   5.948 -0.4882  0.4871 -0.1928
   17MOL   C35415746   4.644   4.466   5.844  0.3446 -0.7453  0.2556
   17MOL   C35515747   4.501   4.405   5.835 -0.2954 -0.2624 -0.6343
   17MOL   C35615748   4.410   4.481   5.734  0.3091 -0.1114 -0.1124
   17MOL   C35715749   4.307   4.569   5.790 -0.4633  0.4224  0.1636
   17MOL   C35815750   4.227   4.658   5.691  0.2386 -0.0243 -0.3549
   17MOL   O35915751   4.250   4.652   5.573  0.3228  0.1173 -0.1168
   17MOL   H36015752   4.733   3.655   5.913  0.6538 -0.5619 -0.1886
   17MOL   H36115753   4.965   3.680   5.944  3.0952 -0.1757  2.8762
   17MOL   H36215754   4.937   3.833   6.015 -3.1543  0.6081  1.3467
   17MOL   H36315755   4.819   3.480   6.111 -0.3346  1.4122 -0.7248
   17MOL   H36415756   4.874   3.364   6.303  2.2374 -0.0537 -1.7698
   17MOL   H36515757   5.034   3.460   6.468  1.6306 -0.8319 -0.5077
   17MOL   H36615758   5.117   3.686   6.441 -1.3500  2.5599  0.1605
   17MOL   H36715759   5.122   3.886   6.167  1.7624  0.9318  1.0958
   17MOL   H36815760   5.094   3.911   6.331  1.5482 -0.4876  0.1456
   17MOL   H36915761   4.840   3.947   6.198 -0.5805  1.8180  0.4126
   17MOL   H37015762   4.841   4.281   6.188  2.1474  0.8914 -2.6132
   17MOL   H37115763   4.746   4.130   6.186  0.6140  1.2598  2.7302
   17MOL   H37215764   4.859   4.065   5.978 -2.6863  0.0400 -0.0034
   17MOL   H37315765   4.952   4.213   5.964 -0.1782  0.3498 -1.1083
   17MOL   H37415766   4.770   4.228   5.814  1.7656  1.9688 -0.0317
   17MOL   H37515767   4.666   4.169   5.942 -0.1830 -0.5825 -1.9184
   17MOL   H37615768   4.821   4.443   5.963 -0.1958 -0.4515  1.2758
   17MOL   H37715769   4.682   4.408   6.046 -0.6962 -0.3942 -0.1349
   17MOL   H37815770   4.638   4.572   5.869 -3.1217 -1.0399  0.8802
   17MOL   H37915771   4.700   4.464   5.751 -0.9678  1.0020 -0.5884
   17MOL   H38015772   4.460   4.394   5.936  3.1078 -1.7847  0.6496
   17MOL   H38115773   4.517   4.302   5.803 -1.0256 -1.1027  1.6148
   17MOL   H38215774   4.466   4.535   5.657  1.4819 -1.5680 -0.2975
   17MOL   H38315775   4.367   4.409   5.664  0.0149  0.9135 -1.0044
   17MOL   H38415776   4.357   4.635   5.860  1.3782 -0.8870  0.1201
   17MOL   H38515777   4.233   4.505   5.839  0.1272 -0.9243 -0.6571
   17MOL   N38615778   4.125   4.724   5.745  0.3791  0.0857 -0.1449
   17MOL   C38715779   4.024   4.787   5.661  0.0447 -0.1092  0.6337
   17MOL   C38815780   3.919   4.680   5.628  0.3033 -0.1370  0.7444
   17MOL   C38915781   3.864   4.617   5.741 -0.2612  0.1979  0.5539
   17MOL   C39015782   3.767   4.515   5.734  0.3853 -0.7082  0.5011
   17MOL   C39115783   3.721   4.470   5.608 -0.7518 -0.3818  0.7859
   17MOL   C39215784   3.777   4.535   5.492 -0.1349 -0.3111 -0.2981
   17MOL   C39315785   3.878   4.638   5.495 -0.0648  0.5703 -0.6924
   17MOL   C39415786   3.945   4.696   5.370 -0.4465 -0.4497  0.3327
   17MOL   N39515787   4.071   4.630   5.345 -1.2315  0.4462 -0.6538
   17MOL   C39615788   4.120   4.563   5.239  0.2456 -0.0481 -0.5559
   17MOL   O39715789   4.059   4.558   5.134  0.8028  0.4516  0.1504
   17MOL   C39815790   4.251   4.480   5.248  0.4830 -0.2036  0.3106
   17MOL   C39915791   4.225   4.337   5.284  0.3762  0.4046 -0.2979
   17MOL   C40015792   4.158   4.312   5.422  0.5952 -0.0219 -0.4390
   17MOL   C40115793   4.145   4.165   5.468 -0.3113  0.5700  0.0482
   17MOL   C40215794   4.107   4.155   5.618 -0.8198 -0.2012 -0.1468
   17MOL   C40315795   4.075   4.012   5.661 -0.6327  0.3434  0.0413
   17MOL   C40415796   4.069   3.996   5.806  0.4879  0.4327  0.4620
   17MOL   C40515797   4.034   3.856   5.843 -0.2946 -0.3560 -0.0397
   17MOL   C40615798   3.999   3.830   5.988  0.3121 -0.3288 -0.2565
   17MOL   O40715799   4.079   3.888   6.064 -0.3144 -0.6181 -0.1316
   17MOL   H40815800   4.104   4.712   5.844 -1.4559  2.1962 -0.2265
   17MOL   H40915801   3.992   4.881   5.707 -2.1596  1.0617 -3.0514
   17MOL   H41015802   4.063   4.827   5.568  0.1660 -1.2858  0.1687
   17MOL   H41115803   3.886   4.657   5.839 -2.5274 -0.7236  1.4684
   17MOL   H41215804   3.717   4.477   5.822  0.1755 -0.6075  0.4244
   17MOL   H41315805   3.649   4.391   5.597 -0.0847 -0.8506 -0.2983
   17MOL   H41415806   3.751   4.504   5.391 -0.8829 -1.7888  0.3413
   17MOL   H41515807   3.958   4.804   5.370 -1.7127 -0.2980  0.6762
   17MOL   H41615808   3.883   4.690   5.281  0.0867 -0.7266 -0.0224
   17MOL   H41715809   4.126   4.610   5.427 -0.1056 -0.8951 -1.7096
   17MOL   H41815810   4.303   4.499   5.155  0.0670 -2.1538 -0.3423
   17MOL   H41915811   4.314   4.525   5.325 -1.1230 -1.2984  2.3318
   17MOL   H42015812   4.319   4.282   5.275 -0.1710 -0.3128 -1.8223
   17MOL   H42115813   4.158   4.293   5.210  2.5473 -1.3759 -1.2778
   17MOL   H42215814   4.059   4.356   5.423 -0.6612 -2.7351  1.3730
   17MOL   H42315815   4.208   4.370   5.499 -0.5696 -0.9300  1.0275
   17MOL   H42415816   4.071   4.120   5.402 -1.5374  1.3979  0.8409
   17MOL   H42515817   4.242   4.116   5.459  0.4929  1.4595  3.1637
   17MOL   H42615818   4.182   4.194   5.686  0.0308  2.2982 -2.4299
   17MOL   H42715819   4.015   4.212   5.628 -1.4294 -0.9058 -1.5396
   17MOL   H42815820   4.157   3.952   5.620 -0.7708  0.1483  0.0495
   17MOL   H42915821   3.983   3.971   5.619 -0.0520 -0.8220 -0.1270
   17MOL   H43015822   3.988   4.061   5.840 -0.4695 -0.7555  0.4496
   17MOL   H43115823   4.159   4.021   5.863  2.7059 -2.1885 -1.7570
   17MOL   H43215824   4.113   3.788   5.810 -0.8714 -0.8002 -0.5211
   17MOL   H43315825   3.947   3.826   5.785  1.2445 -0.3689 -2.4146
   17MOL   N43415826   3.897   3.753   6.030  0.9648 -0.3814  0.3551
   17MOL   C43515827   3.861   3.718   6.168 -0.5278 -0.4124  0.8622
   17MOL   C43615828   3.739   3.787   6.224  0.4085 -0.5152  0.2893
   17MOL   C43715829   3.674   3.887   6.143 -0.2165 -0.6335  0.6165
   17MOL   C43815830   3.555   3.943   6.185  0.7230  0.7195 -0.1967
   17MOL   C43915831   3.510   3.919   6.318  0.2874 -0.3051  0.2778
   17MOL   C44015832   3.587   3.839   6.407  0.2166 -0.2435 -0.1323
   17MOL   C44115833   3.702   3.768   6.360 -0.6235 -0.0819  0.7427
   17MOL   C44215834   3.778   3.661   6.440 -0.3088 -0.3645 -0.1782
   17MOL   N44315835   3.700   3.601   6.547 -0.1411 -0.2395  0.1402
   17MOL   C44415836   3.657   3.471   6.537  0.5167 -0.2343  0.6572
   17MOL   O44515837   3.706   3.389   6.453  0.1304  0.2318 -0.5341
   17MOL   C44615838   3.538   3.436   6.623  0.0318 -0.5486  0.1944
   17MOL   C44715839   3.405   3.424   6.540 -0.7060 -0.0813 -0.2670
   17MOL   C44815840   3.327   3.299   6.571  1.1082 -0.0519 -0.2456
   17MOL   C44915841   3.179   3.303   6.520  0.0530 -0.6134 -0.4579
   17MOL   C45015842   3.152   3.315   6.362 -0.4227  0.2830 -0.0099
   17MOL   C45115843   3.210   3.208   6.272 -0.3190 -0.4217  0.0340
   17MOL   C45215844   3.156   3.063   6.272 -0.4310  0.0573 -0.3359
   17MOL   C45315845   3.195   2.988   6.138 -0.6410  0.8136 -0.2231
   17MOL   C45415846   3.141   2.843   6.135  0.1371  0.1071 -0.4139
   17MOL   O45515847   3.019   2.823   6.144  0.0351  0.2482  0.1804
   17MOL   H45615848   3.834   3.717   5.959  0.2003  2.0089 -0.1955
   17MOL   H45715849   3.952   3.730   6.227 -0.1822 -0.5142  0.3461
   17MOL   H45815850   3.841   3.611   6.166 -1.8884 -0.1777  1.0675
   17MOL   H45915851   3.704   3.902   6.040 -0.5510  1.3927  0.8134
   17MOL   H46015852   3.508   4.012   6.116 -1.3325 -0.6132 -0.1577
   17MOL   H46115853   3.418   3.965   6.348  0.6150 -0.9919  2.4089
   17MOL   H46215854   3.553   3.822   6.508 -1.8729 -0.1106 -0.7919
   17MOL   H46315855   3.874   3.691   6.482  1.6339 -3.8007 -1.9180
   17MOL   H46415856   3.810   3.588   6.366  0.6935  0.4167 -0.5176
   17MOL   H46515857   3.675   3.667   6.619  0.1203  1.4863 -1.3060
   17MOL   H46615858   3.512   3.508   6.701 -0.9544  0.1419 -0.7641
   17MOL   H46715859   3.567   3.340   6.666  0.5835 -0.5049 -0.0880
   17MOL   H46815860   3.422   3.414   6.433  1.8057 -2.6532  0.3231
   17MOL   H46915861   3.351   3.518   6.551 -0.9232 -0.3100  0.7279
   17MOL   H47015862   3.378   3.218   6.520 -0.9480 -2.0255  0.7736
   17MOL   H47115863   3.333   3.270   6.675 -0.4034 -0.3395 -0.2289
   17MOL   H47215864   3.126   3.209   6.534  1.4072 -1.8091 -3.0718
   17MOL   H47315865   3.134   3.382   6.580  2.2254 -0.6348  1.2787
   17MOL   H47415866   3.044   3.318   6.346 -0.4469 -1.6997 -0.3955
   17MOL   H47515867   3.179   3.414   6.326 -1.0813  0.2186 -0.6966
   17MOL   H47615868   3.316   3.216   6.296 -0.6740  3.6174  0.4655
   17MOL   H47715869   3.214   3.246   6.170  0.2068 -0.8933 -0.1269
   17MOL   H47815870   3.192   3.002   6.354 -0.2680 -0.4858 -0.8070
   17MOL   H47915871   3.051   3.073   6.296  0.0607  0.7375  1.5839
   17MOL   H48015872   3.157   3.039   6.050  1.2605  1.5823 -0.6254
   17MOL   H48115873   3.300   3.000   6.113 -0.0769  2.1214  2.5169
   17MOL   N48215874   3.234   2.748   6.118  0.4957  0.4422 -0.5676
   17MOL   C48315875   3.202   2.608   6.125 -0.0831  0.2703  0.7169
   17MOL   C48415876   3.329   2.521   6.112  0.3406 -0.0783 -0.9595
   17MOL   C48515877   3.355   2.440   6.221 -0.2084 -0.4230  0.1554
   17MOL   C48615878   3.470   2.365   6.227  0.2189 -0.0472  0.3826
   17MOL   C48715879   3.553   2.349   6.116  0.1094  0.3189  0.3247
   17MOL   C48815880   3.526   2.437   6.001 -0.1410  0.4221 -0.5707
   17MOL   C48915881   3.416   2.526   6.005 -0.0714 -0.7225  0.8739
   17MOL   C49015882   3.395   2.610   5.881 -0.3094 -0.4347 -0.0707
   17MOL   N49115883   3.519   2.690   5.860  0.3897 -0.0475  0.0171
   17MOL   C49215884   3.546   2.796   5.937  0.9734  0.0982  0.4018
   17MOL   O49315885   3.494   2.824   6.041  0.2714  0.2973  0.6515
   17MOL   C49415886   3.657   2.881   5.877 -0.1475  0.2296 -0.2522
   17MOL   C49515887   3.623   3.034   5.849 -0.0829  0.3387  0.7312
   17MOL   C49615888   3.599   3.120   5.980 -0.6096  0.3173  0.0488
   17MOL   C49715889   3.609   3.266   5.942 -0.2919  0.5604 -0.1506
   17MOL   C49815890   3.575   3.355   6.057  0.5527 -0.1226  0.5308
   17MOL   C49915891   3.577   3.500   6.028  0.4535 -0.0636  0.0163
   17MOL   C50015892   3.471   3.546   5.924  0.5972  0.2199  0.5605
   17MOL   C50115893   3.453   3.698   5.913  0.0316  0.1451  0.4295
   17MOL   C50215894   3.550   3.772   5.825  0.3405  0.3234 -0.0855
   17MOL   O50315895   3.654   3.723   5.794  0.4920  0.1737 -0.0134
   17MOL   H50415896   3.331   2.778   6.118  0.8377 -0.5929 -2.4287
   17MOL   H50515897   3.161   2.595   6.225  0.2074  0.9097  0.9271
   17MOL   H50615898   3.132   2.573   6.049  2.1723 -2.3134 -0.2630
   17MOL   H50715899   3.290   2.443   6.308 -1.2430 -1.8350 -0.5328
   17MOL   H50815900   3.491   2.314   6.319 -0.8929  0.1175  0.7341
   17MOL   H50915901   3.638   2.283   6.108  0.3792  0.6838  0.1555
   17MOL   H51015902   3.594   2.430   5.918  2.5657  1.3296  1.4878
   17MOL   H51115903   3.315   2.684   5.891  0.9448  0.9971 -0.3076
   17MOL   H51215904   3.373   2.567   5.783 -3.5055  1.7444 -0.3918
   17MOL   H51315905   3.585   2.649   5.795  0.2858 -1.5962  0.8412
   17MOL   H51415906   3.712   2.829   5.798 -2.4972 -1.9286 -0.5706
   17MOL   H51515907   3.738   2.882   5.950  0.6443 -2.3283 -1.0344
   17MOL   H51615908   3.539   3.048   5.780  0.9887 -0.7188 -0.8310
   17MOL   H51715909   3.709   3.080   5.799 -1.2332  1.3593 -0.3403
   17MOL   H51815910   3.502   3.096   6.024 -1.5653  1.7777 -1.2092
   17MOL   H51915911   3.669   3.106   6.062  2.0019 -0.8568 -2.2846
   17MOL   H52015912   3.714   3.288   5.925  0.2092  1.4697  3.6713
   17MOL   H52115913   3.547   3.270   5.852 -0.2646  0.0450 -0.1933
   17MOL   H52215914   3.475   3.327   6.090 -0.5394  1.6016 -1.1421
   17MOL   H52315915   3.643   3.338   6.140  0.3777 -2.5244  0.2166
   17MOL   H52415916   3.677   3.535   6.002  1.0759 -2.1192 -0.4502
   17MOL   H52515917   3.554   3.547   6.124  1.6062  2.2180 -0.7812
   17MOL   H52615918   3.487   3.505   5.824  1.2515  2.3831 -0.2745
   17MOL   H52715919   3.378   3.505   5.962  1.0861 -0.4806  1.0096
   17MOL   H52815920   3.468   3.727   6.017  2.5178 -0.7147  0.3236
   17MOL   H52915921   3.350   3.699   5.877  0.0630 -3.5000  0.0661
   17MOL   N53015922   3.513   3.897   5.794  0.7067  0.7679 -0.8666
   17MOL   C53115923   3.578   4.004   5.721  0.4596 -0.1079 -0.1528
   17MOL   C53215924   3.594   4.120   5.811  0.3822 -0.6231 -0.3513
   17MOL   C53315925   3.714   4.131   5.886  0.4336 -0.2888 -0.6150
   17MOL   C53415926   3.725   4.237   5.980  0.7865  0.4798 -0.0814
   17MOL   C53515927   3.619   4.332   5.997  0.3823  0.2930 -0.1393
   17MOL   C53615928   3.496   4.311   5.933  0.2633  0.1849  0.0720
   17MOL   C53715929   3.477   4.205   5.833  0.0414  0.4659 -1.2056
   17MOL   C53815930   3.341   4.190   5.770  0.3244 -0.6342 -0.4653
   17MOL   N53915931   3.228   4.197   5.872  0.1575 -0.4354  0.0847
   17MOL   C54015932   3.189   4.089   5.941  0.6735  0.2439 -0.0464
   17MOL   O54115933   3.242   3.983   5.942  0.1553 -0.1879  0.5330
   17MOL   C54215934   3.057   4.110   6.021 -0.0973  0.1511  0.3016
   17MOL   C54315935   2.938   4.118   5.923  0.3557 -0.1559 -0.2353
   17MOL   C54415936   2.799   4.116   5.999  0.3595  0.4163  0.0325
   17MOL   C54515937   2.679   4.146   5.901  1.0563 -0.1918 -0.1208
   17MOL   C54615938   2.621   4.287   5.913 -0.4561  0.6888 -0.0853
   17MOL   C54715939   2.533   4.326   5.797 -0.0265  0.7533 -0.1346
   17MOL   C54815940   2.478   4.464   5.802 -0.4278  0.5527 -0.9063
   17MOL   C54915941   2.578   4.577   5.775 -0.6056  0.3922  0.8208
   17MOL   C55015942   2.636   4.638   5.901 -0.1180  0.8194  0.2485
   17MOL   O55115943   2.615   4.583   6.011  0.1076 -0.3130 -0.3642
   17MOL   H55215944   3.429   3.927   5.841  1.4630  0.8248  0.4899
   17MOL   H55315945   3.531   4.020   5.624 -2.2813 -0.8100  1.0249
   17MOL   H55415946   3.677   3.972   5.689 -0.1802 -0.2732 -2.0406
   17MOL   H55515947   3.794   4.060   5.869  1.6865  1.0283 -0.3964
   17MOL   H55615948   3.808   4.239   6.050  0.0034 -0.0644  0.8726
   17MOL   H55715949   3.630   4.409   6.072 -3.0717  1.9493 -1.2315
   17MOL   H55815950   3.414   4.376   5.958  0.4809  0.2390  0.6437
   17MOL   H55915951   3.326   4.105   5.704  0.1546 -0.0138 -1.2387
   17MOL   H56015952   3.331   4.268   5.695 -1.6472 -0.4621 -0.0372
   17MOL   H56115953   3.167   4.278   5.865 -1.8807 -1.9830 -0.4581
   17MOL   H56215954   3.057   4.202   6.079  1.9908 -0.3217  1.0754
   17MOL   H56315955   3.044   4.035   6.100  1.1157 -1.3192 -0.8546
   17MOL   H56415956   2.938   4.034   5.853  0.2889  0.2720 -0.7446
   17MOL   H56515957   2.950   4.209   5.865 -0.4232 -0.1655 -0.4124
   17MOL   H56615958   2.788   4.024   6.056 -0.9297  0.2979 -0.3908
   17MOL   H56715959   2.798   4.196   6.073 -3.1709  1.9809 -1.5576
   17MOL   H56815960   2.717   4.139   5.800 -1.9709  0.3221 -1.3441
   17MOL   H56915961   2.598   4.074   5.901 -0.6952  1.7273 -1.3007
   17MOL   H57015962   2.562   4.281   6.005 -0.2466 -0.9538 -0.0378
   17MOL   H57115963   2.695   4.366   5.929  2.1171 -1.6903  0.0642
   17MOL   H57215964   2.441   4.268   5.798 -0.2806  1.1214 -1.2055
   17MOL   H57315965   2.579   4.306   5.700 -0.6143 -1.5417  0.0251
   17MOL   H57415966   2.396   4.475   5.731 -1.1157 -1.2977 -0.4065
   17MOL   H57515967   2.431   4.485   5.898  1.4983 -1.4640  0.5001
   17MOL   H57615968   2.519   4.653   5.724  0.1249  0.3730 -0.0812
   17MOL   H57715969   2.654   4.532   5.710 -3.4429  1.9192 -3.8327
   17MOL   N57815970   2.714   4.748   5.888  0.8171 -0.1240  0.2116
   17MOL   C57915971   2.750   4.831   5.776  0.2200  0.2383  0.5049
   17MOL   C58015972   2.795   4.974   5.802 -1.1955  0.0194  0.3294
   17MOL   C58115973   2.784   5.019   5.938  0.9018  0.6399 -0.7230
   17MOL   C58215974   2.818   5.149   5.977  0.5736  0.1922  0.1906
   17MOL   C58315975   2.865   5.242   5.887  0.3068 -0.3207 -0.4425
   17MOL   C58415976   2.894   5.201   5.758  0.4247 -0.1286  0.7798
   17MOL   C58515977   2.866   5.071   5.718  0.2985 -0.0674  0.1134
   17MOL   C58615978   2.895   5.018   5.573 -0.1618  0.8885 -0.3966
   17MOL   N58715979   2.763   5.007   5.513 -0.0840 -0.2892 -0.8661
   17MOL   C58815980   2.707   5.108   5.437  0.6288  0.6057  0.0721
   17MOL   O58915981   2.757   5.220   5.425  0.9319 -0.1984  1.1203
   17MOL   C59015982   2.576   5.074   5.360  0.1825  0.6001 -0.1852
   17MOL   C59115983   2.604   5.031   5.214  0.2179 -0.1838 -0.0453
   17MOL   C59215984   2.484   4.979   5.144 -0.0678  0.2724  0.1510
   17MOL   C59315985   2.507   4.990   4.991  1.3012 -0.4860 -0.6317
   17MOL   C59415986   2.601   4.893   4.926 -0.6576  0.3282  0.4625
   17MOL   C59515987   2.667   4.945   4.795 -0.4929 -1.2130  0.0250
   17MOL   C59615988   2.563   4.948   4.686  0.4398 -0.5742 -0.1948
   17MOL   C59715989   2.503   5.089   4.642 -0.3360  0.7639  0.1462
   17MOL   C59815990   2.600   5.168   4.553 -0.2608  0.5639  0.7178
   17MOL   O59915991   2.705   5.193   4.601  0.1110  0.1105 -0.2579
   17MOL   H60015992   2.742   4.782   5.979 -1.7559  1.0044  0.6398
   17MOL   H60115993   2.665   4.836   5.707  1.0862  0.3068 -0.5576
   17MOL   H60215994   2.834   4.781   5.728 -1.0721 -0.4220 -1.1378
   17MOL   H60315995   2.757   4.953   6.020 -1.6235  0.2570 -1.7934
   17MOL   H60415996   2.794   5.193   6.073 -0.4073 -1.8894  0.9346
   17MOL   H60515997   2.885   5.345   5.912 -0.2421 -0.0144 -1.2464
   17MOL   H60615998   2.935   5.269   5.684 -1.5948 -0.8051 -1.0155
   17MOL   H60715999   2.952   4.925   5.566  1.6850  2.1389 -2.1970
   17MOL   H60816000   2.941   5.096   5.513 -0.1006 -0.3617 -2.0082
   17MOL   H60916001   2.718   4.917   5.509  0.7964 -0.7248 -0.9620
   17MOL   H61016002   2.500   5.152   5.366  0.0459  0.5681 -1.3355
   17MOL   H61116003   2.541   4.986   5.414 -0.2372  0.4623 -0.6731
   17MOL   H61216004   2.689   4.963   5.211 -0.3481 -0.9774  1.2424
   17MOL   H61316005   2.638   5.124   5.168  2.5282 -0.7134  0.5489
   17MOL   H61416006   2.458   4.880   5.181 -0.8894  0.8503  1.1491
   17MOL   H61516007   2.401   5.043   5.175  0.6557  1.8849 -1.1901
   17MOL   H61616008   2.411   4.985   4.940  0.4169 -0.9367  1.0364
   17MOL   H61716009   2.549   5.088   4.972 -0.4155  0.4138  0.1433
   17MOL   H61816010   2.689   4.886   4.990 -0.0267  0.2434 -0.4068
   17MOL   H61916011   2.562   4.791   4.917 -0.0065  0.0462  0.8141
   17MOL   H62016012   2.728   4.861   4.762  1.1920  0.1003 -0.2914
   17MOL   H62116013   2.724   5.037   4.805  1.1030 -1.8045 -3.0182
   17MOL   H62216014   2.607   4.919   4.591  1.5704 -0.1073  0.1770
   17MOL   H62316015   2.485   4.876   4.710  0.5239 -1.1485 -1.6167
   17MOL   H62416016   2.414   5.070   4.582 -0.5515 -0.0692  0.7177
   17MOL   H62516017   2.482   5.136   4.737  1.2890  0.5579  0.6253
   17MOL   N62616018   2.556   5.217   4.435 -0.7157  0.3753 -0.0822
   17MOL   C62716019   2.635   5.294   4.341 -0.3003  0.1968  0.2097
   17MOL   C62816020   2.561   5.421   4.297  0.0348  0.9650  0.3520
   17MOL   C62916021   2.461   5.407   4.197 -0.0311 -0.9422  0.2946
   17MOL   C63016022   2.390   5.518   4.139  0.9595  0.4462 -0.0789
   17MOL   C63116023   2.424   5.642   4.197  0.4787  0.4553  0.1811
   17MOL   C63216024   2.519   5.658   4.300 -0.1729 -0.0962  0.3743
   17MOL   C63316025   2.594   5.550   4.350 -0.4055  0.3827  0.0268
   17MOL   C63416026   2.700   5.571   4.455 -0.3604 -0.0106  0.2334
   17MOL   N63516027   2.758   5.701   4.459 -0.4563 -0.2256 -0.4959
   17MOL   C63616028   2.731   5.793   4.557 -0.7387  0.0417 -0.6661
   17MOL   O63716029   2.646   5.772   4.645  0.2153 -0.2113 -0.0821
   17MOL   C63816030   2.806   5.923   4.550 -0.4661  0.4658 -0.1093
   17MOL   C63916031   2.830   6.000   4.684 -0.1692  0.0889 -0.4811
   17MOL   C64016032   2.902   6.137   4.670 -0.0326  0.5892  0.3042
   17MOL   C64116033   3.043   6.143   4.596  0.6110  0.7525  0.1528
   17MOL   C64216034   3.094   6.283   4.581  0.3396 -0.0541 -0.4772
   17MOL   C64316035   3.224   6.302   4.500 -0.3174 -0.9625 -0.3941
   17MOL   C64416036   3.287   6.438   4.535 -1.3239  0.2933  0.2820
   17MOL   C64516037   3.401   6.484   4.448 -0.5746 -0.5837 -0.5126
   17MOL   C64616038   3.354   6.485   4.306 -0.2175  0.9179  0.5221
   17MOL   O64716039   3.253   6.546   4.276 -0.1490  0.0073 -0.3087
   17MOL   H64816040   2.460   5.196   4.411 -0.9394 -1.4550  2.2244
   17MOL   H64916041   2.634   5.223   4.258  0.7481  1.1861 -0.6747
   17MOL   H65016042   2.735   5.304   4.384 -0.1060  0.8744 -0.3878
   17MOL   H65116043   2.449   5.307   4.159  1.6520 -0.8850 -0.4319
   17MOL   H65216044   2.323   5.505   4.055 -0.9372 -0.6985  1.5629
   17MOL   H65316045   2.377   5.731   4.156 -0.0005 -0.3542 -1.0747
   17MOL   H65416046   2.542   5.761   4.324 -0.1425  0.8956 -3.6668
   17MOL   H65516047   2.777   5.495   4.447  1.6016  1.9511  0.0959
   17MOL   H65616048   2.650   5.544   4.549 -1.1908 -0.1360 -0.2387
   17MOL   H65716049   2.835   5.717   4.396 -0.4972  0.3837 -0.4012
   17MOL   H65816050   2.758   5.989   4.478  0.3321  0.9309 -0.2177
   17MOL   H65916051   2.902   5.902   4.503 -0.5735 -2.3010  0.8076
   17MOL   H66016052   2.906   5.949   4.743 -1.0101  0.0900  0.6225
   17MOL   H66116053   2.739   5.999   4.743  0.6061  0.2994  0.7523
   17MOL   H66216054   2.838   6.205   4.614 -0.6444  1.2136  1.7381
   17MOL   H66316055   2.917   6.186   4.766 -2.5419 -0.4743  1.2800
   17MOL   H66416056   3.124   6.086   4.642  1.1930  0.6454 -0.9970
   17MOL   H66516057   3.033   6.092   4.501 -0.2523 -0.9461  1.1467
   17MOL   H66616058   3.019   6.351   4.541  0.3717  1.3631  1.7883
   17MOL   H66716059   3.104   6.325   4.682  0.1155  2.1351 -1.3489
   17MOL   H66816060   3.184   6.301   4.399  2.9645 -2.7357 -1.7656
   17MOL   H66916061   3.294   6.221   4.523  0.7572  0.2593  0.6923
   17MOL   H67016062   3.207   6.512   4.532 -0.6282  1.0700  0.3903
   17MOL   H67116063   3.317   6.417   4.638 -2.5327 -1.0276  0.3739
   17MOL   H67216064   3.496   6.436   4.473 -0.0160  0.8836  0.2305
   17MOL   H67316065   3.433   6.587   4.465 -0.1486 -0.5685 -1.3799
   17MOL   N67416066   3.427   6.423   4.219 -0.4477  0.4479 -0.6322
   17MOL   C67516067   3.384   6.391   4.084 -0.0833 -0.1036  0.0142
   17MOL   C67616068   3.326   6.258   4.052 -0.2235  0.3214 -0.0260
   17MOL   C67716069   3.373   6.160   4.144  0.6318 -0.8863 -0.0194
   17MOL   C67816070   3.325   6.027   4.134  0.0639 -0.1059  0.1906
   17MOL   C67916071   3.219   6.003   4.044  0.2292  0.3398 -0.2307
   17MOL   C68016072   3.173   6.093   3.953  0.7613  0.3641 -0.2684
   17MOL   C68116073   3.225   6.225   3.957 -0.1459 -0.2456 -0.2698
   17MOL   C68216074   3.177   6.321   3.853 -0.1920 -0.1100  0.0264
   17MOL   N68316075   3.178   6.266   3.716  0.2407 -0.5010  0.3028
   17MOL   C68416076   3.065   6.264   3.644 -0.0991  0.4624 -0.4923
   17MOL   O68516077   2.959   6.312   3.691  0.0270 -0.2072 -0.1225
   17MOL   C68616078   3.076   6.204   3.506 -0.2882  0.4298  0.6625
   17MOL   C68716079   3.120   6.057   3.502  0.1972  0.8789  0.6338
   17MOL   C68816080   3.219   6.024   3.392  0.2230 -0.6404  0.3789
   17MOL   C68916081   3.275   5.880   3.380 -0.1170 -0.5277 -0.4888
   17MOL   C69016082   3.378   5.876   3.264  0.1303  0.2121 -0.3078
   17MOL   C69116083   3.404   5.736   3.204  0.2260 -0.0307 -0.2647
   17MOL   C69216084   3.468   5.646   3.302  0.3750 -0.0071 -0.4550
   17MOL   C69316085   3.546   5.530   3.234  0.1412  0.3327  0.0531
   17MOL   C69416086   3.637   5.452   3.330  0.7260 -0.2858 -0.0759
   17MOL   O69516087   3.628   5.465   3.453  0.1136  0.3252 -0.1774
   17MOL   H69616088   3.517   6.390   4.250  0.3834  1.0853 -2.2919
   17MOL   H69716089   3.472   6.416   4.025 -0.2127  3.0345  1.0255
   17MOL   H69816090   3.318   6.471   4.050 -0.2381 -0.6794 -1.0329
   17MOL   H69916091   3.445   6.175   4.223 -0.3685 -0.3831  0.8043
   17MOL   H70016092   3.374   5.949   4.190  1.2309  0.5502  0.0977
   17MOL   H70116093   3.180   5.902   4.040  1.0713 -0.0868  1.9882
   17MOL   H70216094   3.092   6.062   3.889  0.6587  1.6241 -0.7627
   17MOL   H70316095   3.239   6.411   3.854 -1.5334  0.8274 -0.4531
   17MOL   H70416096   3.083   6.361   3.892  0.6304  3.0306 -1.0428
   17MOL   H70516097   3.256   6.209   3.689  0.8895  0.7062 -0.4319
   17MOL   H70616098   3.156   6.257   3.454 -0.1047 -1.2728 -0.8132
   17MOL   H70716099   2.982   6.214   3.452  0.7077  0.2952 -1.1363
   17MOL   H70816100   3.035   5.994   3.474  0.2114  0.6166  1.1595
   17MOL   H70916101   3.180   6.022   3.586  0.5082 -1.9459 -0.6988
   17MOL   H71016102   3.176   6.051   3.296  2.2378  0.3232 -0.2652
   17MOL   H71116103   3.309   6.085   3.400 -0.6051  0.7564 -0.8048
   17MOL   H71216104   3.333   5.860   3.470  1.6504 -0.8036 -1.6660
   17MOL   H71316105   3.191   5.813   3.361 -0.9376  0.4630 -0.3840
   17MOL   H71416106   3.351   5.945   3.184 -0.0650  1.9604  1.2344
   17MOL   H71516107   3.471   5.920   3.301  0.9321 -0.0127 -1.9932
   17MOL   H71616108   3.478   5.755   3.126 -1.4724 -0.3290 -1.9844
   17MOL   H71716109   3.311   5.705   3.155 -0.5519  2.0463 -0.1710
   17MOL   H71816110   3.394   5.610   3.374  0.7226 -0.1907 -0.1881
   17MOL   H71916111   3.535   5.710   3.360 -2.0191  0.7277  1.5893
   17MOL   H72016112   3.613   5.573   3.161  0.8488 -0.9749 -0.0821
   17MOL   H72116113   3.485   5.459   3.178 -0.0373  0.3226  0.2567
   17MOL   N72216114   3.713   5.364   3.265  0.1487  1.1650 -0.4584
   17MOL   C72316115   3.791   5.262   3.334 -0.5722  0.3187 -0.3210
   17MOL   C72416116   3.917   5.222   3.262 -0.8355  0.4433 -0.2637
   17MOL   C72516117   4.000   5.327   3.219 -0.5026  0.4384  0.3494
   17MOL   C72616118   4.113   5.301   3.139  0.0388  0.4685 -1.0615
   17MOL   C72716119   4.138   5.170   3.098  0.3702 -0.5521 -0.4751
   17MOL   C72816120   4.051   5.069   3.134  0.3397 -0.0004 -0.7578
   17MOL   C72916121   3.934   5.096   3.204  1.2119  1.0742 -0.8279
   17MOL   C73016122   3.841   4.983   3.220  0.2375 -0.1504 -0.5558
   17MOL   N73116123   3.840   4.944   3.360  0.1904 -0.2731  0.3410
   17MOL   C73216124   3.742   4.878   3.426 -0.2321 -0.0988 -0.0306
   17MOL   O73316125   3.631   4.871   3.380 -0.3564 -0.1874  0.3895
   17MOL   C73416126   3.779   4.809   3.561 -0.6562  0.5142  0.5522
   17MOL   C73516127   3.671   4.712   3.613 -0.8831  0.4056  0.0839
   17MOL   C73616128   3.550   4.780   3.664  0.6080 -0.0976 -0.0536
   17MOL   C73716129   3.444   4.694   3.730  0.9431 -0.7550 -1.0524
   17MOL   C73816130   3.316   4.768   3.783 -0.3133 -0.5850  0.0674
   17MOL   C73916131   3.324   4.816   3.932 -0.2681 -0.1709  0.1086
   17MOL   C74016132   3.274   4.723   4.044  0.5440 -0.1626 -0.2513
   17MOL   C74116133   3.255   4.803   4.177 -0.0175  0.3174  0.4884
   17MOL   C74216134   3.184   4.711   4.281  0.4458  0.5912 -0.1050
   17MOL   O74316135   3.165   4.594   4.253  0.9334 -0.3851  0.0314
   17MOL   H74416136   3.706   5.360   3.164 -0.7945 -0.4239 -0.3505
   17MOL   H74516137   3.734   5.172   3.357 -0.5297  0.1795 -0.7637
   17MOL   H74616138   3.814   5.306   3.431 -1.7214 -0.4738  0.3255
   17MOL   H74716139   3.970   5.430   3.237 -1.9412  0.1577 -0.3387
   17MOL   H74816140   4.180   5.379   3.106  1.0326  0.5195  0.9463
   17MOL   H74916141   4.230   5.153   3.043  1.2867  1.4087  0.4234
   17MOL   H75016142   4.068   4.975   3.084  1.8615  1.1083 -2.3861
   17MOL   H75116143   3.878   4.896   3.167  0.4961  0.4660 -1.3840
   17MOL   H75216144   3.740   5.010   3.189  0.0587 -0.0767  0.0842
   17MOL   H75316145   3.926   4.951   3.411  0.4544  1.9175 -0.3177
   17MOL   H75416146   3.787   4.882   3.641 -1.6489  0.6271  0.5523
   17MOL   H75516147   3.875   4.758   3.549 -0.6018  0.6445  0.4317
   17MOL   H75616148   3.708   4.657   3.699  2.0626  0.1150 -1.3282
   17MOL   H75716149   3.645   4.634   3.541  0.9134 -1.0179  0.9311
   17MOL   H75816150   3.586   4.854   3.735 -1.3321  1.4303 -0.5955
   17MOL   H75916151   3.495   4.824   3.580 -0.8173 -2.5479 -0.4486
   17MOL   H76016152   3.415   4.617   3.658  1.6237 -1.4411 -0.5989
   17MOL   H76116153   3.500   4.644   3.809 -0.4443 -1.9152 -0.7700
   17MOL   H76216154   3.286   4.843   3.710  0.0330 -1.3089 -0.8370
   17MOL   H76316155   3.234   4.697   3.767  0.5090 -0.9398 -2.7384
   17MOL   H76416156   3.258   4.902   3.926 -0.7032 -0.5923 -1.3410
   17MOL   H76516157   3.426   4.850   3.953  0.5521 -1.9440 -0.8098
   17MOL   H76616158   3.176   4.686   4.015  0.0011  1.0884 -0.0505
   17MOL   H76716159   3.343   4.639   4.044  2.6970  1.5241  2.0126
   17MOL   H76816160   3.353   4.844   4.205 -0.5150  2.4434 -0.7761
   17MOL   H76916161   3.185   4.885   4.162 -1.5248 -0.9845  0.3234
   17MOL   N77016162   3.156   4.771   4.400  1.1586  0.2009  0.5108
   17MOL   C77116163   3.092   4.691   4.506 -0.2867 -0.2629 -0.1050
   17MOL   C77216164   3.120   4.730   4.645  0.0356 -0.0447 -0.2703
   17MOL   C77316165   3.012   4.731   4.730  0.1096 -0.2310 -1.4095
   17MOL   C77416166   3.030   4.766   4.869  0.6498 -0.5348  0.1574
   17MOL   C77516167   3.159   4.802   4.914 -0.0012 -0.2027  0.1745
   17MOL   C77616168   3.265   4.800   4.824 -0.1532 -0.1202  0.2937
   17MOL   C77716169   3.249   4.770   4.688  0.1113 -0.3588 -0.5571
   17MOL   C77816170   3.370   4.770   4.600  0.0252  0.7084  0.5427
   17MOL   N77916171   3.396   4.900   4.531  0.0038 -0.0290  0.8249
   17MOL   C78016172   3.502   4.920   4.456  0.2783 -0.3236 -0.1805
   17MOL   O78116173   3.576   4.825   4.430  0.4870 -0.4954  0.2068
   17MOL   C78216174   3.536   5.055   4.400  0.1944  0.1712 -0.6547
   17MOL   C78316175   3.682   5.089   4.392 -0.3998 -0.5642  0.0324
   17MOL   C78416176   3.720   5.241   4.377 -0.0463  0.3350  0.1549
   17MOL   C78516177   3.843   5.269   4.283  0.3373 -0.4680 -0.7446
   17MOL   C78616178   3.905   5.409   4.304  0.1792 -0.1684 -0.4514
   17MOL   C78716179   3.813   5.529   4.268  0.6200 -0.2487  0.5639
   17MOL   C78816180   3.878   5.668   4.248  0.2537  0.0649 -0.1010
   17MOL   C78916181   3.949   5.721   4.375 -0.5694  0.3639 -0.0899
   17MOL   C79016182   4.017   5.852   4.347  0.0050  1.0551  0.0427
   17MOL   O79116183   3.949   5.945   4.294 -0.2639 -0.1215 -0.0292
   17MOL   H79216184   3.179   4.869   4.399  0.1863  0.4446  1.0394
   17MOL   H79316185   2.984   4.698   4.494  0.1674  3.2604 -3.0882
   17MOL   H79416186   3.112   4.585   4.494 -2.3817 -0.8503  1.2902
   17MOL   H79516187   2.909   4.707   4.704 -0.2431  1.3963 -1.5593
   17MOL   H79616188   2.950   4.770   4.942  0.0204  0.7657 -0.5931
   17MOL   H79716189   3.169   4.829   5.018  2.0413  0.1526 -0.0971
   17MOL   H79816190   3.362   4.814   4.869  0.5045  1.3734 -1.5185
   17MOL   H79916191   3.379   4.687   4.531 -0.7257  0.5505  0.6374
   17MOL   H80016192   3.449   4.773   4.676 -0.0325  1.8804  0.5694
   17MOL   H80116193   3.319   4.966   4.531  0.0141  0.0117  2.5942
   17MOL   H80216194   3.491   5.133   4.462 -0.2064 -1.1093  0.6874
   17MOL   H80316195   3.482   5.062   4.305  0.2406  1.7310 -0.5920
   17MOL   H80416196   3.714   5.027   4.308  0.9218  1.2237 -0.8263
   17MOL   H80516197   3.722   5.051   4.485 -0.2187 -1.1387 -0.2802
   17MOL   H80616198   3.714   5.289   4.474  1.3108 -0.7253  0.7847
   17MOL   H80716199   3.643   5.300   4.327  1.8240  0.8035 -2.2729
   17MOL   H80816200   3.923   5.199   4.307 -2.6193 -2.8344  2.6554
   17MOL   H80916201   3.804   5.253   4.182  1.7929 -2.4873 -1.0271
   17MOL   H81016202   3.947   5.411   4.405 -2.1833  0.0658  0.5637
   17MOL   H81116203   4.001   5.420   4.253  0.1524  1.1598 -0.2087
   17MOL   H81216204   3.746   5.544   4.353  0.7340  2.7889  0.1770
   17MOL   H81316205   3.755   5.497   4.182  0.5364 -0.4447  0.6914
   17MOL   H81416206   3.801   5.743   4.227 -0.3978 -1.4744 -3.7156
   17MOL   H81516207   3.957   5.665   4.173  0.3007  2.2191 -0.1735
   17MOL   H81616208   4.018   5.649   4.418 -1.9616 -0.0273  1.5604
   17MOL   H81716209   3.877   5.751   4.452  0.6803 -1.1454  1.7058
   17MOL   N81816210   4.127   5.878   4.419 -0.1155  0.5377  0.2732
   17MOL   C81916211   4.192   6.010   4.414 -0.0737 -0.4911  0.4569
   17MOL   C82016212   4.259   6.044   4.548  0.7433 -0.1312  0.3333
   17MOL   C82116213   4.401   6.053   4.549  0.1217 -0.5515  0.7563
   17MOL   C82216214   4.478   6.078   4.662 -1.0630 -0.0256 -0.6324
   17MOL   C82316215   4.413   6.095   4.788  0.3221  0.6268 -0.3660
   17MOL   C82416216   4.271   6.077   4.794  0.3978  0.1114  0.5413
   17MOL   C82516217   4.192   6.057   4.679  0.5318 -0.0566 -0.6257
   17MOL   C82616218   4.035   6.056   4.688 -0.5806 -1.3479 -0.4440
   17MOL   N82716219   3.980   5.919   4.710 -0.4974 -0.2765 -0.0091
   17MOL   C82816220   3.869   5.886   4.772 -0.0107 -0.2570  0.0126
   17MOL   O82916221   3.786   5.971   4.809  0.4316  0.5989 -0.2404
   17MOL   C83016222   3.836   5.739   4.791 -0.1692  0.3888  0.2997
   17MOL   C83116223   3.733   5.716   4.908 -0.1718  0.1176 -0.2892
   17MOL   C83216224   3.589   5.712   4.857  0.2877  0.3310  0.0970
   17MOL   C83316225   3.483   5.654   4.951 -0.0341 -0.0167  0.1701
   17MOL   C83416226   3.471   5.739   5.075 -0.0144 -0.8358  0.4032
   17MOL   C83516227   3.373   5.682   5.179 -0.3497 -0.3164  0.4333
   17MOL   C83616228   3.337   5.783   5.284  0.4769 -0.2659  0.2294
   17MOL   C83716229   3.284   5.728   5.420 -0.3201  0.4037 -0.4648
   17MOL   C83816230   3.273   5.840   5.524  0.1597 -0.1023 -0.2529
   17MOL   O83916231   3.381   5.888   5.559 -0.4986 -0.1329 -0.3453
   17MOL   H84016232   4.170   5.804   4.472  0.1787  0.5793  0.0966
   17MOL   H84116233   4.262   6.021   4.331 -0.4044 -1.2500  0.0734
   17MOL   H84216234   4.105   6.075   4.401  0.8529  0.5775 -0.5253
   17MOL   H84316235   4.454   6.020   4.461  0.1542 -0.7585  0.8537
   17MOL   H84416236   4.585   6.090   4.651 -1.1353 -0.1488 -1.4498
   17MOL   H84516237   4.475   6.103   4.876  2.9793  2.3659 -2.3036
   17MOL   H84616238   4.223   6.063   4.889  3.2684  2.9792  2.5350
   17MOL   H84716239   3.990   6.120   4.612 -1.2047  0.5412  1.4808
   17MOL   H84816240   4.009   6.101   4.783 -1.5319 -0.2044 -1.2367
   17MOL   H84916241   4.040   5.839   4.693  0.0402  0.0715  0.2300
   17MOL   H85016242   3.931   5.692   4.816 -0.2986 -0.4732 -0.8182
   17MOL   H85116243   3.810   5.700   4.693  4.2171 -1.9637 -0.0774
   17MOL   H85216244   3.746   5.780   4.995 -1.4458 -1.5573  1.1520
   17MOL   H85316245   3.754   5.617   4.948  1.2034  0.8168  0.7488
   17MOL   H85416246   3.591   5.654   4.765 -1.8515  1.5888 -0.7820
   17MOL   H85516247   3.564   5.816   4.832  1.8321  0.3901 -1.2789
   17MOL   H85616248   3.386   5.653   4.901  0.2049 -2.7779 -0.3074
   17MOL   H85716249   3.514   5.554   4.981 -0.8639  0.2281  1.9417
   17MOL   H85816250   3.562   5.754   5.133 -0.7005  2.4078  0.7273
   17MOL   H85916251   3.439   5.842   5.060  0.5028 -0.5529  1.1945
   17MOL   H86016252   3.406   5.588   5.222 -1.0069 -0.3608  0.8474
   17MOL   H86116253   3.282   5.650   5.129 -1.1765  3.1139 -0.3483
   17MOL   H86216254   3.270   5.858   5.241  0.2482 -0.1491  0.7859
   17MOL   H86316255   3.428   5.833   5.315  0.7651 -2.0495  2.4094
   17MOL   H86416256   3.188   5.679   5.404 -0.6993  0.9912 -0.0267
   17MOL   H86516257   3.346   5.651   5.465 -0.6938 -0.2422 -1.0499
   17MOL   N86616258   3.159   5.878   5.583  0.4485  0.1945 -0.3290
   17MOL   C86716259   3.131   5.984   5.679 -0.2642  0.1764 -0.4843
   17MOL   C86816260   3.002   6.061   5.663  0.2085  0.9374  0.3412
   17MOL   C86916261   2.911   6.014   5.567  0.1679  0.2946  0.6018
   17MOL   C87016262   2.786   6.073   5.547 -0.1474  0.1673  0.5342
   17MOL   C87116263   2.749   6.180   5.630  0.2226  0.0379 -0.8398
   17MOL   C87216264   2.838   6.228   5.728  0.0341 -0.2279  0.3385
   17MOL   C87316265   2.962   6.158   5.752 -0.2101 -0.4224  0.6502
   17MOL   C87416266   3.048   6.201   5.873  0.3635 -0.0077 -0.0135
   17MOL   N87516267   3.158   6.283   5.825  0.0412  0.3927 -0.3789
   17MOL   C87616268   3.133   6.406   5.774 -0.2501 -0.0602  0.3977
   17MOL   O87716269   3.025   6.457   5.763 -0.8109  0.4767  0.0084
   17MOL   C87816270   3.244   6.488   5.718 -0.1250  0.9038 -0.4480
   17MOL   C87916271   3.242   6.495   5.561 -0.4148  0.0889  0.4168
   17MOL   C88016272   3.272   6.355   5.499 -0.7503 -0.3149 -0.3671
   17MOL   C88116273   3.258   6.345   5.341 -0.2931  0.6010  0.1300
   17MOL   C88216274   3.277   6.198   5.289  0.3068 -0.4284  0.2267
   17MOL   C88316275   3.291   6.179   5.136  0.4986  0.1886 -0.6615
   17MOL   C88416276   3.423   6.213   5.073 -0.0312  0.2460 -0.1854
   17MOL   C88516277   3.417   6.199   4.921  0.3437  0.1004 -0.4378
   17MOL   C88616278   3.513   6.300   4.866  0.0181  0.4535  0.0721
   17MOL   O88716279   3.475   6.416   4.839  0.1061 -0.4229  0.0539
   17MOL   H88816280   3.074   5.832   5.554  0.1019  0.0024  0.9587
   17MOL   H88916281   3.133   5.942   5.780  0.3549  1.8791  0.2383
   17MOL   H89016282   3.222   6.045   5.681  1.1366 -1.8692  0.0681
   17MOL   H89116283   2.939   5.927   5.509 -0.2411 -0.6928  1.8576
   17MOL   H89216284   2.720   6.026   5.476  0.5650 -0.0310 -0.0042
   17MOL   H89316285   2.651   6.224   5.616 -0.7258 -1.3264  1.2980
   17MOL   H89416286   2.819   6.315   5.790 -0.1866 -0.2618  0.3176
   17MOL   H89516287   3.098   6.116   5.918  2.3316  1.0157 -0.1817
   17MOL   H89616288   3.005   6.260   5.954  2.4621  1.8241 -0.1826
   17MOL   H89716289   3.252   6.251   5.840  0.3073  1.1720 -0.3566
   17MOL   H89816290   3.341   6.449   5.749  0.4489  2.2913 -0.4951
   17MOL   H89916291   3.245   6.595   5.739 -0.4867  0.0772  4.1556
   17MOL   H90016292   3.304   6.576   5.521 -1.1804  1.0977  1.2329
   17MOL   H90116293   3.142   6.524   5.529 -0.5880  0.7389  1.5045
   17MOL   H90216294   3.367   6.310   5.528 -0.3354 -0.2237 -1.5443
   17MOL   H90316295   3.211   6.283   5.552 -0.3775 -0.8205 -0.6195
   17MOL   H90416296   3.159   6.375   5.306 -1.1384 -1.1328  1.0044
   17MOL   H90516297   3.324   6.415   5.290 -0.5345  1.3896  0.8749
   17MOL   H90616298   3.364   6.152   5.337  1.5846  0.3550 -1.3170
   17MOL   H90716299   3.196   6.135   5.327  0.7934 -1.3473 -0.2330
   17MOL   H90816300   3.212   6.238   5.090 -1.7598 -1.7404  0.6163
   17MOL   H90916301   3.269   6.074   5.116  2.0587 -0.4519  0.7992
   17MOL   H91016302   3.462   6.309   5.107  0.4049  0.7247 -1.9795
   17MOL   H91116303   3.488   6.133   5.109 -0.8857 -0.9431 -1.2596
   17MOL   H91216304   3.460   6.106   4.885 -0.4137 -0.9323  1.2881
   17MOL   H91316305   3.316   6.214   4.883  0.2129 -1.5025 -0.7307
   17MOL   N91416306   3.636   6.256   4.844 -0.4653 -0.4069  0.1945
   17MOL   C91516307   3.744   6.350   4.827  0.2598  0.5445  0.4823
   17MOL   C91616308   3.774   6.436   4.953  0.4976 -0.0530  0.7028
   17MOL   C91716309   3.802   6.360   5.073 -0.1273 -0.4835  0.3840
   17MOL   C91816310   3.844   6.421   5.193  0.5111 -1.3131  0.3072
   17MOL   C91916311   3.874   6.562   5.190 -0.1751  0.2437  0.2664
   17MOL   C92016312   3.846   6.638   5.072 -0.4737  0.1561 -0.1515
   17MOL   C92116313   3.786   6.578   4.956  0.0027  0.2350 -0.0680
   17MOL   C92216314   3.752   6.670   4.835  0.2476 -1.3868 -0.0441
   17MOL   N92316315   3.617   6.676   4.791 -0.1992  0.3997 -0.6834
   17MOL   C92416316   3.557   6.784   4.732 -0.3218  0.4680  0.5424
   17MOL   O92516317   3.612   6.891   4.702  0.5049 -0.2651  0.1016
   17MOL   C92616318   3.409   6.779   4.711  0.8284  0.6428  0.4229
   17MOL   C92716319   3.338   6.901   4.765  0.2486 -0.5352 -0.0384
   17MOL   C92816320   3.188   6.881   4.782  0.3192 -0.3112 -0.1401
   17MOL   C92916321   3.155   6.786   4.890  0.7080 -0.4501 -0.1683
   17MOL   C93016322   3.008   6.790   4.934 -0.3584 -0.9068 -0.7438
   17MOL   C93116323   2.966   6.695   5.050 -0.6187 -0.2711 -0.5149
   17MOL   C93216324   2.955   6.558   4.990 -0.6750  0.6225 -0.0654
   17MOL   C93316325   2.876   6.463   5.077 -0.4837  0.1910 -0.1742
   17MOL   C93416326   2.723   6.481   5.069 -0.2622  0.9412  0.3735
   17MOL   O93516327   2.676   6.497   4.957  0.1162 -0.7946 -0.3532
   17MOL   H93616328   3.659   6.159   4.864  1.5439  0.1010  0.4259
   17MOL   H93716329   3.820   6.278   4.796 -0.8417 -0.6534  0.5532
   17MOL   H93816330   3.727   6.410   4.737  0.7093 -0.5495 -0.3492
   17MOL   H93916331   3.789   6.253   5.072  0.5802 -0.5662 -0.0763
   17MOL   H94016332   3.863   6.357   5.277 -0.8414 -0.0278  1.6227
   17MOL   H94116333   3.929   6.603   5.274  1.8081  0.8959 -1.3033
   17MOL   H94216334   3.877   6.742   5.071  2.7349 -0.7398 -0.9988
   17MOL   H94316335   3.809   6.636   4.749  1.1091 -0.3094  0.0876
   17MOL   H94416336   3.789   6.771   4.850 -0.8848 -0.4715 -3.0928
   17MOL   H94516337   3.558   6.597   4.814 -1.2022  0.8670 -1.6049
   17MOL   H94616338   3.369   6.683   4.744  1.0368  0.9525  1.6006
   17MOL   H94716339   3.395   6.788   4.604  0.3702  2.0279  0.5952
   17MOL   H94816340   3.367   6.980   4.696  0.0241 -0.6248 -0.2396
   17MOL   H94916341   3.374   6.937   4.861  2.2122 -0.3632 -0.8325
   17MOL   H95016342   3.140   6.978   4.802 -0.5967 -0.4279 -1.6851
   17MOL   H95116343   3.150   6.826   4.696 -1.8092 -0.0996  0.6349
   17MOL   H95216344   3.188   6.685   4.864  1.7136 -0.0261 -0.5636
   17MOL   H95316345   3.217   6.804   4.978  0.5147  0.5161 -0.2219
   17MOL   H95416346   2.945   6.772   4.847 -1.2633  0.3616 -0.3688
   17MOL   H95516347   2.988   6.892   4.967 -1.1242 -1.6208  1.0866
   17MOL   H95616348   3.041   6.693   5.128 -0.1394  0.3643 -0.9531
   17MOL   H95716349   2.880   6.735   5.104  1.3487  0.2688  2.2943
   17MOL   H95816350   3.057   6.521   4.975 -0.2738  1.4967  0.4702
   17MOL   H95916351   2.918   6.555   4.888 -0.9447 -3.4064  0.0717
   17MOL   H96016352   2.918   6.464   5.177 -1.0742  0.0699  0.0776
   17MOL   H96116353   2.908   6.364   5.044 -0.7491 -0.2530  0.8986
   17MOL   H96216354   2.668   6.486   5.162 -0.3235 -0.1303  0.3977
   18MOL     N116355   0.769   0.350   0.507  0.1018 -0.4668  0.0889
   18MOL     C216356   0.704   0.322   0.632 -0.1466 -0.1303 -0.5850
   18MOL     C316357   0.766   0.412   0.742  0.8732 -0.3724  0.5356
   18MOL     C416358   0.876   0.364   0.810  0.0416 -0.7028 -0.7697
   18MOL     C516359   0.956   0.442   0.895  0.4522 -0.6916 -0.1037
   18MOL     C616360   0.900   0.563   0.937 -0.8079  0.3744 -0.0492
   18MOL     C716361   0.788   0.616   0.872 -0.4663  0.0288 -0.2660
   18MOL     C816362   0.721   0.542   0.777  0.2724 -0.3200 -0.2633
   18MOL     C916363   0.596   0.603   0.711  0.5885  0.9311  0.0184
   18MOL    N1016364   0.600   0.615   0.569  0.0433 -0.0657 -0.2717
   18MOL    C1116365   0.503   0.631   0.484  0.7623  0.6310  0.4445
   18MOL    O1216366   0.384   0.608   0.511  0.2204  0.5428 -0.3846
   18MOL    C1316367   0.540   0.668   0.340  0.1589  0.3157 -0.3006
   18MOL    C1416368   0.462   0.589   0.234  0.7389 -0.3769  0.0378
   18MOL    C1516369   0.502   0.642   0.095  0.4963  0.3848 -0.1941
   18MOL    C1616370   0.442   0.567   7.762 -0.3762 -0.4745 -0.2030
   18MOL    C1716371   0.465   0.634   7.623 -0.4415 -0.0268  0.7074
   18MOL    C1816372   0.597   0.594   7.560 -1.1992 -0.5795  0.3461
   18MOL    C1916373   0.643   0.673   7.433 -0.4421  0.4105 -0.5832
   18MOL    C2016374   0.767   0.616   7.373  0.1714  0.0602  0.3199
   18MOL    C2116375   0.857   0.720   7.308  0.1087 -0.4719 -0.0151
   18MOL    O2216376   0.809   0.827   7.269  0.2891  0.2386 -0.5180
   18MOL    H2316377   0.845   0.414   0.525  0.0442  0.0261 -1.2979
   18MOL    H2416378   0.598   0.340   0.616 -0.0816 -0.4135 -1.3690
   18MOL    H2516379   0.711   0.217   0.661  0.7783 -0.3861 -1.6873
   18MOL    H2616380   0.913   0.263   0.799 -0.3280 -1.0177  0.7920
   18MOL    H2716381   1.035   0.388   0.945 -1.2639 -3.4122 -0.2791
   18MOL    H2816382   0.947   0.627   1.009 -1.7137  0.5528  0.3931
   18MOL    H2916383   0.749   0.713   0.898  0.0181  0.7581 -2.1984
   18MOL    H3016384   0.562   0.700   0.745 -2.0546 -0.6954  2.2027
   18MOL    H3116385   0.516   0.535   0.739  1.6715  0.9136  3.2675
   18MOL    H3216386   0.690   0.642   0.533  1.1686  0.2143  2.6132
   18MOL    H3316387   0.643   0.635   0.328  0.2835  0.7135 -0.3263
   18MOL    H3416388   0.525   0.775   0.329  0.8760  0.5078  0.5235
   18MOL    H3516389   0.353   0.591   0.236  0.5971 -0.3571 -3.3274
   18MOL    H3616390   0.485   0.483   0.243  0.1686 -0.7255 -2.2195
   18MOL    H3716391   0.458   0.741   0.085 -0.8071 -0.3967 -2.4377
   18MOL    H3816392   0.610   0.652   0.081  1.1419 -1.8757  2.5957
   18MOL    H3916393   0.469   0.462   7.753 -0.1418 -0.4669  0.3730
   18MOL    H4016394   0.336   0.573   7.786 -0.4063  1.0750 -0.6694
   18MOL    H4116395   0.387   0.611   7.551 -0.3453 -0.6995  0.8061
   18MOL    H4216396   0.470   0.741   7.643  1.5306  0.2087 -0.9208
   18MOL    H4316397   0.602   0.488   7.537  0.9627 -0.4851  0.2535
   18MOL    H4416398   0.676   0.600   7.636 -0.3492 -3.7046 -0.2466
   18MOL    H4516399   0.561   0.653   7.364  2.0238  0.2941 -3.6502
   18MOL    H4616400   0.647   0.781   7.452  0.9722  0.8514 -3.0181
   18MOL    H4716401   0.730   0.537   7.307  1.1123  1.1584 -1.5403
   18MOL    H4816402   0.831   0.575   7.452 -1.7550 -1.4550  1.1433
   18MOL    H4916403   0.712   0.411   0.450  0.7060  0.6311  0.6303
   18MOL    N5016404   0.988   0.688   7.295 -0.2292 -0.2311  0.3848
   18MOL    C5116405   1.096   0.766   7.240  0.5167  0.1961  0.5368
   18MOL    C5216406   1.161   0.873   7.333  0.4331  0.0946 -0.0565
   18MOL    C5316407   1.100   0.907   7.453  0.6029  0.2422  0.3747
   18MOL    C5416408   1.132   1.021   7.530 -0.0517 -0.5550  0.5055
   18MOL    C5516409   1.243   1.096   7.490 -0.2611  0.4547  0.5724
   18MOL    C5616410   1.330   1.053   7.386 -0.7691 -0.6027  0.0241
   18MOL    C5716411   1.272   0.954   7.294 -0.1529 -0.2696 -0.5006
   18MOL    C5816412   1.338   0.914   7.161  0.7871 -0.4738  0.1111
   18MOL    N5916413   1.473   0.976   7.148  0.6583  0.1895  0.2488
   18MOL    C6016414   1.584   0.915   7.190 -0.4923  0.0621 -0.0108
   18MOL    O6116415   1.596   0.798   7.228  0.5040  0.1753 -0.3747
   18MOL    C6216416   1.711   1.005   7.199 -0.1226 -0.4542  0.6925
   18MOL    C6316417   1.814   0.978   7.087 -0.1935  0.3922  0.0867
   18MOL    C6416418   1.953   1.034   7.117  0.2070  0.4543 -0.1426
   18MOL    C6516419   2.048   1.014   6.996 -0.1044 -0.1279  0.0159
   18MOL    C6616420   2.185   1.075   7.023 -0.4347 -1.1137 -0.4898
   18MOL    C6716421   2.268   0.994   7.118 -0.0094 -0.4309  0.3890
   18MOL    C6816422   2.415   1.042   7.128 -0.2393 -0.3047  0.4855
   18MOL    C6916423   2.505   0.998   7.248  0.4587 -0.6351 -0.4867
   18MOL    C7016424   2.590   0.875   7.221  0.3807  0.7780 -0.4416
   18MOL    O7116425   2.539   0.774   7.166  0.0186 -0.6942  0.4412
   18MOL    H7216426   1.009   0.589   7.306 -0.1771 -0.4438 -1.5784
   18MOL    H7316427   1.058   0.820   7.153 -0.7721  0.2965  1.1445
   18MOL    H7416428   1.172   0.696   7.207 -0.4022 -1.3114  1.5526
   18MOL    H7516429   1.013   0.851   7.486 -1.0169  2.4643  0.0238
   18MOL    H7616430   1.067   1.047   7.612  0.2669  2.8551 -0.2749
   18MOL    H7716431   1.258   1.175   7.562  1.4103 -0.8682  1.7135
   18MOL    H7816432   1.430   1.085   7.363  0.4820 -3.3945  1.3628
   18MOL    H7916433   1.277   0.958   7.083 -0.1032  2.9197  2.6079
   18MOL    H8016434   1.353   0.808   7.138  0.8005 -0.2479 -0.9682
   18MOL    H8116435   1.477   1.068   7.105 -0.0434 -0.7304 -1.8817
   18MOL    H8216436   1.750   1.005   7.301 -1.4176  1.3615  1.2214
   18MOL    H8316437   1.687   1.110   7.185 -0.1985 -0.8313 -2.4216
   18MOL    H8416438   1.787   1.015   6.989  1.0197 -0.4433 -0.5830
   18MOL    H8516439   1.819   0.871   7.066  4.1193  0.8474 -1.8795
   18MOL    H8616440   1.959   1.141   7.136  3.0194  0.0825  1.4540
   18MOL    H8716441   1.994   0.994   7.210 -1.4712  3.0234  1.7472
   18MOL    H8816442   2.072   0.910   6.972  0.8319 -0.3907  1.9706
   18MOL    H8916443   2.008   1.066   6.909 -1.6954  0.2734  0.9865
   18MOL    H9016444   2.237   1.099   6.931  0.0477  1.9447  0.5519
   18MOL    H9116445   2.170   1.174   7.066  2.1597 -0.6194 -0.6523
   18MOL    H9216446   2.258   0.890   7.089  1.9714 -0.7469  0.8336
   18MOL    H9316447   2.218   0.999   7.215  0.1015  0.5580  0.4031
   18MOL    H9416448   2.400   1.150   7.130  1.7338  0.0354 -1.8186
   18MOL    H9516449   2.465   1.015   7.035  0.3556 -0.4144  0.8377
   18MOL    H9616450   2.448   1.000   7.340  0.1957 -0.6159 -0.6505
   18MOL    H9716451   2.580   1.076   7.263 -1.2427  0.6851  1.2730
   18MOL    N9816452   2.718   0.863   7.256  0.6892 -0.2174 -0.2545
   18MOL    C9916453   2.802   0.748   7.266 -0.9347  0.3685  0.2150
   18MOL   C10016454   2.945   0.762   7.206  0.8310  0.1520 -0.8371
   18MOL   C10116455   2.955   0.806   7.070 -0.2849 -0.1937  0.2431
   18MOL   C10216456   3.082   0.841   7.023  0.4321  0.2244 -0.3116
   18MOL   C10316457   3.198   0.816   7.097 -0.4990 -0.5436 -0.1085
   18MOL   C10416458   3.190   0.768   7.229 -0.0599  0.0536 -0.2494
   18MOL   C10516459   3.064   0.738   7.287  1.0580  0.6518  0.0192
   18MOL   C10616460   3.068   0.687   7.439  0.8880  0.2057  0.3127
   18MOL   N10716461   3.198   0.642   7.481 -0.9456  0.0758  0.5723
   18MOL   C10816462   3.213   0.520   7.533 -0.0218  0.1086  0.1092
   18MOL   O10916463   3.131   0.424   7.526  0.2011  0.8680 -0.2086
   18MOL   C11016464   3.336   0.491   7.612 -0.6890 -0.1097  0.3513
   18MOL   C11116465   3.350   0.342   7.653  0.1078  0.9320 -0.8545
   18MOL   C11216466   3.479   0.320   7.729 -0.2915  0.5487  0.0563
   18MOL   C11316467   3.517   0.167   7.751 -0.4229  0.3226 -0.2875
   18MOL   C11416468   3.653   0.146   0.027  0.2425  0.2544 -0.3870
   18MOL   C11516469   3.679   7.788   0.070 -0.2010  0.8938 -0.3929
   18MOL   C11616470   3.813   7.740   0.130 -0.4323 -0.2311  0.1374
   18MOL   C11716471   3.816   7.588   0.168 -0.7464 -1.1497  0.0665
   18MOL   C11816472   3.959   7.545   0.192  1.1458 -0.8850 -0.5768
   18MOL   O11916473   4.038   7.598   0.269  0.3743  0.6855  0.2169
   18MOL   H12016474   2.741   0.940   7.317  0.3988  0.0952 -0.5365
   18MOL   H12116475   2.807   0.723   7.372  2.1001  1.1169  0.2675
   18MOL   H12216476   2.758   0.666   7.207 -0.8727  0.1259  0.5055
   18MOL   H12316477   2.869   0.811   7.005  0.2145 -1.6707 -0.5603
   18MOL   H12416478   3.090   0.877   6.921  1.6991  2.8017  0.6490
   18MOL   H12516479   3.293   0.832   7.049 -0.2032  1.3487  1.0475
   18MOL   H12616480   3.282   0.755   7.284 -0.2069  0.8611  0.1862
   18MOL   H12716481   2.993   0.609   7.453  0.2131  1.0799  1.7222
   18MOL   H12816482   3.026   0.757   7.511 -1.2736 -1.9298  1.2065
   18MOL   H12916483   3.273   0.710   7.478 -1.3565  0.5389  0.7956
   18MOL   H13016484   3.333   0.538   7.710 -3.5817 -0.9746  0.7195
   18MOL   H13116485   3.427   0.518   7.558 -1.3231 -1.1292 -1.2935
   18MOL   H13216486   3.347   0.274   7.568 -0.9709  2.8077 -2.3594
   18MOL   H13316487   3.263   0.320   7.716  1.0870 -2.4266 -0.5736
   18MOL   H13416488   3.569   0.356   7.679  1.8683 -2.2766  1.7542
   18MOL   H13516489   3.481   0.385   0.026 -2.1141  2.8911 -1.6026
   18MOL   H13616490   3.442   0.123   0.027  0.5972 -1.2399 -0.1569
   18MOL   H13716491   3.520   0.108   7.660  0.1079  1.5156 -1.0478
   18MOL   H13816492   3.733   0.155   7.743  0.5952  0.5149  0.0174
   18MOL   H13916493   3.665   0.204   0.119  1.0632  0.7855 -0.8136
   18MOL   H14016494   3.672   7.724   7.772 -1.5917  2.2626 -1.3132
   18MOL   H14116495   3.599   7.768   0.140 -0.6292 -0.2461 -1.1916
   18MOL   H14216496   3.900   7.772   0.072  0.2302 -1.9067  0.1645
   18MOL   H14316497   3.815   0.018   0.215 -2.7518 -0.4304  0.3834
   18MOL   H14416498   3.776   7.529   0.085 -0.8730  0.6080 -1.1650
   18MOL   H14516499   3.749   7.584   0.253 -0.1739 -0.1546  0.5855
   18MOL   N14616500   3.989   7.431   0.131  0.5635 -0.1544 -0.8314
   18MOL   C14716501   4.127   7.388   0.114 -0.2804 -0.1115  0.4293
   18MOL   C14816502   4.135   7.239   0.088 -0.0977 -0.0454 -0.3545
   18MOL   C14916503   4.056   7.153   0.168  0.6866 -0.5640  0.1542
   18MOL   C15016504   4.064   7.014   0.147 -0.2670  0.5017  0.2551
   18MOL   C15116505   4.146   6.954   0.049 -0.1767  0.0975  0.2202
   18MOL   C15216506   4.217   7.045   7.758 -0.9185 -0.7961  0.1450
   18MOL   C15316507   4.215   7.189   7.777 -0.4404  0.8245  0.0820
   18MOL   C15416508   4.306   7.273   7.690  0.7551 -0.6667  0.2483
   18MOL   N15516509   4.422   7.203   7.643  0.2902 -0.2694  0.1906
   18MOL   C15616510   4.499   7.237   7.542  0.9634 -0.0798 -0.1276
   18MOL   O15716511   4.471   7.335   7.471  0.3613  0.3034  0.2257
   18MOL   C15816512   4.616   7.152   7.497  0.2043  0.0478 -0.4168
   18MOL   C15916513   4.747   7.230   7.495 -0.1984  0.4431 -0.2828
   18MOL   C16016514   4.793   7.281   7.631 -0.1731 -0.8098  0.0957
   18MOL   C16116515   4.937   7.339   7.633  0.1134 -0.1059 -0.2154
   18MOL   C16216516   4.935   7.488   7.596  0.2487 -0.0702  0.4567
   18MOL   C16316517   5.075   7.559   7.586 -0.2044 -0.4922 -0.2793
   18MOL   C16416518   5.155   7.561   7.717  0.2564  0.4708 -0.4823
   18MOL   C16516519   5.069   7.614   0.051 -0.4542 -0.3753 -0.5654
   18MOL   C16616520   5.165   7.655   0.167 -0.3067 -0.1599 -0.0659
   18MOL   O16716521   5.269   7.593   0.186 -0.0252 -0.5617  0.3307
   18MOL   H16816522   3.913   7.389   0.080 -0.3777  1.2085 -0.5739
   18MOL   H16916523   4.184   7.412   0.204  0.6974 -0.0132 -0.2062
   18MOL   H17016524   4.183   7.446   0.041 -0.0542 -0.4723  0.3141
   18MOL   H17116525   4.001   7.200   0.248  0.2839 -0.2948 -0.2814
   18MOL   H17216526   4.012   6.951   0.217 -1.5512  0.9106 -0.2996
   18MOL   H17316527   4.154   6.847   0.038  1.2576  0.4055 -2.2149
   18MOL   H17416528   4.275   7.005   7.677  0.4325  2.6133 -0.6659
   18MOL   H17516529   4.352   7.358   7.741 -0.0658 -1.0749  1.6669
   18MOL   H17616530   4.259   7.326   7.607 -0.1606  0.5571  1.5284
   18MOL   H17716531   4.454   7.122   7.694 -2.0033 -0.5468  1.2635
   18MOL   H17816532   4.606   7.114   7.396 -1.1656 -1.4240  0.2584
   18MOL   H17916533   4.621   7.066   7.564 -2.3948  0.5080  0.4254
   18MOL   H18016534   4.741   7.311   7.423 -2.1922 -1.1920 -1.9894
   18MOL   H18116535   4.816   7.155   7.456 -2.0578 -1.0687 -0.6968
   18MOL   H18216536   4.718   7.342   7.682 -0.5333 -0.2941 -1.0333
   18MOL   H18316537   4.797   7.190   7.691 -0.5614 -0.2931  0.9177
   18MOL   H18416538   4.980   7.321   7.731  0.8280 -1.1265 -0.7003
   18MOL   H18516539   5.002   7.277   7.571  0.8170 -1.6252  1.9742
   18MOL   H18616540   4.897   7.517   7.499  0.5591  0.6484  0.5499
   18MOL   H18716541   4.878   7.542   7.672 -2.1014 -3.6515  1.3719
   18MOL   H18816542   5.058   7.660   7.548 -1.0956 -1.3396 -2.2320
   18MOL   H18916543   5.137   7.516   7.507  1.3393  0.6387  0.2874
   18MOL   H19016544   5.200   7.464   7.733  2.9553  1.7052 -0.3333
   18MOL   H19116545   5.229   7.639   7.703 -0.0308  0.8766  0.2188
   18MOL   H19216546   5.002   7.536   0.087  0.6239 -0.2756  1.7872
   18MOL   H19316547   5.011   7.698   0.014 -0.5363  0.2294  0.9194
   18MOL   N19416548   5.109   7.756   0.241 -0.6128  0.2749 -0.3436
   18MOL   C19516549   5.171   0.022   0.363 -0.2476 -0.1708  0.2488
   18MOL   C19616550   5.184   0.175   0.370 -0.6878  0.8380  1.3314
   18MOL   C19716551   5.074   0.254   0.337 -0.4189 -0.1342  0.8920
   18MOL   C19816552   5.077   0.395   0.337  0.6928 -0.2230  0.4839
   18MOL   C19916553   5.195   0.460   0.374 -1.2031 -0.5743 -0.6196
   18MOL   C20016554   5.301   0.385   0.420  0.5925 -0.2986 -0.1720
   18MOL   C20116555   5.304   0.245   0.408 -0.0045 -0.2486 -0.1326
   18MOL   C20216556   5.437   0.180   0.446  0.0896 -0.1972  0.2319
   18MOL   N20316557   5.521   0.151   0.330 -0.1919 -0.3666  0.5045
   18MOL   C20416558   5.562   0.033   0.282 -0.2808  0.5722 -0.1856
   18MOL   O20516559   5.551   7.723   0.356  0.3227 -0.4236 -0.2543
   18MOL   C20616560   5.621   0.030   0.145 -0.2641 -0.1414  0.7658
   18MOL   C20716561   5.551   7.718   0.049 -0.8791 -0.0303 -0.2083
   18MOL   C20816562   5.607   7.727   7.695 -0.8258 -0.1032 -0.1607
   18MOL   C20916563   5.546   7.628   7.592  0.3503 -0.2854  0.0867
   18MOL   C21016564   5.611   7.628   7.451 -0.9262 -0.0122  0.5083
   18MOL   C21116565   5.535   7.519   7.377 -0.2619  0.1835  0.5252
   18MOL   C21216566   5.616   7.487   7.242  0.2572  0.9785  0.1583
   18MOL   C21316567   5.551   7.368   7.160 -0.5559 -0.2914  0.3501
   18MOL   C21416568   5.476   7.400   7.029  0.0521 -0.3244  0.3449
   18MOL   O21516569   5.413   7.506   7.013  0.0760 -0.4999  0.0603
   18MOL   H21616570   5.024   0.013   0.212 -0.2172  2.2019  1.5282
   18MOL   H21716571   5.121   7.783   0.455 -0.2789 -3.3881 -0.7328
   18MOL   H21816572   5.271   7.768   0.363 -0.2500 -0.1782 -0.2328
   18MOL   H21916573   4.983   0.202   0.309 -0.4222 -0.0158  0.6828
   18MOL   H22016574   4.987   0.453   0.320  1.5482  0.9027 -0.2332
   18MOL   H22116575   5.215   0.566   0.368  1.7004 -1.1158 -0.8852
   18MOL   H22216576   5.387   0.442   0.451  0.2103 -0.1374  0.6125
   18MOL   H22316577   5.403   0.094   0.505 -0.2846 -1.6496 -2.0208
   18MOL   H22416578   5.494   0.244   0.513 -0.0838  2.7525 -2.3203
   18MOL   H22516579   5.529   0.237   0.279  0.1852 -0.6153  0.1344
   18MOL   H22616580   5.728   0.020   0.162 -0.6560 -1.9109  2.3859
   18MOL   H22716581   5.602   0.123   0.091 -1.5127 -1.2264 -0.6960
   18MOL   H22816582   5.544   7.620   0.096 -1.8423 -0.2382 -0.7607
   18MOL   H22916583   5.447   7.750   0.054 -0.1136  2.9189 -1.6719
   18MOL   H23016584   5.580   0.038   7.665 -1.2514 -0.3609 -0.6508
   18MOL   H23116585   5.715   7.714   7.693 -0.6620  1.1484  0.3445
   18MOL   H23216586   5.555   7.532   7.642  0.7316 -0.4447 -0.2797
   18MOL   H23316587   5.439   7.638   7.574  0.7150  2.4353 -0.8684
   18MOL   H23416588   5.605   7.727   7.404  1.4855  1.2390  2.7579
   18MOL   H23516589   5.715   7.598   7.453 -0.2431  1.7124 -3.8948
   18MOL   H23616590   5.429   7.540   7.358  0.1514 -0.2847 -2.4703
   18MOL   H23716591   5.525   7.427   7.435  0.7536 -0.5594 -0.4747
   18MOL   H23816592   5.721   7.462   7.257  0.1534  0.6386  0.3283
   18MOL   H23916593   5.615   7.577   7.181 -4.4191 -0.8878 -2.8186
   18MOL   H24016594   5.628   7.294   7.140 -2.1453 -2.2327  1.3300
   18MOL   H24116595   5.483   7.306   7.218 -4.2000  1.3000 -2.0291
   18MOL   N24216596   5.483   7.307   6.934  0.6314 -0.1962 -0.3973
   18MOL   C24316597   5.421   7.321   6.806 -0.0547 -0.2598 -0.6649
   18MOL   C24416598   5.448   7.199   6.717 -0.4850  0.1348  0.2715
   18MOL   C24516599   5.546   7.217   6.620  0.2632 -0.3855 -0.4416
   18MOL   C24616600   5.581   7.115   6.526  0.3608  0.1577  0.4767
   18MOL   C24716601   5.524   6.987   6.540  0.3260  0.0562  0.0853
   18MOL   C24816602   5.426   6.967   6.639  0.1105 -0.2508 -0.5024
   18MOL   C24916603   5.388   7.071   6.733  0.2617 -0.0858  0.5123
   18MOL   C25016604   5.298   7.045   6.853 -0.0416 -0.2539 -0.3391
   18MOL   N25116605   5.236   6.915   6.855 -0.6539 -0.2547  0.3628
   18MOL   C25216606   5.111   6.885   6.811 -0.3570  0.4181  0.2696
   18MOL   O25316607   5.025   6.979   6.790 -0.0084 -0.7456 -0.6027
   18MOL   C25416608   5.071   6.743   6.770 -0.1595  0.0186  0.4445
   18MOL   C25516609   4.926   6.705   6.754 -0.0002  0.2191 -0.1855
   18MOL   C25616610   4.904   6.576   6.667  0.9635  0.4093  0.2895
   18MOL   C25716611   4.757   6.527   6.673  0.1008 -0.2548  0.1005
   18MOL   C25816612   4.657   6.618   6.592 -0.0136 -0.2764  0.2444
   18MOL   C25916613   4.526   6.550   6.557  0.1667  0.1736 -0.9555
   18MOL   C26016614   4.426   6.547   6.681 -0.4603 -0.2077  0.7415
   18MOL   C26116615   4.305   6.445   6.669 -0.2792 -0.1643  0.0501
   18MOL   C26216616   4.211   6.476   6.553 -0.2354 -0.0552 -0.3146
   18MOL   O26316617   4.137   6.573   6.557  0.1761 -0.2231  0.6462
   18MOL   H26416618   5.531   7.220   6.956  1.0415  0.5237  1.6911
   18MOL   H26516619   5.313   7.336   6.812 -0.2492 -1.4229 -1.0983
   18MOL   H26616620   5.454   7.411   6.756 -0.2709 -0.1649 -0.6380
   18MOL   H26716621   5.597   7.312   6.614 -0.3484  0.1582  2.3583
   18MOL   H26816622   5.622   7.141   6.429 -0.8257 -1.2279 -0.4067
   18MOL   H26916623   5.543   6.909   6.467 -3.2427  0.3831 -1.2793
   18MOL   H27016624   5.372   6.874   6.645 -2.8850  1.4927  0.7842
   18MOL   H27116625   5.221   7.121   6.862 -0.4637 -0.9042  1.8911
   18MOL   H27216626   5.354   7.048   6.946  1.6699  1.7150 -1.3899
   18MOL   H27316627   5.298   6.836   6.861 -0.9477 -0.4650  0.6611
   18MOL   H27416628   5.120   6.681   6.845  1.9199  0.3316 -0.6233
   18MOL   H27516629   5.125   6.730   6.677 -2.8372  0.9516 -1.2938
   18MOL   H27616630   4.876   6.786   6.701  1.4368  1.6427  0.6191
   18MOL   H27716631   4.881   6.702   6.853 -0.9716 -2.6648 -0.6710
   18MOL   H27816632   4.963   6.491   6.702 -0.7877 -2.1408 -2.7013
   18MOL   H27916633   4.935   6.607   6.568  1.5131 -0.3322  0.2217
   18MOL   H28016634   4.738   6.428   6.634 -1.7720  0.5671 -1.1163
   18MOL   H28116635   4.722   6.531   6.777 -2.9417 -0.7916 -0.8518
   18MOL   H28216636   4.652   6.710   6.650  0.0741  0.0141 -0.2100
   18MOL   H28316637   4.700   6.640   6.494  0.8254 -2.7150  0.0353
   18MOL   H28416638   4.539   6.454   6.509  2.5699  0.3140 -0.6618
   18MOL   H28516639   4.471   6.602   6.479 -0.5319  0.6181 -0.1854
   18MOL   H28616640   4.479   6.513   6.770  0.6260 -0.1960  0.1056
   18MOL   H28716641   4.381   6.645   6.699 -0.6545 -0.1623  0.0284
   18MOL   H28816642   4.340   6.342   6.666 -0.5470 -0.2116 -1.8621
   18MOL   H28916643   4.251   6.434   6.763  0.0240 -0.3396  0.2058
   18MOL   N29016644   4.203   6.389   6.451  0.6072  0.5198  0.6418
   18MOL   C29116645   4.270   6.260   6.438  0.1038 -0.7812 -0.5338
   18MOL   C29216646   4.224   6.186   6.318 -0.2639  0.3064 -0.3104
   18MOL   C29316647   4.121   6.092   6.326 -0.3844 -0.2450  0.1843
   18MOL   C29416648   4.057   6.048   6.211  0.0450  0.0433  0.5175
   18MOL   C29516649   4.102   6.082   6.087 -0.0112 -0.1839  0.9037
   18MOL   C29616650   4.213   6.173   6.079  0.2268  0.1834 -0.4718
   18MOL   C29716651   4.274   6.226   6.193  0.4545  0.0479  0.5967
   18MOL   C29816652   4.397   6.318   6.171  0.4325 -0.3661  0.9510
   18MOL   N29916653   4.521   6.252   6.210  0.0694  0.3514  0.0513
   18MOL   C30016654   4.632   6.326   6.234  0.1756 -0.4275  0.6796
   18MOL   O30116655   4.625   6.446   6.247  0.7649  0.0709 -0.9284
   18MOL   C30216656   4.762   6.247   6.248  0.5207 -0.0495  0.3875
   18MOL   C30316657   4.827   6.261   6.386  0.2227 -1.5267  0.7587
   18MOL   C30416658   4.954   6.177   6.404 -0.0530 -0.9823 -0.0394
   18MOL   C30516659   5.028   6.223   6.532 -0.5449 -0.2912  0.0951
   18MOL   C30616660   5.142   6.130   6.586 -0.2170 -0.1382 -0.3296
   18MOL   C30716661   5.084   6.020   6.679  0.3543 -0.0531 -0.4558
   18MOL   C30816662   5.181   5.896   6.717  0.6236 -0.1763 -0.7232
   18MOL   C30916663   5.116   5.771   6.776  0.2747 -0.0698 -0.7029
   18MOL   C31016664   5.042   5.796   6.905  0.5930  0.2557 -0.7208
   18MOL   O31116665   5.095   5.841   7.006 -0.9448  0.0577 -0.4382
   18MOL   H31216666   4.124   6.392   6.387  0.4210 -0.3152  0.8204
   18MOL   H31316667   4.378   6.269   6.438 -0.1291  2.7477  0.7730
   18MOL   H31416668   4.235   6.197   6.520  1.0576 -1.9494 -1.0097
   18MOL   H31516669   4.075   6.070   6.421 -0.1364  0.4388  0.4682
   18MOL   H31616670   3.980   5.973   6.221  0.7127 -0.6718  0.3827
   18MOL   H31716671   4.051   6.051   5.998 -0.1923 -1.4866  1.4493
   18MOL   H31816672   4.236   6.212   5.981  1.3673 -0.2439 -0.3893
   18MOL   H31916673   4.384   6.412   6.224  3.3873  1.9280 -2.1287
   18MOL   H32016674   4.383   6.349   6.067 -1.5009  0.7752  1.5163
   18MOL   H32116675   4.529   6.151   6.207  0.6553  0.3303  1.6791
   18MOL   H32216676   4.738   6.141   6.240 -0.7418  0.2002  0.6782
   18MOL   H32316677   4.824   6.275   6.164  0.5157  0.8887  0.6937
   18MOL   H32416678   4.755   6.254   6.467  0.7871 -1.8310  1.2442
   18MOL   H32516679   4.857   6.365   6.396 -0.2246 -1.3760  0.5391
   18MOL   H32616680   5.024   6.195   6.322  0.0648  0.4394  0.3540
   18MOL   H32716681   4.933   6.070   6.414 -0.5627 -1.2021 -2.8417
   18MOL   H32816682   5.075   6.317   6.502 -1.5322 -1.0459 -4.0457
   18MOL   H32916683   4.953   6.229   6.611 -0.9425 -1.2554 -0.2085
   18MOL   H33016684   5.182   6.081   6.497  0.3167  0.4254 -0.4008
   18MOL   H33116685   5.219   6.193   6.630  0.8908 -1.7863  0.1243
   18MOL   H33216686   4.998   5.980   6.626  0.1316 -1.3834  0.8929
   18MOL   H33316687   5.039   6.064   6.768 -1.6148 -1.0445 -0.9300
   18MOL   H33416688   5.224   5.863   6.623 -0.8744  1.2219 -1.9311
   18MOL   H33516689   5.254   5.936   6.788 -0.1580 -1.8751  1.1018
   18MOL   H33616690   5.064   5.714   6.699 -0.4150 -0.7508  0.2595
   18MOL   H33716691   5.197   5.706   6.810 -1.6154 -1.1319  1.9719
   18MOL   N33816692   4.916   5.745   6.905  0.5209 -0.4647  0.1892
   18MOL   C33916693   4.843   5.694   7.023 -0.1425 -0.0909  0.3871
   18MOL   C34016694   4.736   5.791   7.077 -0.4514 -0.1296  0.0061
   18MOL   C34116695   4.772   5.871   7.190  0.0450 -0.0640 -0.3074
   18MOL   C34216696   4.685   5.968   7.240  0.0394 -0.5644  0.3390
   18MOL   C34316697   4.558   5.994   7.182 -0.4653  0.7633 -0.5681
   18MOL   C34416698   4.523   5.909   7.080  0.4169 -0.8788 -0.0648
   18MOL   C34516699   4.610   5.814   7.019  1.1387  0.0055 -0.0608
   18MOL   C34616700   4.570   5.727   6.900  0.1095 -0.0164  0.5526
   18MOL   N34716701   4.525   5.591   6.940 -0.0829  0.3829 -0.0621
   18MOL   C34816702   4.405   5.542   6.930 -0.3657  0.1244 -0.4325
   18MOL   O34916703   4.320   5.601   6.869 -0.4919  0.5728  0.4236
   18MOL   C35016704   4.377   5.403   6.997  0.4094  0.0909 -0.3389
   18MOL   C35116705   4.312   5.425   7.125 -0.4984  0.7315 -1.2151
   18MOL   C35216706   4.386   5.510   7.237 -0.2108 -0.1136 -0.1476
   18MOL   C35316707   4.316   5.533   7.370 -0.1763  0.4368 -0.0078
   18MOL   C35416708   4.183   5.617   7.361 -0.2540 -0.1933  0.1219
   18MOL   C35516709   4.187   5.736   7.260 -0.6327 -1.3855 -0.3008
   18MOL   C35616710   4.065   5.836   7.265  0.3986 -0.8385  0.0782
   18MOL   C35716711   4.032   5.919   7.134 -0.3469  0.1852 -0.4062
   18MOL   C35816712   4.129   6.031   7.094 -0.5612 -0.7673 -0.4697
   18MOL   O35916713   4.167   6.115   7.175 -0.9889 -0.8271  0.1145
   18MOL   H36016714   4.881   5.705   6.818 -2.1056  3.1532 -0.5593
   18MOL   H36116715   4.790   5.608   6.981  1.3362  0.6263 -3.1698
   18MOL   H36216716   4.920   5.667   7.096  0.9794 -0.6709 -0.9736
   18MOL   H36316717   4.865   5.861   7.244  0.3676  5.7403  0.5006
   18MOL   H36416718   4.711   6.027   7.326  1.7191  0.1802 -0.6611
   18MOL   H36516719   4.489   6.065   7.225 -2.3523 -0.6484 -1.1737
   18MOL   H36616720   4.423   5.926   7.042  0.1933 -0.6551  0.6210
   18MOL   H36716721   4.646   5.724   6.822  2.3491  0.3683  2.6555
   18MOL   H36816722   4.492   5.779   6.844 -0.4525  0.3303  1.6433
   18MOL   H36916723   4.582   5.536   7.002  0.0811  0.4351 -0.1659
   18MOL   H37016724   4.469   5.349   7.017  0.5284  0.0927 -0.8747
   18MOL   H37116725   4.317   5.346   6.927 -0.4502  0.5186  0.0373
   18MOL   H37216726   4.297   5.327   7.170  2.9779  0.9846  0.6779
   18MOL   H37316727   4.214   5.474   7.122 -0.2978  1.4030  1.5045
   18MOL   H37416728   4.482   5.460   7.253 -0.7016 -1.1065 -0.2455
   18MOL   H37516729   4.411   5.609   7.198  1.4720 -0.6812 -0.5620
   18MOL   H37616730   4.389   5.592   7.426  0.4335  0.0158 -0.3594
   18MOL   H37716731   4.307   5.453   7.443  1.1744  0.7522  0.5175
   18MOL   H37816732   4.099   5.553   7.334  0.6303 -0.3567 -2.4208
   18MOL   H37916733   4.158   5.663   7.457 -3.4846  0.7612 -1.0892
   18MOL   H38016734   4.190   5.697   7.158  0.6485  0.4200 -0.9876
   18MOL   H38116735   4.281   5.786   7.283 -0.2657 -1.6481 -1.2001
   18MOL   H38216736   3.984   5.774   7.304  0.9720 -0.9375  1.1148
   18MOL   H38316737   4.081   5.907   7.345 -3.5990 -0.4852  0.6643
   18MOL   H38416738   3.934   5.959   7.159 -0.9474 -2.1133  1.1388
   18MOL   H38516739   4.018   5.839   7.061  1.0005 -0.8392  0.4335
   18MOL   N38616740   4.155   6.037   6.970  0.0206 -0.4497 -0.0657
   18MOL   C38716741   4.231   6.135   6.894 -0.3578  0.0933  0.8106
   18MOL   C38816742   4.335   6.070   6.803 -0.2821 -1.5413 -0.1531
   18MOL   C38916743   4.470   6.098   6.836 -0.5062  0.2961 -0.1962
   18MOL   C39016744   4.580   6.063   6.750 -0.3109  0.1291 -0.3380
   18MOL   C39116745   4.544   5.990   6.635  0.0976 -0.3933  0.1195
   18MOL   C39216746   4.414   5.930   6.621 -0.5682  0.6500  0.0363
   18MOL   C39316747   4.307   5.971   6.704 -0.0652  0.0417 -0.4757
   18MOL   C39416748   4.172   5.913   6.683  0.2079  0.0144  0.4410
   18MOL   N39516749   4.134   5.798   6.764  0.1235  0.0403 -0.3962
   18MOL   C39616750   4.012   5.748   6.765 -0.4349 -0.2207 -0.0682
   18MOL   O39716751   3.921   5.815   6.711  0.0624  0.7762 -0.3364
   18MOL   C39816752   3.990   5.604   6.805  0.5904  0.1894 -0.6796
   18MOL   C39916753   3.876   5.594   6.910  0.0280  0.7059 -0.3734
   18MOL   C40016754   3.842   5.448   6.953  0.0626  0.6111  0.4376
   18MOL   C40116755   3.919   5.396   7.070  0.0003 -0.6082  0.2783
   18MOL   C40216756   3.872   5.259   7.114  0.6697  0.3384 -0.1417
   18MOL   C40316757   3.918   5.223   7.256 -0.2688 -0.4174  1.2912
   18MOL   C40416758   3.835   5.108   7.329 -0.5377 -0.3852  0.4067
   18MOL   C40516759   3.888   5.048   7.451 -0.5813  0.8205 -0.4579
   18MOL   C40616760   3.804   4.941   7.519 -0.5394 -0.2712  0.6311
   18MOL   O40716761   3.685   4.944   7.490 -0.2648  0.0910  0.0617
   18MOL   H40816762   4.099   5.985   6.904 -0.6610 -0.5380  0.5823
   18MOL   H40916763   4.171   6.195   6.826 -0.4003  0.8089  1.4718
   18MOL   H41016764   4.275   6.196   6.973 -0.7672  2.1842 -0.5206
   18MOL   H41116765   4.505   6.167   6.911  1.1807 -0.5661 -0.1580
   18MOL   H41216766   4.679   6.101   6.771 -0.5744 -0.0670  1.3706
   18MOL   H41316767   4.617   5.988   6.555  0.4450 -0.5128  0.4358
   18MOL   H41416768   4.387   5.867   6.538 -0.4281 -0.4484  0.8076
   18MOL   H41516769   4.163   5.894   6.576 -1.5630 -0.8750  0.7421
   18MOL   H41616770   4.092   5.980   6.713 -1.4060 -2.9491  2.9372
   18MOL   H41716771   4.207   5.738   6.801 -0.6293  0.3765  1.7405
   18MOL   H41816772   3.967   5.539   6.721 -0.4873  0.6320 -0.7241
   18MOL   H41916773   4.080   5.556   6.843  0.3677  0.2149 -0.1170
   18MOL   H42016774   3.790   5.636   6.858 -0.4893  1.4310  1.0396
   18MOL   H42116775   3.899   5.641   7.006 -0.4317  0.2713 -0.0446
   18MOL   H42216776   3.834   5.375   6.872  0.9049 -1.2103  1.9371
   18MOL   H42316777   3.744   5.458   7.000 -1.5407 -3.7406 -1.6891
   18MOL   H42416778   4.019   5.381   7.030  0.5313  2.6724  0.1704
   18MOL   H42516779   3.912   5.472   7.148  1.2139 -0.5577  0.3508
   18MOL   H42616780   3.763   5.262   7.122  0.7273 -1.8089  1.9033
   18MOL   H42716781   3.900   5.186   7.038  1.0226 -1.8388  2.0119
   18MOL   H42816782   3.915   5.318   7.310  1.6369  0.4701 -0.1290
   18MOL   H42916783   4.024   5.200   7.252  0.3494  2.1782  1.9884
   18MOL   H43016784   3.840   5.027   7.256 -0.0468 -0.8082  0.9070
   18MOL   H43116785   3.731   5.136   7.343 -0.3399 -0.5478  2.3275
   18MOL   H43216786   3.908   5.122   7.528 -1.2155  0.1782  0.3244
   18MOL   H43316787   3.981   4.993   7.436 -1.8236 -1.1748 -1.1511
   18MOL   N43416788   3.867   4.851   7.602 -0.2801  0.9456  0.5409
   18MOL   C43516789   3.793   4.753   7.674 -0.1335  0.3174 -0.0261
   18MOL   C43616790   3.794   4.783   0.034  0.0314 -0.7161  0.6277
   18MOL   C43716791   3.921   4.758   0.094 -0.1610  0.1818 -0.0078
   18MOL   C43816792   3.947   4.786   0.228  0.4993 -0.5476 -0.1410
   18MOL   C43916793   3.843   4.847   0.300 -0.0435  0.1195  0.3345
   18MOL   C44016794   3.715   4.880   0.240 -0.1724  0.3783 -0.0159
   18MOL   C44116795   3.693   4.846   0.108  0.1547 -0.1963 -0.5434
   18MOL   C44216796   3.561   4.890   0.047  0.3518 -0.0061 -0.5121
   18MOL   N44316797   3.562   5.010   7.753 -0.0876  0.5802 -0.0778
   18MOL   C44416798   3.561   5.131   0.013 -0.2307 -0.3709  0.2970
   18MOL   O44516799   3.525   5.158   0.126 -0.1799  0.7967  1.0104
   18MOL   C44616800   3.642   5.242   7.718  0.0487  0.1581  0.5552
   18MOL   C44716801   3.566   5.372   7.728  0.2892  0.1435  0.0087
   18MOL   C44816802   3.437   5.376   7.639 -0.5347 -0.5541  0.4753
   18MOL   C44916803   3.471   5.346   7.493 -0.4778 -0.2373 -0.0638
   18MOL   C45016804   3.383   5.426   7.392 -0.0985  0.8006  0.3650
   18MOL   C45116805   3.379   5.365   7.248  0.4926  0.3461 -0.0458
   18MOL   C45216806   3.255   5.412   7.174 -0.0607  0.3771  0.1351
   18MOL   C45316807   3.234   5.357   7.025  0.3381 -0.0488 -0.4217
   18MOL   C45416808   3.227   5.209   7.014  0.7344 -0.6381 -0.3143
   18MOL   O45516809   3.331   5.152   6.996  0.1185  0.1691  0.7828
   18MOL   H45616810   3.966   4.858   7.620 -0.2167  0.2723  0.4953
   18MOL   H45716811   3.860   4.668   7.661 -1.3489 -0.5236 -0.9647
   18MOL   H45816812   3.698   4.726   7.627  1.2281 -1.3448 -1.9044
   18MOL   H45916813   4.002   4.725   0.031  2.3013  2.0084  2.0606
   18MOL   H46016814   4.044   4.773   0.274  0.9128  2.2685 -0.1312
   18MOL   H46116815   3.862   4.866   0.405  0.1290 -0.6564  0.4418
   18MOL   H46216816   3.650   4.940   0.301 -0.0440  2.3269 -1.7560
   18MOL   H46316817   3.495   4.911   0.131 -0.4776 -3.0085 -0.3554
   18MOL   H46416818   3.522   4.799   7.790  0.3847 -0.1015 -0.3569
   18MOL   H46516819   3.600   4.993   7.660 -0.2321 -0.6339  0.0750
   18MOL   H46616820   3.665   5.208   7.617  0.9167  0.7158  0.5653
   18MOL   H46716821   3.725   5.263   7.785  0.6530  0.8086 -0.3871
   18MOL   H46816822   3.636   5.448   7.694  0.7939 -0.1304  0.4393
   18MOL   H46916823   3.550   5.390   0.045 -0.5768 -1.5320  0.1699
   18MOL   H47016824   3.351   5.325   7.681 -0.9826 -1.7828 -1.8133
   18MOL   H47116825   3.409   5.481   7.649  1.2627 -0.1120  1.1859
   18MOL   H47216826   3.567   5.379   7.453 -0.4917 -0.3264 -0.1701
   18MOL   H47316827   3.465   5.240   7.470 -2.4327  0.0629 -1.0527
   18MOL   H47416828   3.287   5.415   7.441 -0.8955  3.0265 -0.6200
   18MOL   H47516829   3.419   5.529   7.380  2.5468 -0.2596 -1.3444
   18MOL   H47616830   3.384   5.257   7.250  0.7015  0.3709  0.7482
   18MOL   H47716831   3.470   5.388   7.192  2.0251 -0.5229  2.0512
   18MOL   H47816832   3.170   5.387   7.237  0.0814 -2.3523 -0.7146
   18MOL   H47916833   3.279   5.518   7.168 -1.6123  0.6611 -1.7256
   18MOL   H48016834   3.136   5.391   6.991  0.9018  1.8366 -0.2583
   18MOL   H48116835   3.307   5.401   6.957  0.8530 -1.4629 -0.7959
   18MOL   N48216836   3.113   5.140   7.020  0.4839  0.3975  0.1935
   18MOL   C48316837   2.991   5.171   7.093 -0.1527  0.2184 -0.9818
   18MOL   C48416838   2.900   5.263   7.020 -0.0375 -0.0936 -0.1757
   18MOL   C48516839   2.917   5.288   6.883  0.0676  0.2372  0.1475
   18MOL   C48616840   2.841   5.389   6.820 -0.7785  0.6681  0.8901
   18MOL   C48716841   2.752   5.469   6.894 -0.2955  0.2522  0.9582
   18MOL   C48816842   2.733   5.441   7.029  0.4927  0.1674 -0.1403
   18MOL   C48916843   2.806   5.340   7.094 -0.6790 -0.6011 -0.0566
   18MOL   C49016844   2.782   5.345   7.250 -0.5618 -0.0791 -0.1048
   18MOL   N49116845   2.837   5.465   7.315  0.4453  0.2412 -0.6310
   18MOL   C49216846   2.901   5.469   7.431 -0.0856  0.4266  0.0194
   18MOL   O49316847   2.932   5.367   7.498 -0.0986  0.4511  0.0142
   18MOL   C49416848   2.936   5.611   7.479  0.0423  0.7787  0.5944
   18MOL   C49516849   2.981   5.607   7.626  0.6732  0.5991  0.2488
   18MOL   C49616850   2.970   5.741   7.696  0.6741  0.1133 -0.0284
   18MOL   C49716851   3.032   5.737   0.047  0.4383 -0.0271  0.1363
   18MOL   C49816852   3.014   5.872   0.127 -0.3482 -0.1507  0.4139
   18MOL   C49916853   3.039   5.872   0.277 -0.5066  0.2036 -0.7019
   18MOL   C50016854   3.044   6.015   0.336  0.4194  0.0234  0.0820
   18MOL   C50116855   3.089   6.022   0.480  0.0916  0.3337  0.1827
   18MOL   C50216856   3.068   6.166   0.551  0.7572  0.8904 -0.1391
   18MOL   O50316857   3.021   6.258   0.491  0.1454 -0.2313  0.2332
   18MOL   H50416858   3.123   5.041   7.006 -0.7883  0.6078 -2.6027
   18MOL   H50516859   2.933   5.085   7.127 -0.3601  1.0550  0.8914
   18MOL   H50616860   3.022   5.229   7.181  0.5178  1.8042 -2.2258
   18MOL   H50716861   2.988   5.245   6.814 -0.8774  0.8864 -1.2386
   18MOL   H50816862   2.871   5.405   6.717  2.2336 -1.2840  1.3876
   18MOL   H50916863   2.690   5.537   6.838  1.0239  0.6523 -0.0356
   18MOL   H51016864   2.661   5.505   7.078 -1.1592 -2.0925  0.4337
   18MOL   H51116865   2.818   5.254   7.298 -1.5252 -1.8243 -2.6008
   18MOL   H51216866   2.675   5.336   7.271 -0.4859 -0.5324  0.1154
   18MOL   H51316867   2.832   5.556   7.272 -0.5887 -0.7290 -2.5994
   18MOL   H51416868   2.860   5.688   7.466  0.2908  0.6650 -1.8193
   18MOL   H51516869   3.017   5.634   7.409 -0.4451 -3.3552 -1.4740
   18MOL   H51616870   3.080   5.567   7.643  0.7884  0.3971 -0.8627
   18MOL   H51716871   2.920   5.532   7.676  2.7283 -0.4124  1.2639
   18MOL   H51816872   3.020   5.819   7.638  0.9472 -1.1777 -1.5556
   18MOL   H51916873   2.865   5.769   7.705  1.0160  0.5307  3.5641
   18MOL   H52016874   2.998   5.655   0.111  3.4599 -0.5538  1.1172
   18MOL   H52116875   3.139   5.723   0.039  0.7365  0.7914  2.3416
   18MOL   H52216876   3.076   5.944   0.075 -0.9212  0.0832  0.0492
   18MOL   H52316877   2.907   5.888   0.112  0.2732  2.3071 -1.6134
   18MOL   H52416878   3.138   5.832   0.297 -0.5265  1.2444  1.6368
   18MOL   H52516879   2.964   5.815   0.332  0.9793  0.2175  1.3606
   18MOL   H52616880   3.116   6.075   0.281  0.9925  0.8559  1.7039
   18MOL   H52716881   2.952   6.068   0.311 -0.4631 -1.6469 -0.2299
   18MOL   H52816882   3.196   6.005   0.479 -0.2312 -1.8764  0.5063
   18MOL   H52916883   3.052   5.936   0.535  2.0158 -0.2683  0.5618
   18MOL   N53016884   3.088   6.169   0.687  0.3065 -0.0983  0.2190
   18MOL   C53116885   3.087   6.276   0.783 -0.7936 -0.4022  0.6719
   18MOL   C53216886   3.216   6.362   0.795 -1.1652  0.5221 -1.0679
   18MOL   C53316887   3.327   6.327   0.714  0.2179 -0.2543 -0.2048
   18MOL   C53416888   3.450   6.395   0.722  0.1473 -0.1603  0.1790
   18MOL   C53516889   3.461   6.492   0.824 -0.0391  0.1622  0.2941
   18MOL   C53616890   3.349   6.530   0.907 -0.3296  0.0587 -0.5556
   18MOL   C53716891   3.228   6.462   0.894  0.2182 -0.4488 -0.6169
   18MOL   C53816892   3.110   6.493   0.987  0.2700 -0.7235  0.1876
   18MOL   N53916893   3.107   6.398   1.097 -0.3033 -0.2570 -0.2704
   18MOL   C54016894   3.080   6.432   1.225 -0.8031  0.3568  0.7235
   18MOL   O54116895   3.030   6.540   1.252  0.4013  0.6885  0.7273
   18MOL   C54216896   3.110   6.330   1.331  0.2312  0.2695 -0.6445
   18MOL   C54316897   2.989   6.307   1.425  0.4816 -0.3347 -0.1305
   18MOL   C54416898   2.879   6.224   1.367 -0.0217 -0.4921 -0.1426
   18MOL   C54516899   2.770   6.199   1.475 -0.2811  0.3006  0.0947
   18MOL   C54616900   2.664   6.305   1.483 -0.4609  0.3781 -0.0301
   18MOL   C54716901   2.528   6.252   1.534 -0.9259  0.6860 -0.0901
   18MOL   C54816902   2.425   6.366   1.554 -0.4279  1.3041 -0.1428
   18MOL   C54916903   2.388   6.447   1.430  0.5732 -0.6117 -0.2203
   18MOL   C55016904   2.332   6.356   1.317 -0.5363  0.6613  0.4178
   18MOL   O55116905   2.251   6.265   1.342  0.2882  0.3187 -0.3939
   18MOL   H55216906   3.095   6.079   0.732 -0.8890  0.6681  2.0009
   18MOL   H55316907   3.056   6.236   0.879  0.0350 -1.2299  0.6053
   18MOL   H55416908   2.997   6.333   0.756 -0.3877  0.0833  0.3355
   18MOL   H55516909   3.310   6.247   0.643 -0.2602  0.3319 -0.7585
   18MOL   H55616910   3.534   6.353   0.669  0.2798 -0.5709  0.7099
   18MOL   H55716911   3.557   6.541   0.829  0.0031  0.1778 -0.5431
   18MOL   H55816912   3.359   6.607   0.981  1.2262 -0.4075 -0.2443
   18MOL   H55916913   3.014   6.484   0.936  1.3126 -2.1444 -1.5956
   18MOL   H56016914   3.109   6.596   1.022  1.5240  1.0015 -4.5571
   18MOL   H56116915   3.156   6.310   1.083 -0.5649 -0.6741  1.3233
   18MOL   H56216916   3.194   6.358   1.394  0.6300  0.4966 -1.2787
   18MOL   H56316917   3.133   6.231   1.290  0.1684 -0.2839  0.6190
   18MOL   H56416918   2.955   6.409   1.442  0.3289 -0.2202 -1.0862
   18MOL   H56516919   3.041   6.275   1.515 -2.2546 -0.4998  1.4243
   18MOL   H56616920   2.834   6.287   1.290 -0.4190 -0.4398  0.1331
   18MOL   H56716921   2.926   6.138   1.320  1.3675  0.3406 -0.3258
   18MOL   H56816922   2.705   6.116   1.448 -0.9284  1.2251 -1.2459
   18MOL   H56916923   2.809   6.171   1.573 -0.8437 -0.1783  0.1853
   18MOL   H57016924   2.689   6.367   1.569 -1.1105 -0.8889  1.1114
   18MOL   H57116925   2.648   6.364   1.394 -1.8662  1.7472  1.0994
   18MOL   H57216926   2.538   6.188   1.622 -0.2970  0.6944 -0.1517
   18MOL   H57316927   2.499   6.189   1.450  1.1959 -0.4165 -0.0291
   18MOL   H57416928   2.336   6.329   1.606  1.9715 -1.4563  2.1827
   18MOL   H57516929   2.472   6.431   1.627  3.6033 -0.5704 -0.9618
   18MOL   H57616930   2.484   6.490   1.401  0.9652 -1.0538  0.4138
   18MOL   H57716931   2.312   6.520   1.458 -0.2458 -1.8969  1.0007
   18MOL   N57816932   2.373   6.374   1.191  0.1454 -0.1536 -0.0121
   18MOL   C57916933   2.337   6.290   1.082  0.1227  1.0382 -0.5417
   18MOL   C58016934   2.430   6.175   1.054 -0.3914 -0.5327 -0.7105
   18MOL   C58116935   2.535   6.138   1.140 -0.2423 -0.1024  0.2512
   18MOL   C58216936   2.610   6.016   1.112 -0.2260 -0.2084  0.3535
   18MOL   C58316937   2.577   5.931   1.000  0.0119 -0.3572 -0.1767
   18MOL   C58416938   2.479   5.974   0.903 -0.3346  0.3533 -0.5963
   18MOL   C58516939   2.409   6.096   0.933  0.1532  0.4009  0.4209
   18MOL   C58616940   2.301   6.136   0.828 -0.2618  0.2123  0.6725
   18MOL   N58716941   2.257   6.031   0.737  0.1507 -0.1561  0.5837
   18MOL   C58816942   2.198   6.040   0.615 -0.0088 -0.3979  0.2048
   18MOL   O58916943   2.166   6.149   0.560 -0.7197 -0.1523  0.0994
   18MOL   C59016944   2.178   5.911   0.533  0.0422  0.0768 -0.3685
   18MOL   C59116945   2.152   5.934   0.381  0.0891 -0.4192  0.1504
   18MOL   C59216946   2.106   5.820   0.298  0.4375  0.2201  0.0416
   18MOL   C59316947   2.197   5.699   0.304  0.1103 -0.2748  0.2163
   18MOL   C59416948   2.328   5.715   0.221  0.0116 -0.2478  0.1097
   18MOL   C59516949   2.433   5.595   0.226  0.0695  0.3006 -0.4864
   18MOL   C59616950   2.570   5.633   0.172 -0.1965 -0.1124 -0.0336
   18MOL   C59716951   2.689   5.535   0.178  0.4191  0.8522  0.0405
   18MOL   C59816952   2.687   5.428   0.062  0.1032  0.1215 -0.9535
   18MOL   O59916953   2.599   5.427   7.763  0.2545 -0.4091  0.0158
   18MOL   H60016954   2.433   6.454   1.174  0.9288 -0.9599 -1.1695
   18MOL   H60116955   2.337   6.360   0.998 -1.2306  1.5838 -0.0999
   18MOL   H60216956   2.238   6.248   1.101  0.9586 -0.5842  0.3069
   18MOL   H60316957   2.553   6.194   1.230  0.3164  0.6021 -0.2881
   18MOL   H60416958   2.683   5.978   1.182 -0.1901  0.6850  0.8082
   18MOL   H60516959   2.626   5.836   0.986 -2.3180 -1.4839 -0.7295
   18MOL   H60616960   2.470   5.911   0.816  1.8670 -0.1356 -0.5134
   18MOL   H60716961   2.346   6.215   0.768 -2.3950  1.8417  1.1260
   18MOL   H60816962   2.216   6.181   0.879 -1.6546 -2.0041  0.3665
   18MOL   H60916963   2.279   5.936   0.763  1.0286 -0.1960 -0.2723
   18MOL   H61016964   2.098   5.847   0.569  0.1999  0.4513  0.6888
   18MOL   H61116965   2.270   5.854   0.550 -1.4354 -2.3926 -0.4213
   18MOL   H61216966   2.245   5.960   0.330  0.8730 -0.5343  1.4856
   18MOL   H61316967   2.074   6.006   0.361  0.8948  0.8964  1.5780
   18MOL   H61416968   2.004   5.786   0.318  0.4506  0.8101  1.1767
   18MOL   H61516969   2.100   5.854   0.195  1.1695  0.3832  0.0526
   18MOL   H61616970   2.207   5.669   0.409  3.2639 -0.7830 -0.1713
   18MOL   H61716971   2.153   5.604   0.273  0.9162  0.1204 -2.2079
   18MOL   H61816972   2.299   5.722   0.116  0.3181 -1.1955 -0.0432
   18MOL   H61916973   2.376   5.809   0.248 -0.1547  0.5847 -2.3748
   18MOL   H62016974   2.400   5.509   0.168  2.3083 -2.1001  1.6363
   18MOL   H62116975   2.452   5.557   0.326 -0.0908  0.5467 -0.3632
   18MOL   H62216976   2.544   5.657   0.069  1.4502 -2.1421 -0.9674
   18MOL   H62316977   2.609   5.729   0.206  1.8861 -0.0027 -2.6243
   18MOL   H62416978   2.784   5.586   0.166 -0.1281  2.2447  1.3201
   18MOL   H62516979   2.688   5.486   0.276 -3.2046 -2.1447 -1.3412
   18MOL   N62616980   2.789   5.345   0.070  0.2429  0.0490 -0.0487
   18MOL   C62716981   2.815   5.240   7.763 -0.3798  0.3907  0.6953
   18MOL   C62816982   2.763   5.101   0.002 -0.3862  0.1362  0.3285
   18MOL   C62916983   2.725   5.069   0.132 -0.0182  0.2641  0.5460
   18MOL   C63016984   2.678   4.941   0.167 -0.4183 -0.1979 -0.0118
   18MOL   C63116985   2.658   4.849   0.065 -0.0667 -0.1910 -0.3816
   18MOL   C63216986   2.685   4.881   7.716 -0.3317 -0.0564 -0.1399
   18MOL   C63316987   2.736   5.010   7.686  0.0323  1.1231 -0.3425
   18MOL   C63416988   2.751   5.051   7.538 -1.0347  0.0998  0.0555
   18MOL   N63516989   2.894   5.087   7.511  0.2598  0.2157  0.4240
   18MOL   C63616990   2.990   5.015   7.453 -0.2528 -0.8901 -0.3800
   18MOL   O63716991   2.976   4.891   7.430 -0.0448 -0.4307 -0.1682
   18MOL   C63816992   3.125   5.079   7.436  0.1000 -0.6694 -0.1921
   18MOL   C63916993   3.221   5.007   7.340  0.3796  0.2773  0.1229
   18MOL   C64016994   3.299   4.888   7.401 -0.1954 -0.2484 -0.0035
   18MOL   C64116995   3.375   4.806   7.309 -0.1703 -0.4490 -0.4615
   18MOL   C64216996   3.461   4.884   7.210 -0.5960  0.5867  0.4577
   18MOL   C64316997   3.527   4.796   7.098  0.5707  0.2487  0.1494
   18MOL   C64416998   3.569   4.868   6.965  0.0622 -0.4483 -0.7134
   18MOL   C64516999   3.633   5.008   6.991  0.1585  0.1507 -0.6900
   18MOL   C64617000   3.648   5.078   6.857  0.0680  0.6325  0.4935
   18MOL   O64717001   3.745   5.058   6.787 -0.3611  0.2900  0.4676
   18MOL   H64817002   2.857   5.359   0.143  1.3045 -0.8853 -0.8353
   18MOL   H64917003   2.922   5.229   7.750 -0.8261 -1.4688 -1.8761
   18MOL   H65017004   2.784   5.287   7.670  0.6200  0.4850  0.4044
   18MOL   H65117005   2.733   5.140   0.214  1.1484  1.2317 -0.4005
   18MOL   H65217006   2.645   4.927   0.269  1.9246  0.3360  0.8471
   18MOL   H65317007   2.630   4.749   0.095  2.1782 -0.4022  1.0683
   18MOL   H65417008   2.676   4.809   7.637 -0.5970  0.1940 -0.3400
   18MOL   H65517009   2.680   5.131   7.521 -0.2482  0.5426 -1.2076
   18MOL   H65617010   2.717   4.964   7.482  1.6430  0.2480 -1.8976
   18MOL   H65717011   2.914   5.183   7.533 -1.6087  0.7021  0.1263
   18MOL   H65817012   3.171   5.099   7.533 -0.3874  0.2045 -0.1346
   18MOL   H65917013   3.108   5.179   7.395 -0.5361 -0.6682  0.0737
   18MOL   H66017014   3.298   5.076   7.305  0.9208 -0.2845  0.1975
   18MOL   H66117015   3.170   4.962   7.255 -0.1178 -0.4614  0.8033
   18MOL   H66217016   3.364   4.916   7.484  1.7200  0.7555 -1.7949
   18MOL   H66317017   3.225   4.814   7.431  0.8857 -0.7638  1.4003
   18MOL   H66417018   3.436   4.742   7.373 -0.6440  1.5731  2.0986
   18MOL   H66517019   3.309   4.736   7.258  1.2266 -0.0954 -2.8144
   18MOL   H66617020   3.402   4.956   7.153 -0.3603 -1.0078 -1.8671
   18MOL   H66717021   3.539   4.932   7.269  0.3054 -1.2809  0.8039
   18MOL   H66817022   3.454   4.718   7.076  1.7639 -0.9485  0.4514
   18MOL   H66917023   3.605   4.733   7.140 -0.2250 -0.5324  0.4708
   18MOL   H67017024   3.641   4.805   6.914 -0.4253 -1.1122 -0.5770
   18MOL   H67117025   3.478   4.875   6.905 -0.1902 -0.0341 -0.2920
   18MOL   H67217026   3.732   4.999   7.035 -0.8476 -2.7463  1.1142
   18MOL   H67317027   3.581   5.072   7.061  0.6855  0.3000 -0.4316
   18MOL   N67417028   3.568   5.184   6.837 -0.2013 -0.4581 -0.1363
   18MOL   C67517029   3.574   5.260   6.711  0.4431 -0.3981 -0.0855
   18MOL   C67617030   3.481   5.381   6.712 -0.1974  0.4177  0.3651
   18MOL   C67717031   3.516   5.498   6.777  0.3409  0.2610  0.0524
   18MOL   C67817032   3.431   5.607   6.794 -0.2126  0.4739 -0.1960
   18MOL   C67917033   3.298   5.599   6.745  0.0807 -0.7275 -0.4278
   18MOL   C68017034   3.261   5.482   6.667 -0.4147  0.3650  0.0841
   18MOL   C68117035   3.354   5.385   6.645  0.5081  0.3042 -0.6467
   18MOL   C68217036   3.310   5.264   6.558 -0.9326  0.5706 -0.2004
   18MOL   N68317037   3.286   5.144   6.635 -0.3944 -0.4424  0.1663
   18MOL   C68417038   3.267   5.026   6.580 -0.5519 -0.0344 -0.0733
   18MOL   O68517039   3.249   5.015   6.460 -0.0497  0.0033 -0.2120
   18MOL   C68617040   3.263   4.901   6.662  0.5902 -0.5693  0.1975
   18MOL   C68717041   3.212   4.778   6.586  0.3304 -0.6482  0.2676
   18MOL   C68817042   3.184   4.653   6.680  0.0270 -0.3419  0.2197
   18MOL   C68917043   3.311   4.600   6.745  0.1623  0.4500 -0.2963
   18MOL   C69017044   3.298   4.522   6.877 -0.8895 -0.0507 -0.1941
   18MOL   C69117045   3.433   4.476   6.945  0.2460 -0.4300 -0.2750
   18MOL   C69217046   3.404   4.423   7.085  0.2820  0.0897 -1.1257
   18MOL   C69317047   3.528   4.408   7.180  0.5936  0.7390  0.2931
   18MOL   C69417048   3.612   4.287   7.142  0.5293  0.2527 -0.2071
   18MOL   O69517049   3.588   4.173   7.176  0.0457  0.2963 -0.0962
   18MOL   H69617050   3.493   5.205   6.902 -0.3105  1.0827 -0.7284
   18MOL   H69717051   3.538   5.185   6.641  0.9496 -1.6954  1.0339
   18MOL   H69817052   3.676   5.284   6.682 -0.0754  0.6382 -1.0762
   18MOL   H69917053   3.613   5.493   6.826  0.0092  0.3552  0.7319
   18MOL   H70017054   3.466   5.697   6.842 -0.3405 -0.2443  1.2790
   18MOL   H70117055   3.230   5.682   6.758  0.3905 -0.5861  0.3169
   18MOL   H70217056   3.163   5.477   6.622  0.4766  1.3360 -2.0716
   18MOL   H70317057   3.394   5.245   6.492  0.5609 -0.3533  1.9179
   18MOL   H70417058   3.226   5.285   6.491 -1.1980 -1.6912 -0.6127
   18MOL   H70517059   3.298   5.136   6.735 -0.6987 -0.4974  0.2029
   18MOL   H70617060   3.208   4.918   6.754 -0.9608 -1.6254 -0.5186
   18MOL   H70717061   3.370   4.883   6.679  0.7871  0.0439 -0.3584
   18MOL   H70817062   3.263   4.758   6.492 -0.6648  0.7633 -0.5957
   18MOL   H70917063   3.111   4.809   6.559 -0.2268 -1.4112  1.4364
   18MOL   H71017064   3.117   4.688   6.759  0.1333 -0.4220  0.3461
   18MOL   H71117065   3.141   4.582   6.609 -0.3813 -1.2868  1.3972
   18MOL   H71217066   3.380   4.562   6.669  1.3926  1.8949  0.0729
   18MOL   H71317067   3.368   4.687   6.776  1.5346 -0.9390  1.1559
   18MOL   H71417068   3.259   4.588   6.954  1.1243  0.1653  0.6701
   18MOL   H71517069   3.226   4.440   6.868 -1.7538  0.5331  1.3423
   18MOL   H71617070   3.514   4.550   6.946 -0.9485  0.9323 -1.3051
   18MOL   H71717071   3.461   4.402   6.870  0.3906 -1.6165  0.9369
   18MOL   H71817072   3.349   4.329   7.088  0.8138 -0.2065 -0.4128
   18MOL   H71917073   3.325   4.479   7.135  0.7294 -0.0774 -0.2183
   18MOL   H72017074   3.489   4.395   7.281  0.2746  1.3886  0.2593
   18MOL   H72117075   3.593   4.495   7.176  3.1048 -1.1589 -1.1600
   18MOL   N72217076   3.715   4.325   7.066  0.2316  0.5992 -0.2616
   18MOL   C72317077   3.788   4.229   6.985  0.1432  0.3255  0.6451
   18MOL   C72417078   3.931   4.209   7.033  0.4439  0.0944  0.1245
   18MOL   C72517079   4.028   4.308   7.002  0.0846  0.3098  0.2136
   18MOL   C72617080   4.153   4.294   7.058  0.4078 -0.0398  0.0522
   18MOL   C72717081   4.185   4.188   7.145 -0.9136  0.0631 -0.3320
   18MOL   C72817082   4.088   4.092   7.174  0.2530  0.4162  0.6325
   18MOL   C72917083   3.964   4.099   7.112  0.0472 -0.4099  0.8886
   18MOL   C73017084   3.867   3.989   7.140  0.4104 -0.0389  0.1922
   18MOL   N73117085   3.791   4.016   7.263 -0.2904 -0.3533 -0.1970
   18MOL   C73217086   3.837   3.982   7.385 -0.3846  0.5518 -0.4485
   18MOL   O73317087   3.934   3.916   7.410 -0.1783 -0.3504 -0.4709
   18MOL   C73417088   3.757   4.029   7.503  0.6720 -0.3637 -0.2309
   18MOL   C73517089   3.810   4.165   7.555 -0.3006  0.3683  0.3646
   18MOL   C73617090   3.847   4.274   7.456  0.5473  0.1901  0.4007
   18MOL   C73717091   3.881   4.405   7.528 -0.1240 -0.2124  0.2625
   18MOL   C73817092   3.965   4.495   7.434  0.0281 -0.0714 -0.4869
   18MOL   C73917093   3.902   4.561   7.314 -0.0703  0.0366  0.1864
   18MOL   C74017094   4.000   4.662   7.260 -0.0129 -0.1162  0.2766
   18MOL   C74117095   3.951   4.752   7.137  0.0080 -0.4973  0.2751
   18MOL   C74217096   3.889   4.688   7.005  0.2114  0.4465 -0.1075
   18MOL   O74317097   3.805   4.593   7.016 -0.1165  0.1602 -0.5954
   18MOL   H74417098   3.741   4.422   7.050  3.0869 -0.1131 -0.1094
   18MOL   H74517099   3.789   4.245   6.877  1.4041 -2.8868  0.1176
   18MOL   H74617100   3.731   4.137   6.972  1.8470 -0.6626  0.0307
   18MOL   H74717101   4.017   4.395   6.939 -1.1103 -0.4387 -0.6493
   18MOL   H74817102   4.228   4.368   7.034  0.5242 -0.3220 -0.4791
   18MOL   H74917103   4.282   4.187   7.194 -1.5845 -1.0728  1.0116
   18MOL   H75017104   4.112   4.011   7.242  0.5363 -0.3077 -0.3268
   18MOL   H75117105   3.922   3.896   7.157 -0.4940 -0.8063 -1.0769
   18MOL   H75217106   3.800   3.966   7.058  2.8826 -0.9805 -1.6051
   18MOL   H75317107   3.702   4.063   7.255  0.4778  1.0039 -0.8043
   18MOL   H75417108   3.768   3.957   7.584  0.6385  1.0155  1.0290
   18MOL   H75517109   3.650   4.029   7.480  0.4508  1.6624  0.6974
   18MOL   H75617110   3.902   4.150   7.612  0.3140  0.6096 -0.5438
   18MOL   H75717111   3.732   4.200   7.622  0.2908 -1.1705  1.8783
   18MOL   H75817112   3.931   4.234   7.399 -0.1126 -2.1560  1.0173
   18MOL   H75917113   3.758   4.294   7.396  1.8753  2.0006 -1.0364
   18MOL   H76017114   3.785   4.453   7.548  0.3544 -0.0403  2.2001
   18MOL   H76117115   3.929   4.390   7.624 -1.6576 -1.6866  0.8111
   18MOL   H76217116   4.008   4.574   7.494 -1.7496  1.0383 -0.6337
   18MOL   H76317117   4.044   4.426   7.405  0.4578  0.4161 -0.4741
   18MOL   H76417118   3.814   4.618   7.343  0.6887  1.3390 -0.0312
   18MOL   H76517119   3.865   4.487   7.242 -1.8010  1.3844 -0.3596
   18MOL   H76617120   4.026   4.737   7.335  0.5883 -0.1569  0.1102
   18MOL   H76717121   4.090   4.608   7.231 -0.7600 -0.0816 -2.2860
   18MOL   H76817122   3.864   4.801   7.179 -0.7210  0.0120 -1.8138
   18MOL   H76917123   4.027   4.828   7.118 -0.2979 -0.1714  0.3665
   18MOL   N77017124   3.929   4.740   6.892 -0.0941  0.0146  0.0026
   18MOL   C77117125   3.886   4.713   6.760  0.2338 -0.2304 -0.0798
   18MOL   C77217126   4.001   4.667   6.674 -0.4716 -0.1163 -0.6134
   18MOL   C77317127   4.093   4.764   6.632 -0.2694  0.1110 -0.4218
   18MOL   C77417128   4.198   4.740   6.541 -1.3070 -0.1371  0.6000
   18MOL   C77517129   4.217   4.607   6.488 -0.2921  0.6860  0.3539
   18MOL   C77617130   4.123   4.509   6.526  0.2436 -0.3448 -0.0456
   18MOL   C77717131   4.020   4.536   6.622 -0.4570 -0.4535 -0.0228
   18MOL   C77817132   3.933   4.420   6.666 -0.0790  0.3417 -0.1335
   18MOL   N77917133   3.843   4.388   6.558  0.5326  0.8300  0.2193
   18MOL   C78017134   3.707   4.371   6.579 -0.4234 -0.8955 -0.0337
   18MOL   O78117135   3.658   4.355   6.685  0.4216 -0.4131 -0.2790
   18MOL   C78217136   3.619   4.350   6.456  0.4498 -0.3478  0.0317
   18MOL   C78317137   3.486   4.420   6.459  0.9369 -1.0159  0.4550
   18MOL   C78417138   3.409   4.401   6.324 -0.2826  0.3856  0.1230
   18MOL   C78517139   3.280   4.474   6.320  0.1113 -0.2160 -0.0880
   18MOL   C78617140   3.202   4.470   6.189  0.2840  0.1493 -0.2868
   18MOL   C78717141   3.067   4.547   6.196  0.3658  0.1622 -0.2838
   18MOL   C78817142   2.963   4.521   6.082 -0.0763 -0.0617  0.2328
   18MOL   C78917143   2.990   4.598   5.942 -0.1918  0.3464 -0.2369
   18MOL   C79017144   3.106   4.543   5.871  0.1596 -0.8043  0.2840
   18MOL   O79117145   3.108   4.429   5.833  0.0676 -0.3208 -0.4210
   18MOL   H79217146   4.005   4.807   6.899  1.2454 -1.0696 -2.9933
   18MOL   H79317147   3.810   4.635   6.764 -1.7704  1.5531 -1.8572
   18MOL   H79417148   3.841   4.807   6.727 -0.5643  0.2675  2.3362
   18MOL   H79517149   4.071   4.865   6.661 -0.9949 -0.2768  0.4172
   18MOL   H79617150   4.263   4.820   6.507 -0.8539 -0.8404 -0.1918
   18MOL   H79717151   4.300   4.576   6.425 -2.9506 -1.4913 -2.2139
   18MOL   H79817152   4.138   4.408   6.490 -0.3016 -0.6442  0.5593
   18MOL   H79917153   3.877   4.441   6.758 -1.8408 -2.7218 -0.4320
   18MOL   H80017154   3.987   4.329   6.690  2.2872  1.6543 -0.3361
   18MOL   H80117155   3.893   4.392   6.470  0.6709 -0.7624  0.2162
   18MOL   H80217156   3.607   4.242   6.451  2.8763 -0.6523  0.0783
   18MOL   H80317157   3.683   4.385   6.374  0.1157 -2.0217 -0.9694
   18MOL   H80417158   3.492   4.524   6.490 -2.5273 -0.9466  1.0955
   18MOL   H80517159   3.420   4.380   6.537 -0.6744 -0.3327 -0.5262
   18MOL   H80617160   3.389   4.294   6.323 -1.0137  0.5269 -0.8357
   18MOL   H80717161   3.478   4.433   6.245 -1.4559 -0.7891 -1.4086
   18MOL   H80817162   3.224   4.410   6.389  0.0327  1.6387  1.6128
   18MOL   H80917163   3.286   4.570   6.370 -1.5118  0.1713 -0.6275
   18MOL   H81017164   3.265   4.513   6.111  2.3372 -0.1678  1.1308
   18MOL   H81117165   3.184   4.365   6.170 -0.2403  0.6289 -2.5713
   18MOL   H81217166   3.082   4.654   6.209  3.8678 -0.2717 -0.4091
   18MOL   H81317167   3.016   4.529   6.291 -1.0639  0.3302 -0.9980
   18MOL   H81417168   2.863   4.540   6.121  0.7825  0.9895  1.9304
   18MOL   H81517169   2.963   4.415   6.055 -2.8004 -0.1920  0.5877
   18MOL   H81617170   2.997   4.706   5.954  0.5717  0.0920  1.7405
   18MOL   H81717171   2.907   4.582   5.873  1.1579 -0.1666 -1.7903
   18MOL   N81817172   3.206   4.627   5.833  0.1629 -0.2702 -0.1158
   18MOL   C81917173   3.327   4.593   5.756 -0.0959 -0.3688 -0.6597
   18MOL   C82017174   3.365   4.720   5.676  0.6658  0.1588  0.1412
   18MOL   C82117175   3.503   4.766   5.683  0.4989 -0.4158  0.0802
   18MOL   C82217176   3.548   4.868   5.598 -0.1087 -0.4355 -0.1516
   18MOL   C82317177   3.465   4.923   5.499 -0.1481 -0.1920 -0.3505
   18MOL   C82417178   3.331   4.878   5.486  0.2534  0.5080  0.4931
   18MOL   C82517179   3.279   4.778   5.574 -0.4368  0.9631  0.0980
   18MOL   C82617180   3.137   4.706   5.552 -0.0819  0.2058 -0.0739
   18MOL   N82717181   3.078   4.723   5.416  0.8507  0.0345 -0.7563
   18MOL   C82817182   2.947   4.705   5.387 -0.1190  0.1579  0.2184
   18MOL   O82917183   2.859   4.699   5.474 -0.0848  0.6944  0.2413
   18MOL   C83017184   2.908   4.723   5.242  0.6521 -0.0391  0.2358
   18MOL   C83117185   2.802   4.623   5.186  0.0820  0.6014 -0.4175
   18MOL   C83217186   2.853   4.486   5.136  0.0538  1.0333 -0.4308
   18MOL   C83317187   2.741   4.394   5.086  0.1364 -0.1696 -0.3917
   18MOL   C83417188   2.694   4.428   4.948  0.5260 -0.8822 -0.6218
   18MOL   C83517189   2.594   4.323   4.905  0.3050 -0.2948 -0.0483
   18MOL   C83617190   2.517   4.359   4.774  0.4737  0.1160  0.5568
   18MOL   C83717191   2.437   4.238   4.723  0.9687  0.1424  0.2273
   18MOL   C83817192   2.508   4.123   4.649 -0.4162  0.0631 -1.3768
   18MOL   O83917193   2.589   4.049   4.698 -0.3796 -0.4798 -0.5179
   18MOL   H84017194   3.195   4.724   5.858 -0.1868 -0.6618  1.2735
   18MOL   H84117195   3.397   4.567   5.836 -0.3417 -2.3013 -1.0494
   18MOL   H84217196   3.322   4.509   5.686  0.9992 -0.0044 -1.1912
   18MOL   H84317197   3.575   4.731   5.755 -1.2177 -1.9589  1.0910
   18MOL   H84417198   3.652   4.898   5.593 -0.4169  0.5650 -0.8561
   18MOL   H84517199   3.492   5.002   5.431  0.4245  1.1202  1.4024
   18MOL   H84617200   3.272   4.918   5.405  1.3862 -0.4907 -0.8597
   18MOL   H84717201   3.069   4.759   5.619 -0.9519 -2.2692  1.0489
   18MOL   H84817202   3.149   4.603   5.584  0.7626  0.7717  1.5337
   18MOL   H84917203   3.145   4.723   5.340  1.2255 -1.3858 -0.4494
   18MOL   H85017204   2.987   4.709   5.169  1.7334 -1.0316  1.5564
   18MOL   H85117205   2.873   4.826   5.231 -2.2064 -1.2121 -2.4833
   18MOL   H85217206   2.768   4.677   5.097 -0.0932  0.3986 -0.4719
   18MOL   H85317207   2.728   4.612   5.265  1.3131 -0.9881  0.5459
   18MOL   H85417208   2.899   4.426   5.215 -1.3145 -1.8557 -1.7527
   18MOL   H85517209   2.928   4.494   5.058 -2.5655  1.1508 -3.0061
   18MOL   H85617210   2.782   4.294   5.073  1.0391  0.1187  0.1703
   18MOL   H85717211   2.657   4.401   5.155 -1.2603 -0.1803 -2.0541
   18MOL   H85817212   2.633   4.518   4.957  0.9214 -0.6391 -0.3232
   18MOL   H85917213   2.773   4.440   4.874  1.4467  1.1968  0.6351
   18MOL   H86017214   2.516   4.303   4.978  0.1833 -2.2170 -0.6705
   18MOL   H86117215   2.645   4.230   4.879 -1.9904 -2.0181  1.4416
   18MOL   H86217216   2.586   4.401   4.701 -1.5091 -0.0955 -1.4718
   18MOL   H86317217   2.448   4.440   4.795 -0.3875 -0.6880  0.8734
   18MOL   H86417218   2.376   4.191   4.800  1.2413  0.4527  0.6294
   18MOL   H86517219   2.365   4.273   4.648  0.6127 -1.5638 -0.2680
   18MOL   N86617220   2.471   4.125   4.523 -0.3896  0.3377  0.3820
   18MOL   C86717221   2.505   4.021   4.429 -0.4903 -0.5304 -0.3389
   18MOL   C86817222   2.388   3.958   4.364 -0.7692 -0.2534  0.0442
   18MOL   C86917223   2.361   4.001   4.235  0.4648  0.1476  0.2980
   18MOL   C87017224   2.256   3.939   4.161 -0.2870  0.1903  0.1240
   18MOL   C87117225   2.183   3.839   4.226 -0.7114 -0.7402  0.2486
   18MOL   C87217226   2.215   3.794   4.357  0.4871 -0.5265 -0.0978
   18MOL   C87317227   2.320   3.853   4.428 -0.3492 -0.0266 -0.5793
   18MOL   C87417228   2.364   3.811   4.567 -0.4401  0.4026 -0.2224
   18MOL   N87517229   2.290   3.692   4.618 -0.3192 -0.0142 -0.4569
   18MOL   C87617230   2.176   3.693   4.697 -0.2324  0.3028  0.2306
   18MOL   O87717231   2.142   3.794   4.759  0.1252 -0.0406  1.0296
   18MOL   C87817232   2.084   3.569   4.685  0.1821 -0.3828  0.2920
   18MOL   C87917233   2.078   3.476   4.801  0.4402 -0.2910  0.1735
   18MOL   C88017234   2.001   3.530   4.924 -0.4138 -0.0586 -0.9965
   18MOL   C88117235   2.022   3.441   5.043  0.6288 -0.4395 -0.5539
   18MOL   C88217236   1.946   3.476   5.167 -0.3820 -0.5198 -0.0169
   18MOL   C88317237   1.996   3.414   5.296  0.8440 -0.8536 -0.0759
   18MOL   C88417238   1.916   3.430   5.428  0.2860 -0.3533  0.8844
   18MOL   C88517239   1.869   3.571   5.470 -0.0702 -0.3660  0.1666
   18MOL   C88617240   1.989   3.667   5.493  0.6903 -0.5641 -0.2099
   18MOL   O88717241   2.092   3.614   5.523 -0.1396  0.0298  0.2280
   18MOL   H88817242   2.396   4.187   4.495  0.3041  2.0531  2.2051
   18MOL   H88917243   2.562   4.063   4.346 -1.5245  0.7407 -0.4233
   18MOL   H89017244   2.573   3.947   4.471 -2.1141 -1.3996  0.8222
   18MOL   H89117245   2.407   4.086   4.186  0.4739  0.0016  0.0530
   18MOL   H89217246   2.225   3.975   4.064 -0.7296 -0.1668  0.1272
   18MOL   H89317247   2.106   3.792   4.166 -0.2212  0.3538 -1.2722
   18MOL   H89417248   2.158   3.716   4.404  0.3060  1.0399  2.3254
   18MOL   H89517249   2.360   3.895   4.637  1.5413 -0.4754  0.9868
   18MOL   H89617250   2.465   3.769   4.563 -0.3736  0.2990  2.1364
   18MOL   H89717251   2.310   3.604   4.574 -0.2782 -0.1450 -0.1775
   18MOL   H89817252   2.127   3.515   4.601 -0.4201 -2.9313  1.6004
   18MOL   H89917253   1.986   3.611   4.662  0.0998 -1.4706 -1.3516
   18MOL   H90017254   2.177   3.457   4.841 -0.0465 -2.0824  0.5869
   18MOL   H90117255   2.033   3.382   4.766  0.4626  0.8846 -3.2021
   18MOL   H90217256   2.037   3.630   4.948  1.7236 -1.5215  2.3255
   18MOL   H90317257   1.896   3.536   4.895 -1.4044 -0.1548  2.2881
   18MOL   H90417258   1.991   3.338   5.021 -3.1318  0.2327  1.1404
   18MOL   H90517259   2.129   3.433   5.060  0.5539  1.7239  1.1194
   18MOL   H90617260   1.943   3.584   5.186 -3.3316 -0.6327  0.4100
   18MOL   H90717261   1.844   3.447   5.143 -0.7086  0.3037  0.3461
   18MOL   H90817262   2.101   3.436   5.316  0.7827  0.9575 -1.6470
   18MOL   H90917263   2.004   3.310   5.266 -0.1895 -0.8695 -0.3143
   18MOL   H91017264   1.830   3.371   5.395 -0.4339  1.9740 -1.6864
   18MOL   H91117265   1.966   3.389   5.515  0.3941 -0.2158  0.8888
   18MOL   H91217266   1.807   3.627   5.400  1.1974  1.9449  0.8314
   18MOL   H91317267   1.808   3.563   5.559 -0.5893 -1.2096 -0.2563
   18MOL   N91417268   1.972   3.801   5.471  0.1063  0.1642 -0.3959
   18MOL   C91517269   2.089   3.894   5.455 -0.3577  0.6874  1.1319
   18MOL   C91617270   2.102   3.958   5.311 -0.1795  0.3499  0.4364
   18MOL   C91717271   2.045   3.891   5.203 -0.6243 -0.1340 -0.5645
   18MOL   C91817272   2.060   3.943   5.069  0.0389  0.3419 -0.8906
   18MOL   C91917273   2.126   4.063   5.051 -0.8516 -0.0732  0.1383
   18MOL   C92017274   2.190   4.129   5.159  0.2625 -0.0596  0.3464
   18MOL   C92117275   2.185   4.073   5.289  0.4858 -0.8144  0.1764
   18MOL   C92217276   2.259   4.143   5.408 -1.2161  0.1323  0.5990
   18MOL   N92317277   2.267   4.290   5.395 -0.3897  0.4175  0.1966
   18MOL   C92417278   2.377   4.369   5.393 -0.6980  0.2296 -0.2119
   18MOL   O92517279   2.487   4.311   5.380  0.0881  0.1039 -0.1470
   18MOL   C92617280   2.376   4.523   5.416  0.1770 -0.2919 -0.8207
   18MOL   C92717281   2.381   4.601   5.288 -0.3007 -0.7142 -0.7959
   18MOL   C92817282   2.270   4.569   5.182  0.2676  0.0747 -0.4398
   18MOL   C92917283   2.284   4.656   5.060  0.1250  0.5752 -0.0971
   18MOL   C93017284   2.214   4.610   4.932  0.8954  0.4416  0.1892
   18MOL   C93117285   2.231   4.694   4.806  0.5454 -0.4835 -0.6156
   18MOL   C93217286   2.163   4.634   4.683 -0.0873 -0.3247 -0.8827
   18MOL   C93317287   2.228   4.696   4.557  0.0706 -0.7793 -0.1451
   18MOL   C93417288   2.170   4.645   4.429  0.0024 -0.6071  0.0578
   18MOL   O93517289   2.051   4.623   4.415 -0.2826  0.6115  0.7186
   18MOL   H93617290   1.886   3.846   5.444 -0.0472 -0.6557 -1.2999
   18MOL   H93717291   2.080   3.968   5.535  0.6835 -0.2384  2.1111
   18MOL   H93817292   2.176   3.833   5.478 -0.9682 -0.2516  0.9750
   18MOL   H93917293   1.990   3.800   5.224 -0.3677 -0.3750 -0.9413
   18MOL   H94017294   2.011   3.894   4.987 -1.0861 -0.2699  0.1403
   18MOL   H94117295   2.143   4.106   4.953 -3.1683  0.4040 -0.0883
   18MOL   H94217296   2.243   4.220   5.138  0.6502 -0.2655  0.4310
   18MOL   H94317297   2.360   4.105   5.418 -0.6638  1.7091  1.1829
   18MOL   H94417298   2.211   4.119   5.503 -0.7923 -2.3218  0.2169
   18MOL   H94517299   2.178   4.335   5.411  0.0304  0.9144  1.1975
   18MOL   H94617300   2.456   4.552   5.484 -0.6749 -0.6239  0.3411
   18MOL   H94717301   2.282   4.545   5.467  1.3608 -0.4908  1.5193
   18MOL   H94817302   2.478   4.592   5.238  0.5472  2.3924  0.2142
   18MOL   H94917303   2.372   4.705   5.318  1.2579 -0.8500  0.1839
   18MOL   H95017304   2.277   4.469   5.139  0.4896  0.5600 -1.5535
   18MOL   H95117305   2.173   4.593   5.227  0.1643 -0.7440 -0.2150
   18MOL   H95217306   2.251   4.758   5.078 -1.1113  0.3165 -0.8026
   18MOL   H95317307   2.390   4.663   5.035  0.6856 -0.6774  1.8537
   18MOL   H95417308   2.106   4.606   4.941  1.1365 -0.6980  2.7890
   18MOL   H95517309   2.236   4.506   4.909 -1.9063 -0.0482 -0.3955
   18MOL   H95617310   2.201   4.796   4.828 -0.8093 -1.0387  0.2169
   18MOL   H95717311   2.338   4.711   4.796  0.3535  1.8385  1.0509
   18MOL   H95817312   2.059   4.666   4.685 -0.4082 -1.3303 -1.1569
   18MOL   H95917313   2.159   4.527   4.665  2.2705 -0.2060 -2.3941
   18MOL   H96017314   2.336   4.677   4.556  0.0111 -1.0935 -0.6839
   18MOL   H96117315   2.218   4.804   4.549 -2.1154 -0.9702 -0.3741
   18MOL   H96217316   2.248   4.626   4.356 -0.6557 -0.2366 -0.7457
   19MOL     N117317   6.949   3.312   0.820  0.3766 -0.0125 -0.6243
   19MOL     C217318   6.805   3.302   0.801  0.2915 -0.4453  0.8977
   19MOL     C317319   6.736   3.314   0.932  0.7303 -0.3090  0.6513
   19MOL     C417320   6.673   3.439   0.965 -0.1125 -0.2977 -0.5106
   19MOL     C517321   6.607   3.460   1.090 -0.1937  0.4701 -0.1184
   19MOL     C617322   6.603   3.356   1.182 -0.3482 -0.7216  1.0533
   19MOL     C717323   6.661   3.230   1.151  0.0215 -0.0389 -0.7123
   19MOL     C817324   6.732   3.211   1.033 -0.2997  0.1774  0.4993
   19MOL     C917325   6.797   3.074   1.019 -0.9255 -0.1103  0.5013
   19MOL    N1017326   6.715   2.984   0.946  0.0213 -0.4063 -1.4515
   19MOL    C1117327   6.745   2.859   0.931  0.0039 -0.2393  0.2855
   19MOL    O1217328   6.833   2.806   0.996 -0.4501  0.5158 -0.1068
   19MOL    C1317329   6.678   2.789   0.823 -0.0184  0.3459 -0.0663
   19MOL    C1417330   6.763   2.684   0.755  1.0498 -0.7300  0.5425
   19MOL    C1517331   6.711   2.638   0.620 -1.0521  1.1764 -0.6044
   19MOL    C1617332   6.783   2.509   0.565  0.1385 -0.0818  0.4336
   19MOL    C1717333   6.935   2.494   0.577 -0.1482  0.4851 -0.0989
   19MOL    C1817334   6.995   2.615   0.499 -0.6380  0.3701 -0.3525
   19MOL    C1917335   7.147   2.593   0.481  1.1138  0.4262 -0.2051
   19MOL    C2017336   7.222   2.708   0.427 -0.7751 -0.3516  0.2159
   19MOL    C2117337   7.370   2.694   0.459 -0.3747  0.1864  0.4361
   19MOL    O2217338   7.404   2.673   0.571  0.2395  0.3460  0.2165
   19MOL    H2317339   6.965   3.308   0.919 -0.2670 -1.6910 -0.5675
   19MOL    H2417340   6.771   3.383   0.737  0.3972 -2.8098 -2.2506
   19MOL    H2517341   6.766   3.222   0.739  0.7312  1.9549 -2.6612
   19MOL    H2617342   6.668   3.516   0.888  2.5683  0.1258 -0.2819
   19MOL    H2717343   6.558   3.554   1.110  1.9263  1.1405  2.1730
   19MOL    H2817344   6.553   3.367   1.278 -1.5396  2.1638  0.1411
   19MOL    H2917345   6.652   3.152   1.224 -0.6722 -0.2230 -0.9923
   19MOL    H3017346   6.800   3.032   1.119 -1.2414  0.5775  0.7986
   19MOL    H3117347   6.898   3.070   0.978 -1.8398  0.5558 -1.9514
   19MOL    H3217348   6.636   3.022   0.896 -0.8490  0.9667  0.8523
   19MOL    H3317349   6.646   2.866   0.752 -0.4454  1.4468  1.3045
   19MOL    H3417350   6.585   2.751   0.867  1.3697 -0.5781  2.1549
   19MOL    H3517351   6.771   2.605   0.829  4.0037 -1.6026 -0.6364
   19MOL    H3617352   6.870   2.706   0.746  0.8194 -0.6082 -2.5132
   19MOL    H3717353   6.607   2.604   0.614 -0.7383  0.3440 -1.4821
   19MOL    H3817354   6.728   2.719   0.551  1.7231  0.9455 -0.2351
   19MOL    H3917355   6.751   2.418   0.616  0.7821 -0.2539  0.5427
   19MOL    H4017356   6.746   2.495   0.463 -1.4270  2.4027  0.6416
   19MOL    H4117357   6.979   2.503   0.677  0.3154 -2.4900  0.0129
   19MOL    H4217358   6.952   2.393   0.539  0.0146 -0.3599  2.1423
   19MOL    H4317359   6.963   2.709   0.545  1.3356  0.5818  0.6464
   19MOL    H4417360   6.953   2.610   0.399 -0.4604  0.3045 -0.4245
   19MOL    H4517361   7.172   2.559   0.581 -1.1603 -0.3826  0.1062
   19MOL    H4617362   7.156   2.509   0.412 -0.5231  0.7645 -0.8506
   19MOL    H4717363   7.189   2.800   0.476 -0.4983 -0.3667  0.4358
   19MOL    H4817364   7.211   2.720   0.320  0.2477  0.3552  0.1853
   19MOL    H4917365   6.985   3.403   0.795 -1.0605  1.2875  1.8590
   19MOL    N5017366   7.464   2.709   0.363  0.2410  0.3317  0.4051
   19MOL    C5117367   7.603   2.732   0.383  0.6701  0.4583 -0.5515
   19MOL    C5217368   7.694   2.635   0.306 -0.2568 -0.4829 -0.1663
   19MOL    C5317369   7.693   2.498   0.340 -0.0724 -0.2547 -0.3597
   19MOL    C5417370   7.782   2.409   0.275  0.0401 -0.4005  0.4111
   19MOL    C5517371   0.084   2.462   0.182  0.5413  0.4067 -0.6586
   19MOL    C5617372   0.087   2.601   0.152 -0.0064 -0.3010  0.0642
   19MOL    C5717373   7.781   2.687   0.209  1.1012 -0.1570 -0.7873
   19MOL    C5817374   7.788   2.834   0.175 -0.0362  0.0121  0.0929
   19MOL    N5917375   7.666   2.882   0.101 -0.3838  0.2017 -0.6464
   19MOL    C6017376   7.679   2.957   7.780 -0.2812 -0.2104  0.0197
   19MOL    O6117377   7.785   3.002   7.747 -0.0002 -0.0245 -0.1827
   19MOL    C6217378   7.559   2.979   7.689 -0.4381 -0.1602 -0.0402
   19MOL    C6317379   7.583   2.977   7.540 -0.3241  0.2832  0.0599
   19MOL    C6417380   7.458   3.026   7.462  0.4841  0.4310 -0.0375
   19MOL    C6517381   7.461   2.981   7.316 -0.4327 -0.4503 -0.1104
   19MOL    C6617382   7.537   3.075   7.225 -0.3913  0.3229  0.0192
   19MOL    C6717383   7.532   3.010   7.084  0.2324 -0.5708 -0.1290
   19MOL    C6817384   7.594   3.092   6.969 -0.5265  0.0475  0.0080
   19MOL    C6917385   7.744   3.115   6.992  0.8313  0.1987 -0.5549
   19MOL    C7017386   0.017   3.198   6.880 -0.7234 -0.0456 -0.3500
   19MOL    O7117387   7.754   3.204   6.766 -0.1848 -0.0441 -0.6076
   19MOL    H7217388   7.434   2.723   0.268  1.0378 -2.0902 -0.2251
   19MOL    H7317389   7.648   2.716   0.481  3.3103  0.8707 -1.6561
   19MOL    H7417390   7.615   2.838   0.360 -2.4256  1.0150  0.2285
   19MOL    H7517391   7.618   2.464   0.411  2.2044 -1.6529  1.4566
   19MOL    H7617392   7.774   2.302   0.292 -0.6509 -0.1876  1.4750
   19MOL    H7717393   0.153   2.389   0.142 -1.3150 -1.6508 -0.1887
   19MOL    H7817394   0.163   2.644   0.089 -1.7691  0.9304 -1.2563
   19MOL    H7917395   0.090   2.848   0.117 -0.5328 -2.2376 -1.3139
   19MOL    H8017396   0.022   2.886   0.267 -1.4866  1.3387 -0.2700
   19MOL    H8117397   7.579   2.841   0.132  0.4876 -0.2248  1.3286
   19MOL    H8217398   7.513   3.072   7.721  1.8523  1.5433 -1.5745
   19MOL    H8317399   7.487   2.903   7.719  0.9812 -0.1308  3.7256
   19MOL    H8417400   7.603   2.873   7.518  3.3060  0.4090  2.4329
   19MOL    H8517401   7.672   3.035   7.514  0.2380  0.1427  1.6628
   19MOL    H8617402   7.363   2.991   7.502  0.5375  0.5978  0.2358
   19MOL    H8717403   7.447   3.134   7.471 -1.9437  0.2421 -0.5744
   19MOL    H8817404   7.516   2.888   7.311 -0.7629 -0.6737  0.4261
   19MOL    H8917405   7.359   2.968   7.278 -0.7938 -1.8968  1.3318
   19MOL    H9017406   7.484   3.171   7.226 -2.2560 -0.6561 -1.0908
   19MOL    H9117407   7.640   3.081   7.259 -0.4837  0.6383  0.2411
   19MOL    H9217408   7.428   2.996   7.054 -0.5368  3.1871  0.5165
   19MOL    H9317409   7.564   2.906   7.074  0.1279 -0.4470 -1.7798
   19MOL    H9417410   7.539   3.186   6.972 -0.9428 -0.1936 -0.0376
   19MOL    H9517411   7.576   3.055   6.869  1.5529 -1.6120  0.2045
   19MOL    H9617412   0.005   3.022   7.018  1.8301  1.2123  1.2733
   19MOL    H9717413   7.762   3.174   7.082 -1.2568 -0.7100  0.5090
   19MOL    N9817414   0.130   3.262   6.903 -0.1707  0.3362 -0.2451
   19MOL    C9917415   0.187   3.360   6.803 -0.5502  0.6754  0.2998
   19MOL   C10017416   0.324   3.318   6.745 -0.1402  0.2990 -0.4235
   19MOL   C10117417   0.429   3.277   6.833  0.9633 -0.1843  0.3797
   19MOL   C10217418   0.559   3.254   6.789 -0.6468 -0.3039 -0.3322
   19MOL   C10317419   0.592   3.267   6.655 -0.9190  0.1059 -0.5070
   19MOL   C10417420   0.488   3.284   6.559  1.0483  0.3702 -0.3224
   19MOL   C10517421   0.353   3.306   6.602 -0.2962 -0.7796  0.0232
   19MOL   C10617422   0.237   3.310   6.493 -0.3876  0.5388  0.2955
   19MOL   N10717423   0.136   3.208   6.506  0.5133 -0.4170  0.4701
   19MOL   C10817424   0.053   3.158   6.419  0.7606  0.1009  1.0442
   19MOL   O10917425   0.058   3.184   6.296 -0.5275  0.0823 -0.3012
   19MOL   C11017426   7.749   3.047   6.456 -0.4830 -0.4811  0.0145
   19MOL   C11117427   0.023   2.929   6.520 -0.0804 -0.5832 -0.4968
   19MOL   C11217428   0.157   2.879   6.454  0.0427  0.7820 -0.1435
   19MOL   C11317429   0.144   2.827   6.308  0.0177  0.3272 -0.4766
   19MOL   C11417430   0.111   2.675   6.311 -0.2153 -0.4553  0.4457
   19MOL   C11517431   0.116   2.598   6.178  1.0582  0.2476  0.3146
   19MOL   C11617432   7.785   2.655   6.091  0.1995 -0.1687  1.0864
   19MOL   C11717433   7.653   2.593   6.135  0.2951  0.5901  0.2666
   19MOL   C11817434   7.539   2.682   6.077 -0.0174  0.0642  0.2597
   19MOL   O11917435   7.544   2.801   6.076  0.0493 -0.0648 -0.1243
   19MOL   H12017436   0.174   3.260   6.993 -0.2760  0.6095 -0.1879
   19MOL   H12117437   0.116   3.374   6.721  3.0376  1.7689 -2.7560
   19MOL   H12217438   0.197   3.462   6.842 -1.6560  1.3665 -1.1634
   19MOL   H12317439   0.409   3.280   6.940 -0.6217 -2.1073  0.1593
   19MOL   H12417440   0.628   3.234   6.870 -0.9677  1.7516  0.5020
   19MOL   H12517441   0.694   3.252   6.622 -0.0844  0.3621  1.8193
   19MOL   H12617442   0.513   3.272   6.455 -3.2742  0.3535 -1.4859
   19MOL   H12717443   0.289   3.295   6.398 -1.3392 -0.5769 -0.0516
   19MOL   H12817444   0.188   3.408   6.490 -0.0775  0.7971  2.9317
   19MOL   H12917445   0.118   3.183   6.602 -0.5061 -0.5630  0.2440
   19MOL   H13017446   7.699   3.015   6.364 -0.6588 -1.7837  0.5498
   19MOL   H13117447   7.671   3.084   6.523 -2.0290  0.8251 -2.4099
   19MOL   H13217448   7.737   2.851   6.524 -0.8499  0.1981  0.4793
   19MOL   H13317449   0.038   2.957   6.625  1.5403 -0.0784 -0.8578
   19MOL   H13417450   0.221   2.967   6.446 -0.8236  1.4148 -0.2079
   19MOL   H13517451   0.219   2.807   6.507 -0.5618  0.3222 -0.0461
   19MOL   H13617452   0.065   2.879   6.255  0.8217  0.5935 -1.4240
   19MOL   H13717453   0.239   2.844   6.257  2.0374  0.0188  3.0235
   19MOL   H13817454   0.183   2.621   6.374 -1.6503 -3.1208 -0.1202
   19MOL   H13917455   0.019   2.658   6.368  0.7558 -0.3549  2.0926
   19MOL   H14017456   0.107   2.489   6.178  1.5652  0.1748 -2.5238
   19MOL   H14117457   0.207   2.626   6.126  0.5479  0.8080 -0.2731
   19MOL   H14217458   7.786   2.764   6.091 -0.6158 -0.1099 -1.5234
   19MOL   H14317459   0.003   2.618   5.989 -0.7029  0.9110  0.6054
   19MOL   H14417460   7.642   2.591   6.244 -2.3749  1.9217  0.0581
   19MOL   H14517461   7.648   2.490   6.101  0.3757  0.5217  0.4589
   19MOL   N14617462   7.446   2.608   6.012  0.0308  0.3815  0.0334
   19MOL   C14717463   7.324   2.669   5.966 -0.1034  0.0780 -0.1376
   19MOL   C14817464   7.231   2.577   5.895 -0.0366 -0.3333  0.4088
   19MOL   C14917465   7.205   2.602   5.759 -0.7437 -0.4468  0.0823
   19MOL   C15017466   7.121   2.519   5.686 -0.7012  0.4529  0.1573
   19MOL   C15117467   7.062   2.403   5.752  0.9154 -0.2936  0.4497
   19MOL   C15217468   7.091   2.386   5.887  0.6307  0.4546 -0.6354
   19MOL   C15317469   7.170   2.466   5.963 -0.5615  0.2852  1.0221
   19MOL   C15417470   7.176   2.447   6.114 -0.2296  0.8464  0.5465
   19MOL   N15517471   7.207   2.307   6.146 -0.3532  0.5559 -0.8491
   19MOL   C15617472   7.329   2.267   6.184 -0.3769  0.1748  0.5089
   19MOL   O15717473   7.424   2.343   6.167 -0.3007  0.9413 -0.2901
   19MOL   C15817474   7.346   2.129   6.242 -0.1709 -0.0878  0.8070
   19MOL   C15917475   7.427   2.128   6.380 -0.4770 -0.4392 -0.0540
   19MOL   C16017476   7.436   1.986   6.449  0.4151 -0.6811 -0.2213
   19MOL   C16117477   7.467   1.868   6.354  0.6664 -0.1180 -0.7452
   19MOL   C16217478   7.601   1.867   6.285 -0.1300  0.5708  0.0016
   19MOL   C16317479   7.598   1.759   6.180  0.0938  0.5859  0.4215
   19MOL   C16417480   7.726   1.771   6.096  0.3077 -0.1262  0.0208
   19MOL   C16517481   7.682   1.756   5.953 -0.0484 -0.4025  0.0951
   19MOL   C16617482   7.613   1.870   5.886  0.6700  0.1686  0.0383
   19MOL   O16717483   7.677   1.974   5.864 -0.0851 -0.0124  0.0314
   19MOL   H16817484   7.462   2.509   6.027  0.3193  0.5090  0.5791
   19MOL   H16917485   7.347   2.752   5.900  1.4459  0.0918  0.3923
   19MOL   H17017486   7.269   2.714   6.049  0.6870 -0.8746  0.9261
   19MOL   H17117487   7.251   2.682   5.704  3.0250 -1.0272  2.2573
   19MOL   H17217488   7.115   2.547   5.582 -0.3260 -2.9813 -0.8624
   19MOL   H17317489   7.004   2.330   5.698 -0.0615  0.8504 -0.0834
   19MOL   H17417490   7.047   2.304   5.942  1.3458 -0.3423 -1.2348
   19MOL   H17517491   7.079   2.468   6.160  0.4029  0.7401  1.9415
   19MOL   H17617492   7.251   2.511   6.159 -1.0405  2.9621 -1.0286
   19MOL   H17717493   7.129   2.247   6.168  1.2058 -1.1795  0.0915
   19MOL   H17817494   7.400   2.075   6.165  0.8897  0.7439  0.9577
   19MOL   H17917495   7.247   2.091   6.269  0.1500 -0.5208  1.3688
   19MOL   H18017496   7.380   2.197   6.450  1.1441 -2.6336  3.3976
   19MOL   H18117497   7.523   2.173   6.355 -0.7593 -1.4797 -3.1340
   19MOL   H18217498   7.520   1.991   6.519 -0.1009 -0.3129  0.3787
   19MOL   H18317499   7.358   1.965   6.523  1.8716 -0.0053  1.5471
   19MOL   H18417500   7.456   1.774   6.409 -1.3784  1.0124  0.8688
   19MOL   H18517501   7.391   1.869   6.276  1.1454 -2.7686 -1.2966
   19MOL   H18617502   7.629   1.956   6.229  0.9641 -1.2725 -2.4468
   19MOL   H18717503   7.682   1.855   6.357  0.7899 -0.2397 -1.1612
   19MOL   H18817504   7.509   1.752   6.116 -0.1310 -1.6636  0.9560
   19MOL   H18917505   7.595   1.656   6.216  0.5356  0.5370  0.3179
   19MOL   H19017506   7.788   1.860   6.108  1.2505 -0.7305 -0.3394
   19MOL   H19117507   7.777   1.677   6.114  1.1320  0.5371  1.2034
   19MOL   H19217508   7.614   1.671   5.944 -0.0975 -0.3207 -0.3118
   19MOL   H19317509   7.769   1.720   5.897 -1.0403  1.4642 -2.7353
   19MOL   N19417510   7.490   1.846   5.850  1.2536  0.3665 -0.0209
   19MOL   C19517511   7.394   1.925   5.776 -0.0140 -0.3892 -0.4360
   19MOL   C19617512   7.261   1.950   5.847  0.3267 -0.1105  0.2667
   19MOL   C19717513   7.238   1.902   5.979  0.5191  0.3281 -0.0622
   19MOL   C19817514   7.116   1.927   6.043  1.1335 -0.4138  0.1984
   19MOL   C19917515   7.014   1.992   5.966 -0.0420 -0.0324  0.0543
   19MOL   C20017516   7.029   2.036   5.834  0.6014  0.2153 -0.6456
   19MOL   C20117517   7.152   2.008   5.773 -0.2488  0.3191 -0.4251
   19MOL   C20217518   7.169   2.044   5.630 -0.6734 -0.0941 -0.0414
   19MOL   N20317519   7.046   2.009   5.557  0.7488 -0.2063 -0.4861
   19MOL   C20417520   7.043   1.980   5.426  0.1249  0.0875 -0.2930
   19MOL   O20517521   7.141   1.977   5.358 -0.7659  0.5029  0.1190
   19MOL   C20617522   6.909   1.956   5.366  0.2302  0.0267  0.1768
   19MOL   C20717523   6.902   1.857   5.245  0.5255 -0.8150 -0.3792
   19MOL   C20817524   6.780   1.891   5.154 -0.4781  0.0164 -0.2000
   19MOL   C20917525   6.641   1.842   5.217 -0.2198 -0.2005  0.6837
   19MOL   C21017526   6.627   1.692   5.185  0.0194  0.4372 -0.4024
   19MOL   C21117527   6.485   1.640   5.208 -0.4101  0.2323 -0.2265
   19MOL   C21217528   6.434   1.643   5.357 -0.2514  0.3589 -0.9308
   19MOL   C21317529   6.330   1.536   5.390  0.4382 -0.1057  0.8463
   19MOL   C21417530   6.215   1.543   5.292 -0.1051 -0.0286 -0.5349
   19MOL   O21517531   6.181   1.654   5.246  0.1777  0.3423  0.0745
   19MOL   H21617532   7.454   1.753   5.870  0.1805  0.6657 -0.5091
   19MOL   H21717533   7.440   2.021   5.755 -0.0443 -0.7526 -2.2813
   19MOL   H21817534   7.380   1.878   5.678  0.2112  0.9780 -1.1331
   19MOL   H21917535   7.312   1.863   6.046  0.7731  1.0106  0.0657
   19MOL   H22017536   7.085   1.894   6.141 -0.9238 -0.2523 -0.3616
   19MOL   H22117537   6.916   2.011   6.008 -0.7713 -0.1315 -1.5383
   19MOL   H22217538   6.937   2.069   5.789 -0.0477  0.3949  0.7683
   19MOL   H22317539   7.252   1.995   5.580 -2.7215 -3.2748 -0.4396
   19MOL   H22417540   7.194   2.150   5.620 -0.2985 -0.2971 -1.3010
   19MOL   H22517541   6.962   2.016   5.613  1.5646 -1.3418  0.9361
   19MOL   H22617542   6.874   2.055   5.338  1.7165  0.0466 -1.7923
   19MOL   H22717543   6.839   1.932   5.446  0.4948 -0.4953  0.2575
   19MOL   H22817544   6.995   1.840   5.191 -0.0408  1.5988 -2.1818
   19MOL   H22917545   6.877   1.762   5.292 -1.0666  0.0989  0.6734
   19MOL   H23017546   6.770   1.999   5.149  1.1733  0.2303  0.6877
   19MOL   H23117547   6.796   1.854   5.052  1.4342 -0.4839  0.2499
   19MOL   H23217548   6.635   1.854   5.325 -0.7078 -1.6241  0.8222
   19MOL   H23317549   6.555   1.889   5.168  0.0707 -2.0463 -1.7012
   19MOL   H23417550   6.657   1.666   5.084 -0.2496 -0.7996 -0.1743
   19MOL   H23517551   6.699   1.650   5.255  0.3858  1.0655 -0.4002
   19MOL   H23617552   6.497   1.547   5.151  0.6268  0.5502 -0.5312
   19MOL   H23717553   6.422   1.701   5.143 -3.4899 -0.1039  2.3218
   19MOL   H23817554   6.396   1.737   5.397  2.4615  1.0254  0.1918
   19MOL   H23917555   6.524   1.612   5.410 -0.6604 -0.6015 -0.7927
   19MOL   H24017556   6.379   1.438   5.392  0.4614 -0.1968 -2.4744
   19MOL   H24117557   6.287   1.553   5.489  1.0798  0.5930  1.0120
   19MOL   N24217558   6.154   1.429   5.253 -0.8573 -0.0369  0.0275
   19MOL   C24317559   6.034   1.422   5.182 -0.2358  0.2242  0.2958
   19MOL   C24417560   5.937   1.315   5.225  0.0951  0.0550 -0.7451
   19MOL   C24517561   5.897   1.220   5.130 -0.4464  1.0822  0.4261
   19MOL   C24617562   5.800   1.127   5.163  0.0502  0.0038 -0.0097
   19MOL   C24717563   5.748   1.126   5.292  0.0716  0.6259  0.8283
   19MOL   C24817564   5.791   1.214   5.391 -0.3312  0.3668 -0.2682
   19MOL   C24917565   5.886   1.316   5.360  0.0188 -0.2862 -0.2105
   19MOL   C25017566   5.929   1.423   5.465 -0.5056 -0.6413 -1.3925
   19MOL   N25117567   5.842   1.425   5.581  0.6364 -0.4817 -0.6878
   19MOL   C25217568   5.860   1.355   5.699  0.0884  0.0183 -0.3763
   19MOL   O25317569   5.955   1.287   5.724 -0.4550 -0.5345 -0.2535
   19MOL   C25417570   5.739   1.343   5.792 -0.0123 -0.1657  0.0329
   19MOL   C25517571   5.632   1.243   5.738 -0.3903  0.2122 -0.0075
   19MOL   C25617572   5.549   1.295   5.616  1.1455 -0.0798  0.2915
   19MOL   C25717573   5.409   1.344   5.656 -0.2518  0.0594 -0.7623
   19MOL   C25817574   5.313   1.371   5.537  0.4474 -0.1154  0.2624
   19MOL   C25917575   5.375   1.443   5.411 -0.1951 -0.0134  0.3355
   19MOL   C26017576   5.269   1.499   5.306 -0.3427  0.4875 -0.1390
   19MOL   C26117577   5.188   1.618   5.351  0.1978 -0.1473 -0.0344
   19MOL   C26217578   5.247   1.752   5.318  0.2637  0.4403 -0.1098
   19MOL   O26317579   5.352   1.787   5.376  0.1537 -0.3595  0.5783
   19MOL   H26417580   6.184   1.347   5.304  2.1708  1.5395  0.9544
   19MOL   H26517581   5.984   1.519   5.178 -0.7296 -0.0740 -0.9301
   19MOL   H26617582   6.067   1.383   5.086  1.3991  2.6334 -0.1652
   19MOL   H26717583   5.926   1.228   5.027 -1.3594  0.2254  0.1032
   19MOL   H26817584   5.756   1.062   5.089  1.4498  0.6892 -1.4513
   19MOL   H26917585   5.680   1.047   5.319  0.9938  0.1705  1.8370
   19MOL   H27017586   5.759   1.197   5.492  0.2801  0.2829 -0.0856
   19MOL   H27117587   5.915   1.526   5.432  0.3946  0.3143  1.0824
   19MOL   H27217588   6.034   1.415   5.491 -0.8046 -0.2257 -0.0070
   19MOL   H27317589   5.758   1.479   5.563  1.2766  1.3767  1.5582
   19MOL   H27417590   5.694   1.438   5.820  1.7141  1.1457 -1.4783
   19MOL   H27517591   5.771   1.310   5.891  1.7183  0.7678 -0.1911
   19MOL   H27617592   5.562   1.220   5.819  0.1744  0.2422  0.4936
   19MOL   H27717593   5.686   1.149   5.730 -0.3129  0.2980 -0.4685
   19MOL   H27817594   5.529   1.218   5.542 -3.5073  2.3684 -1.1992
   19MOL   H27917595   5.603   1.372   5.562  1.6555  1.5060  2.9442
   19MOL   H28017596   5.365   1.286   5.736 -3.1569  2.0495 -0.8615
   19MOL   H28117597   5.426   1.441   5.703  2.0612 -1.8392  2.5362
   19MOL   H28217598   5.263   1.280   5.502 -3.1052  2.0519 -0.5164
   19MOL   H28317599   5.230   1.433   5.569 -0.4506 -1.3449  0.3717
   19MOL   H28417600   5.442   1.376   5.357 -1.0082  0.2108 -0.9724
   19MOL   H28517601   5.446   1.517   5.448 -0.5435  1.7792 -2.5031
   19MOL   H28617602   5.316   1.520   5.210 -0.0659 -1.1849 -0.3849
   19MOL   H28717603   5.199   1.420   5.279 -0.0210 -0.4126  1.6054
   19MOL   H28817604   5.090   1.619   5.304 -0.4186  1.7988  1.2232
   19MOL   H28917605   5.171   1.623   5.459  2.0595 -0.0078  0.2698
   19MOL   N29017606   5.184   1.825   5.223  0.0327 -0.4372  0.2646
   19MOL   C29117607   5.213   1.948   5.158 -0.3017 -0.1622 -0.3342
   19MOL   C29217608   5.140   1.946   5.026  0.1623 -0.3189 -0.0562
   19MOL   C29317609   5.012   2.010   5.018 -1.0720  0.0771  0.5390
   19MOL   C29417610   4.950   2.025   4.890 -0.5717 -0.1875 -0.1478
   19MOL   C29517611   5.000   1.959   4.782  0.3237 -0.1240  0.4179
   19MOL   C29617612   5.120   1.887   4.789 -0.0854  0.1346 -0.6513
   19MOL   C29717613   5.197   1.888   4.911 -0.2214 -0.3764  1.1009
   19MOL   C29817614   5.334   1.813   4.910 -0.1362 -0.3702  0.6306
   19MOL   N29917615   5.386   1.760   4.783  0.1871  0.0632  0.9355
   19MOL   C30017616   5.497   1.797   4.728 -0.1901 -0.2568  0.6442
   19MOL   O30117617   5.574   1.871   4.785 -0.5674 -0.1087 -0.1981
   19MOL   C30217618   5.541   1.735   4.591 -0.1337  0.5164  0.4029
   19MOL   C30317619   5.682   1.672   4.596 -0.3649  0.4068  0.3039
   19MOL   C30417620   5.678   1.527   4.656  0.0265 -0.4733 -0.4254
   19MOL   C30517621   5.801   1.430   4.632 -0.6561 -0.2164 -0.2329
   19MOL   C30617622   5.800   1.314   4.721 -0.1914  0.6478 -0.0259
   19MOL   C30717623   5.920   1.226   4.697 -0.8292  0.1705 -0.2101
   19MOL   C30817624   5.886   1.084   4.754 -0.3486 -0.7361 -0.8561
   19MOL   C30917625   6.001   0.980   4.749  0.5286  0.4621 -0.3189
   19MOL   C31017626   6.028   0.922   4.612  0.5604  0.1581 -0.0644
   19MOL   O31117627   5.946   0.937   4.520 -0.1726 -0.3368  0.0449
   19MOL   H31217628   5.095   1.791   5.190  1.0739 -0.5186 -2.6301
   19MOL   H31317629   5.170   2.023   5.225 -0.5629 -2.3892  2.0937
   19MOL   H31417630   5.320   1.965   5.154 -0.0582 -1.8331 -1.2835
   19MOL   H31517631   4.969   2.065   5.100 -0.5617 -1.3861  1.8012
   19MOL   H31617632   4.856   2.073   4.867 -0.9933 -1.9391 -2.3074
   19MOL   H31717633   4.944   1.965   4.689 -1.5992  0.9293  1.5976
   19MOL   H31817634   5.147   1.836   4.698  3.7884  0.6656  0.0890
   19MOL   H31917635   5.326   1.724   4.973 -2.2334 -0.9405 -0.4136
   19MOL   H32017636   5.403   1.886   4.952  0.5570  0.3387 -1.6759
   19MOL   H32117637   5.319   1.709   4.727 -0.4721  0.9403  0.9158
   19MOL   H32217638   5.478   1.649   4.568 -1.0467  1.0467  0.9113
   19MOL   H32317639   5.534   1.797   4.501  1.5895 -1.7487 -1.3389
   19MOL   H32417640   5.761   1.732   4.643 -1.8066  1.1255  1.8658
   19MOL   H32517641   5.724   1.654   4.497  1.3318  3.2263  0.4523
   19MOL   H32617642   5.595   1.473   4.611  0.9037 -1.9590 -0.3101
   19MOL   H32717643   5.651   1.541   4.760  2.0353  2.2137 -0.2149
   19MOL   H32817644   5.795   1.386   4.533 -0.0156  2.2886 -1.4150
   19MOL   H32917645   5.894   1.488   4.640 -1.1151  0.1920  2.8899
   19MOL   H33017646   5.791   1.340   4.827 -0.4199 -0.3644  0.2104
   19MOL   H33117647   5.715   1.249   4.702 -2.1909  2.1410  3.2393
   19MOL   H33217648   6.004   1.264   4.754 -1.9593  0.2628  1.4406
   19MOL   H33317649   5.945   1.225   4.591  2.5673  1.5350  0.5257
   19MOL   H33417650   5.849   1.098   4.855 -1.8645 -0.4954 -1.4253
   19MOL   H33517651   5.803   1.051   4.691 -1.9625 -0.7575  1.2450
   19MOL   H33617652   6.093   1.030   4.781  1.8805 -1.8534 -0.4738
   19MOL   H33717653   5.983   0.906   4.826 -0.2036  0.8570 -0.1092
   19MOL   N33817654   6.144   0.854   4.604  0.8597 -0.8359 -0.3878
   19MOL   C33917655   6.183   0.776   4.482 -0.1080 -0.7421 -0.4709
   19MOL   C34017656   6.273   0.867   4.394 -0.1935 -0.2539  0.1715
   19MOL   C34117657   6.209   0.958   4.311  0.2673 -0.4137  0.1402
   19MOL   C34217658   6.278   1.040   4.220 -0.2674 -1.0840 -0.2619
   19MOL   C34317659   6.418   1.040   4.215  0.0694 -0.3767 -1.0712
   19MOL   C34417660   6.483   0.959   4.311  0.5891 -0.1824  0.5937
   19MOL   C34517661   6.417   0.868   4.393 -0.4228 -0.7463  0.4612
   19MOL   C34617662   6.507   0.781   4.484  0.3313  0.4931  0.1217
   19MOL   N34717663   6.540   0.855   4.605  0.1755  0.4145 -0.3780
   19MOL   C34817664   6.634   0.956   4.617  1.1040  0.8396  0.9092
   19MOL   O34917665   6.711   0.985   4.524  0.0565 -0.6747  0.3535
   19MOL   C35017666   6.646   1.037   4.746  0.2467 -0.0480  0.0636
   19MOL   C35117667   6.729   0.968   4.862 -0.3855  0.7231  0.7067
   19MOL   C35217668   6.743   1.068   4.970  0.3929 -0.2549  1.0187
   19MOL   C35317669   6.813   1.023   5.100 -0.0776 -0.0523 -0.3169
   19MOL   C35417670   6.869   1.135   5.179 -0.2448  0.1967  0.6032
   19MOL   C35517671   6.894   1.080   5.325  0.1355  0.0042 -0.4461
   19MOL   C35617672   6.931   1.176   5.430  0.3018 -0.0320 -0.3199
   19MOL   C35717673   6.954   1.128   5.573 -0.3101 -0.1736 -0.1484
   19MOL   C35817674   6.834   1.060   5.635 -0.6106  0.4588  0.2581
   19MOL   O35917675   6.788   0.958   5.583 -0.3466 -0.0091 -0.4392
   19MOL   H36017676   6.206   0.871   4.681 -0.0245 -1.0339  0.3800
   19MOL   H36117677   6.239   0.688   4.514  3.8677  1.1843 -1.7856
   19MOL   H36217678   6.099   0.747   4.420 -0.7781 -0.8377  0.4751
   19MOL   H36317679   6.102   0.972   4.317  0.2504 -1.0302  1.3291
   19MOL   H36417680   6.211   1.105   4.165  0.0707  0.1176  0.7068
   19MOL   H36517681   6.469   1.102   4.143 -1.2153  0.1545 -1.5359
   19MOL   H36617682   6.590   0.961   4.296  0.3790 -0.9328 -1.0938
   19MOL   H36717683   6.598   0.748   4.436  1.1191  0.2333  1.7791
   19MOL   H36817684   6.447   0.699   4.524  0.0663  0.8797  0.5337
   19MOL   H36917685   6.469   0.855   4.677 -0.0741 -3.3003 -0.4874
   19MOL   H37017686   6.545   1.061   4.780  0.3587  1.0233 -0.3399
   19MOL   H37117687   6.686   1.133   4.714  1.1750 -0.8758 -1.3510
   19MOL   H37217688   6.830   0.930   4.843 -1.2451 -1.1882 -0.1349
   19MOL   H37317689   6.658   0.895   4.901  0.1419 -0.4065 -0.3934
   19MOL   H37417690   6.799   1.155   4.935 -2.1597  0.5327 -1.3820
   19MOL   H37517691   6.646   1.117   4.982  0.7882  0.6346  0.6065
   19MOL   H37617692   6.894   0.955   5.075  0.3629  0.5061 -0.4073
   19MOL   H37717693   6.739   0.963   5.153 -0.2201  1.5581  1.3353
   19MOL   H37817694   6.958   1.178   5.134 -0.4418  1.4195  1.3655
   19MOL   H37917695   6.805   1.222   5.182 -0.5351  0.0056  0.0155
   19MOL   H38017696   6.965   0.999   5.339  0.1387  0.2899  1.2637
   19MOL   H38117697   6.797   1.041   5.356  0.3573  1.3431  2.0865
   19MOL   H38217698   7.016   1.237   5.401  0.6113 -0.0052  0.6222
   19MOL   H38317699   6.844   1.242   5.435  1.0095  0.9570 -0.8781
   19MOL   H38417700   6.998   1.207   5.634  0.6164 -0.4597 -0.4318
   19MOL   H38517701   7.042   1.063   5.565 -1.7858 -2.3330  0.8011
   19MOL   N38617702   6.790   1.107   5.752 -0.2713 -0.5327 -1.0011
   19MOL   C38717703   6.694   1.037   5.835  0.3839 -0.6503  0.6751
   19MOL   C38817704   6.548   1.083   5.845 -0.0184 -0.2348  0.1082
   19MOL   C38917705   6.508   1.195   5.917  0.8835 -0.2352 -0.3211
   19MOL   C39017706   6.370   1.217   5.925  0.2071 -0.4466 -0.3795
   19MOL   C39117707   6.269   1.145   5.859  0.2360 -0.3083  1.2025
   19MOL   C39217708   6.311   1.031   5.792 -0.0957 -0.0458 -0.3874
   19MOL   C39317709   6.450   1.005   5.780  0.3314  0.0864  0.0741
   19MOL   C39417710   6.480   0.867   5.719  0.0975 -0.8309 -0.0493
   19MOL   N39517711   6.520   0.881   5.584 -0.1839 -0.3483  0.1193
   19MOL   C39617712   6.466   0.828   5.476 -0.4297 -0.1035 -0.2075
   19MOL   O39717713   6.353   0.776   5.465 -0.1364 -0.0366 -0.0421
   19MOL   C39817714   6.562   0.831   5.359  0.0181  0.5858 -0.2101
   19MOL   C39917715   6.579   0.686   5.311  0.4528 -0.5410 -0.2820
   19MOL   C40017716   6.676   0.678   5.193  0.0073  0.1332  0.6874
   19MOL   C40117717   6.695   0.536   5.145 -0.0308  0.1350  0.4469
   19MOL   C40217718   6.800   0.524   5.035  0.6987 -0.6321 -0.8292
   19MOL   C40317719   6.751   0.579   4.898 -0.5820  0.1922 -0.1026
   19MOL   C40417720   6.836   0.552   4.776 -0.6043 -0.4053 -0.1666
   19MOL   C40517721   6.784   0.623   4.647  0.5906  0.2419  0.3588
   19MOL   C40617722   6.876   0.595   4.528  0.2065  0.6381  0.0180
   19MOL   O40717723   6.901   0.480   4.495  0.3033  0.1757 -0.5804
   19MOL   H40817724   6.821   1.198   5.785 -3.1260  1.5430 -3.7687
   19MOL   H40917725   6.704   0.931   5.810  1.8183  0.0143 -1.6400
   19MOL   H41017726   6.747   1.046   5.930  2.2159 -1.2251 -0.2836
   19MOL   H41117727   6.577   1.255   5.973 -1.5332  2.2266  0.1735
   19MOL   H41217728   6.332   1.300   5.982 -1.5183  0.2345 -2.4840
   19MOL   H41317729   6.166   1.174   5.868 -0.0882 -0.4742 -1.5942
   19MOL   H41417730   6.229   0.975   5.750  0.8119 -0.6446 -1.3946
   19MOL   H41517731   6.392   0.804   5.731  0.5095 -1.4899 -0.4643
   19MOL   H41617732   6.550   0.809   5.779  1.1051  0.9492  0.5504
   19MOL   H41717733   6.614   0.912   5.567  0.2266 -1.1064  0.9691
   19MOL   H41817734   6.531   0.893   5.275  0.0554 -0.2034 -0.8091
   19MOL   H41917735   6.663   0.861   5.386 -0.4015  0.9755  0.9840
   19MOL   H42017736   6.482   0.650   5.278  0.5107 -1.3301  0.4102
   19MOL   H42117737   6.601   0.612   5.388 -1.7190 -1.4819 -0.5203
   19MOL   H42217738   6.777   0.715   5.212 -0.0400 -0.1270  1.4563
   19MOL   H42317739   6.639   0.749   5.119  2.7373  0.3449 -0.5446
   19MOL   H42417740   6.733   0.477   5.228  2.3226  2.2610  0.9494
   19MOL   H42517741   6.593   0.500   5.127 -0.1807 -0.0844  1.7189
   19MOL   H42617742   6.897   0.569   5.059 -0.0619  1.6906 -1.8969
   19MOL   H42717743   6.818   0.417   5.028 -0.2665 -0.6924 -2.6734
   19MOL   H42817744   6.741   0.686   4.912  2.3828  0.5322 -0.2583
   19MOL   H42917745   6.649   0.539   4.889 -0.5124  0.0404 -0.2141
   19MOL   H43017746   6.853   0.447   4.752  2.0454  0.0812 -0.5460
   19MOL   H43117747   6.934   0.587   4.809 -0.4612 -1.8087  0.9136
   19MOL   H43217748   6.784   0.730   4.663 -0.5379  0.2209  0.5605
   19MOL   H43317749   6.682   0.593   4.620 -0.4174  2.9730  1.0114
   19MOL   N43417750   6.919   0.698   4.453  0.2302 -0.8001 -0.3397
   19MOL   C43517751   6.984   0.689   4.319  0.9080  0.8220 -0.4528
   19MOL   C43617752   7.096   0.789   4.303  0.2669 -0.5725  0.1049
   19MOL   C43717753   7.081   0.899   4.211 -0.2301  0.0918 -0.0490
   19MOL   C43817754   7.190   0.995   4.194  0.0562  0.2518 -0.0252
   19MOL   C43917755   7.308   0.979   4.263 -0.0829  0.3879  0.2318
   19MOL   C44017756   7.325   0.874   4.354  0.9751 -0.1364 -0.5322
   19MOL   C44117757   7.221   0.777   4.372 -0.9299  0.1143 -0.2799
   19MOL   C44217758   7.258   0.660   4.459  0.5955  0.2612 -0.6831
   19MOL   N44317759   7.292   0.542   4.379  0.0115 -0.2906 -0.6447
   19MOL   C44417760   7.265   0.418   4.426  0.7524  0.3785  0.2860
   19MOL   O44517761   7.242   0.391   4.542  0.0518 -0.0424 -0.2041
   19MOL   C44617762   7.266   0.313   4.315 -0.2374  0.1124 -0.4354
   19MOL   C44717763   7.147   0.217   4.323  0.2442 -0.2519  0.2056
   19MOL   C44817764   7.152   0.113   4.211 -0.0248  0.3392 -0.0991
   19MOL   C44917765   7.051   0.002   4.245 -0.0469 -0.0706  0.2209
   19MOL   C45017766   7.024   7.706   4.118 -0.1138 -0.3364  0.2153
   19MOL   C45117767   6.891   7.632   4.121 -0.4095  0.6678 -0.5303
   19MOL   C45217768   6.844   7.580   3.983 -0.3292  0.3644 -0.6408
   19MOL   C45317769   6.714   7.500   3.986 -0.6606 -0.3122  0.0176
   19MOL   C45417770   6.619   7.551   3.880  0.2318 -0.4229 -0.0737
   19MOL   O45517771   6.656   7.574   3.764 -0.3558  0.0504 -0.4740
   19MOL   H45617772   6.911   0.791   4.492  1.6023 -0.1502 -1.5481
   19MOL   H45717773   6.909   0.715   4.245  0.6171  0.1322 -0.4056
   19MOL   H45817774   7.033   0.593   4.299  1.1014  0.3953  1.8609
   19MOL   H45917775   6.983   0.913   4.169 -0.4565 -0.1599  0.3926
   19MOL   H46017776   7.172   1.073   4.121 -2.0409 -3.1814 -3.3653
   19MOL   H46117777   7.381   1.057   4.250  0.8977 -0.0358  2.7766
   19MOL   H46217778   7.420   0.859   4.403  0.8345  0.8588  0.0534
   19MOL   H46317779   7.178   0.638   4.529  0.9868  1.5773  0.1996
   19MOL   H46417780   7.341   0.673   4.528  0.1654  2.1031 -0.4799
   19MOL   H46517781   7.323   0.546   4.283 -0.6205  0.8219 -0.8161
   19MOL   H46617782   7.365   0.267   4.324 -0.1865  0.2198 -0.4468
   19MOL   H46717783   7.264   0.359   4.216  2.9805  0.4737 -0.4057
   19MOL   H46817784   7.050   0.268   4.316  0.5447  0.1936 -0.8052
   19MOL   H46917785   7.149   0.168   4.420  4.0152 -1.1393 -0.2428
   19MOL   H47017786   7.113   0.166   4.123 -3.0996  0.1412  1.0866
   19MOL   H47117787   7.247   0.065   4.186 -1.4237 -2.9825  0.7032
   19MOL   H47217788   7.093   7.735   4.328 -1.5046  0.4178  1.3025
   19MOL   H47317789   6.957   0.049   4.271 -0.7293 -0.8576 -0.7860
   19MOL   H47417790   7.037   7.767   4.028  2.8532  0.9208  1.4519
   19MOL   H47517791   7.106   7.635   4.108 -0.6134 -0.7181 -1.4491
   19MOL   H47617792   6.806   7.682   4.166  0.2958  1.5317 -0.1360
   19MOL   H47717793   6.907   7.543   4.183 -1.0988  1.0735  0.2371
   19MOL   H47817794   6.835   7.665   3.915 -4.0130  0.0417 -0.6355
   19MOL   H47917795   6.923   7.520   3.937  0.0366  0.2783  0.0955
   19MOL   H48017796   6.744   7.396   3.968  0.2548  0.4704 -3.3436
   19MOL   H48117797   6.670   7.519   4.084 -1.5845 -0.5649 -0.3440
   19MOL   N48217798   6.496   7.566   3.933 -0.0873  0.5602  1.2451
   19MOL   C48317799   6.395   7.638   3.873  0.2532  0.6553  0.0508
   19MOL   C48417800   6.290   7.687   3.971 -0.2429 -0.4617  0.1699
   19MOL   C48517801   6.278   7.634   4.098 -0.0437 -0.3670  0.3318
   19MOL   C48617802   6.179   7.682   4.187  0.3493  0.4177 -0.1186
   19MOL   C48717803   6.091   7.786   4.155 -0.6275 -0.9028 -0.6123
   19MOL   C48817804   6.096   0.047   4.022 -0.1136  0.0898 -0.4016
   19MOL   C48917805   6.200   0.001   3.931  0.2067 -0.3962  0.3445
   19MOL   C49017806   6.199   0.057   3.786 -0.3296 -0.3046 -0.3504
   19MOL   N49117807   6.300   0.152   3.746  0.0698 -0.5415 -0.4520
   19MOL   C49217808   6.312   0.272   3.791 -0.1233  0.6369 -0.0727
   19MOL   O49317809   6.243   0.306   3.891  0.6709  0.0032 -0.0752
   19MOL   C49417810   6.408   0.373   3.717  0.5913 -0.3475 -0.0905
   19MOL   C49517811   6.558   0.354   3.727 -0.3944  0.0811 -0.1687
   19MOL   C49617812   6.623   0.305   3.592  0.1412 -0.2977  0.6250
   19MOL   C49717813   6.777   0.315   3.578  0.0473  0.0771  0.1281
   19MOL   C49817814   6.853   0.212   3.676  0.2978  0.6301  0.7572
   19MOL   C49917815   7.002   0.229   3.669 -0.4021  0.4460 -0.0024
   19MOL   C50017816   7.084   0.148   3.766  0.2074  0.9106 -0.4131
   19MOL   C50117817   7.235   0.160   3.742  0.1325  0.3931  0.2383
   19MOL   C50217818   7.313   0.124   3.870 -0.1320 -0.0168 -0.4560
   19MOL   O50317819   7.296   0.025   3.934 -0.5692  0.6470 -0.2155
   19MOL   H50417820   6.488   7.535   4.029  1.9834 -3.2315  0.2774
   19MOL   H50517821   6.427   7.727   3.819  0.7864 -0.0193 -0.7572
   19MOL   H50617822   6.345   7.561   3.814 -0.6345  1.2713  0.0009
   19MOL   H50717823   6.337   7.552   4.136  0.1037  0.2005  1.3571
   19MOL   H50817824   6.176   7.632   4.283 -0.3026  0.4259 -0.1282
   19MOL   H50917825   6.014   0.026   4.224 -1.5068  2.4246 -2.8796
   19MOL   H51017826   6.025   0.121   3.988  0.1493  0.8992  0.7801
   19MOL   H51117827   6.100   0.098   3.768 -0.9299 -1.3502  0.4810
   19MOL   H51217828   6.201   7.761   3.719  0.3454  1.4216 -2.5882
   19MOL   H51317829   6.362   0.129   3.669  1.0462 -0.5559  0.3315
   19MOL   H51417830   6.398   0.471   3.765  1.5259 -0.3808  0.1848
   19MOL   H51517831   6.372   0.381   3.615 -1.6322  2.0464  0.8373
   19MOL   H51617832   6.581   0.277   3.801  1.3339  0.7185 -0.0062
   19MOL   H51717833   6.601   0.449   3.760 -1.4141  0.3220  0.4854
   19MOL   H51817834   6.577   0.209   3.567 -2.3752  1.3259 -1.2111
   19MOL   H51917835   6.589   0.364   3.507  0.2977 -0.0698  0.7199
   19MOL   H52017836   6.804   0.283   3.478 -0.6200  2.0192 -0.6992
   19MOL   H52117837   6.815   0.415   3.600  3.1540 -1.2533  1.1180
   19MOL   H52217838   6.830   0.245   3.778 -1.5436  0.9073  0.2689
   19MOL   H52317839   6.834   0.108   3.652  2.6445  0.4393 -0.4839
   19MOL   H52417840   7.020   0.332   3.699  0.1923  0.1339  0.7496
   19MOL   H52517841   7.046   0.211   3.570  0.6457  1.1842  0.3173
   19MOL   H52617842   7.043   0.173   3.864 -0.4764 -1.8627  0.0549
   19MOL   H52717843   7.054   0.046   3.746  1.4482  0.6709 -1.1029
   19MOL   H52817844   7.252   0.260   3.701 -0.3876  0.3192 -0.1527
   19MOL   H52917845   7.270   0.095   3.662  1.2096  0.8937  0.2945
   19MOL   N53017846   7.413   0.208   3.890 -0.3528  0.3051 -0.0348
   19MOL   C53117847   7.511   0.198   3.998  0.3499  0.1395  0.3977
   19MOL   C53217848   7.657   0.181   3.956 -0.2356 -0.3999  0.0996
   19MOL   C53317849   7.686   0.138   3.821  0.0235 -0.4719 -0.1846
   19MOL   C53417850   0.029   0.126   3.778 -0.6039  0.4109 -0.1118
   19MOL   C53517851   0.127   0.167   3.874 -0.5270  0.2815 -0.0065
   19MOL   C53617852   0.100   0.213   4.002  0.1403  0.2837 -0.3577
   19MOL   C53717853   7.758   0.218   4.048 -0.6171 -0.1430  0.8635
   19MOL   C53817854   7.729   0.272   4.186  0.0039 -0.6261 -0.2226
   19MOL   N53917855   7.749   0.416   4.198  0.2853 -0.1005 -0.2666
   19MOL   C54017856   7.651   0.510   4.191  0.0955  0.4063  0.3082
   19MOL   O54117857   7.534   0.481   4.212 -0.8811  0.2107 -0.1955
   19MOL   C54217858   7.685   0.655   4.168  0.6050  0.3116  0.1241
   19MOL   C54317859   7.765   0.684   4.036  0.2705  0.6482  0.0592
   19MOL   C54417860   7.776   0.834   3.993 -0.0916 -0.0161 -0.3214
   19MOL   C54517861   0.097   0.866   3.894  0.1791 -0.4155  0.1320
   19MOL   C54617862   0.126   1.018   3.894  0.7232 -0.1518 -0.2272
   19MOL   C54717863   0.019   1.097   3.822  1.0184 -0.6255 -1.1253
   19MOL   C54817864   0.072   1.233   3.776 -0.1136 -0.4846 -0.8237
   19MOL   C54917865   7.768   1.332   3.702  0.6190  0.0221  0.5358
   19MOL   C55017866   7.637   1.354   3.777 -0.3452 -0.5077 -1.0589
   19MOL   O55117867   7.629   1.442   3.863 -0.4449 -0.1999  0.2126
   19MOL   H55217868   7.419   0.288   3.828 -0.5896  0.5269  0.2259
   19MOL   H55317869   7.464   0.128   4.066 -1.4786 -0.1416 -1.1233
   19MOL   H55417870   7.495   0.300   4.032  0.3223  0.8949 -1.7771
   19MOL   H55517871   7.601   0.110   3.762 -0.1273 -1.7662  0.6189
   19MOL   H55617872   0.051   0.084   3.681  1.2398 -1.1601  0.9622
   19MOL   H55717873   0.230   0.150   3.844 -1.1527 -2.2160 -0.9183
   19MOL   H55817874   0.189   0.245   4.054  2.4112  1.4016 -4.6423
   19MOL   H55917875   0.013   0.231   4.254 -0.4047 -1.4149 -0.2430
   19MOL   H56017876   7.629   0.239   4.215  0.5373 -4.2956 -2.2473
   19MOL   H56117877   0.051   0.450   4.172  0.5396 -1.4856 -1.2618
   19MOL   H56217878   7.749   0.698   4.244 -0.4333 -0.3316  1.3826
   19MOL   H56317879   7.591   0.711   4.162  1.0264  0.8626 -1.7094
   19MOL   H56417880   7.722   0.648   3.942  0.6077  0.2662  0.0544
   19MOL   H56517881   0.076   0.644   4.044  0.1013  0.2623  0.2336
   19MOL   H56617882   7.677   0.870   3.965 -0.9058 -1.2615  0.9193
   19MOL   H56717883   0.009   0.875   4.091  1.8908 -2.5227  0.3105
   19MOL   H56817884   0.189   0.813   3.919  0.5276  0.3591  0.4950
   19MOL   H56917885   0.059   0.841   3.794  1.9871 -1.9682 -0.1904
   19MOL   H57017886   0.137   1.047   3.999  1.3021  1.4906 -0.7386
   19MOL   H57117887   0.214   1.050   3.839 -0.0567  0.8360 -0.9162
   19MOL   H57217888   7.725   1.110   3.890  1.6963 -0.4238 -0.3183
   19MOL   H57317889   7.769   1.050   3.732  1.4415  0.4393 -1.8735
   19MOL   H57417890   0.108   1.282   3.866  2.0186 -1.3294 -1.1873
   19MOL   H57517891   0.151   1.209   3.705  0.6513  0.2044 -0.1979
   19MOL   H57617892   7.752   1.310   3.597  0.2566 -1.7279  0.9416
   19MOL   H57717893   0.031   1.427   3.697  0.4307  0.2050  1.9154
   19MOL   N57817894   7.530   1.281   3.740 -0.4426 -0.0143 -0.5665
   19MOL   C57917895   7.396   1.299   3.792 -0.0218  0.5289  0.1523
   19MOL   C58017896   7.302   1.191   3.750  0.1674 -0.5000  0.4445
   19MOL   C58117897   7.275   1.085   3.841 -0.5456  0.1700  0.3723
   19MOL   C58217898   7.193   0.976   3.805 -0.2867  0.4655  0.0125
   19MOL   C58317899   7.146   0.963   3.673 -0.2910 -0.3833 -0.4990
   19MOL   C58417900   7.187   1.062   3.581 -0.7260 -0.0021 -0.3884
   19MOL   C58517901   7.265   1.181   3.612  0.1593 -0.0269 -1.4543
   19MOL   C58617902   7.313   1.265   3.496  0.5504 -0.3585  0.0876
   19MOL   N58717903   7.352   1.184   3.387  0.1480  0.0774  1.1535
   19MOL   C58817904   7.476   1.144   3.368 -0.5353  0.3891  0.0401
   19MOL   O58917905   7.565   1.176   3.448 -0.2356  0.6883 -0.3293
   19MOL   C59017906   7.504   1.048   3.250  0.3974 -0.0025 -0.0867
   19MOL   C59117907   7.599   0.928   3.277  0.1427  0.8207  0.0155
   19MOL   C59217908   7.586   0.810   3.185  0.3567 -0.2786  0.2522
   19MOL   C59317909   7.684   0.695   3.222  0.4267  0.1567  0.5926
   19MOL   C59417910   7.681   0.571   3.126  0.6734 -0.0581  0.5936
   19MOL   C59517911   7.781   0.457   3.158  0.4495 -0.4273  0.0871
   19MOL   C59617912   0.137   0.491   3.200  0.4295  0.0331 -0.4110
   19MOL   C59717913   0.241   0.385   3.166  0.1477 -0.4386  0.6712
   19MOL   C59817914   0.248   0.254   3.248  0.2309 -0.4741  0.0382
   19MOL   O59917915   0.221   0.270   3.362  0.3729 -0.4019  0.2751
   19MOL   H60017916   7.554   1.210   3.672  0.4308  1.6432 -2.0483
   19MOL   H60117917   7.358   1.392   3.752  2.5344  0.8294 -1.6598
   19MOL   H60217918   7.394   1.303   3.901  1.5920  1.4941  0.1626
   19MOL   H60317919   7.319   1.084   3.940 -0.9015  0.3317  0.5305
   19MOL   H60417920   7.169   0.907   3.884  0.7428 -0.1965 -0.2373
   19MOL   H60517921   7.080   0.884   3.642 -1.8095  0.0033  1.6337
   19MOL   H60617922   7.152   1.053   3.479  1.0403  1.7302 -1.1830
   19MOL   H60717923   7.390   1.339   3.519 -0.7491  1.7863 -2.1969
   19MOL   H60817924   7.229   1.316   3.448 -0.3044 -2.5874 -0.8314
   19MOL   H60917925   7.281   1.151   3.323  1.2146  1.5716 -0.8672
   19MOL   H61017926   7.526   1.098   3.155 -2.4396  1.2496 -0.1586
   19MOL   H61117927   7.405   1.006   3.229 -0.0789  0.1635  1.7144
   19MOL   H61217928   7.581   0.887   3.376 -0.1941 -0.4120 -0.5563
   19MOL   H61317929   7.700   0.967   3.289 -0.1173  1.4238  0.3080
   19MOL   H61417930   7.484   0.770   3.187  0.1964  0.0527 -0.8999
   19MOL   H61517931   7.599   0.852   3.086 -0.2308 -0.0938  0.2503
   19MOL   H61617932   7.780   0.736   3.250  1.3348 -1.3100 -0.3214
   19MOL   H61717933   7.643   0.656   3.315  0.1048 -1.1359 -0.0878
   19MOL   H61817934   7.581   0.530   3.139 -0.2507  1.5706 -1.1595
   19MOL   H61917935   7.697   0.606   3.024 -1.1298 -2.2231 -0.4748
   19MOL   H62017936   7.775   0.367   3.096 -2.2416 -0.8114  0.8647
   19MOL   H62117937   7.738   0.426   3.253 -3.0950 -3.1658 -2.2756
   19MOL   H62217938   0.169   0.579   3.145 -0.0193  1.0932  0.9881
   19MOL   H62317939   0.142   0.519   3.305  1.5758  0.1738 -0.4994
   19MOL   H62417940   0.238   0.369   3.058 -2.6854 -0.5794  0.7324
   19MOL   H62517941   0.341   0.426   3.182 -0.6157  1.0687  1.7076
   19MOL   N62617942   0.285   0.137   3.191 -0.4469 -0.4729  0.2057
   19MOL   C62717943   0.272   0.002   3.248 -0.4265  0.3568  0.1782
   19MOL   C62817944   0.209   7.690   3.146  0.2134  0.1430 -0.3618
   19MOL   C62917945   0.154   7.745   3.025  0.0754  0.7294 -0.9962
   19MOL   C63017946   0.104   7.662   2.923 -0.3441  0.4487 -0.3080
   19MOL   C63117947   0.100   7.523   2.953 -0.5525 -0.4538 -0.6040
   19MOL   C63217948   0.146   7.470   3.075 -0.7424 -0.8379 -0.1120
   19MOL   C63317949   0.211   7.551   3.165 -0.5501 -0.4076  0.0622
   19MOL   C63417950   0.275   7.490   3.291 -0.0018  0.3167 -0.4014
   19MOL   N63517951   0.200   7.529   3.408 -0.4618  0.0327 -0.2326
   19MOL   C63617952   0.097   7.458   3.458 -0.3734 -0.1704  0.6807
   19MOL   O63717953   0.037   7.375   3.391 -0.0532  0.4485 -0.3258
   19MOL   C63817954   0.048   7.497   3.595 -0.8036 -0.2367 -0.2963
   19MOL   C63917955   7.684   7.521   3.595 -0.3490 -0.2451 -0.2757
   19MOL   C64017956   7.628   7.558   3.733 -0.0971 -0.4097  0.3598
   19MOL   C64117957   7.487   7.623   3.724 -0.0946 -0.0214 -0.3346
   19MOL   C64217958   7.384   7.524   3.671 -0.0013  0.3327 -0.7566
   19MOL   C64317959   7.238   7.566   3.687  0.2915 -0.2744 -0.3053
   19MOL   C64417960   7.129   7.460   3.654 -0.2979  0.3411  0.9489
   19MOL   C64517961   6.992   7.525   3.668 -0.3119 -0.3259 -0.4034
   19MOL   C64617962   6.947   7.623   3.555 -1.2410 -0.3550 -0.2557
   19MOL   O64717963   7.024   7.659   3.464 -0.6449  0.3028  0.3039
   19MOL   H64817964   0.304   0.140   3.092  3.4618 -1.4994  0.8514
   19MOL   H64917965   0.203   0.016   3.331 -0.7317  0.1836 -0.0444
   19MOL   H65017966   0.372   7.765   3.282  0.5145  0.4984 -2.3616
   19MOL   H65117967   0.162   0.060   3.000 -0.9241  1.0611  0.0290
   19MOL   H65217968   0.060   7.702   2.833 -0.9421 -0.1421 -0.2820
   19MOL   H65317969   0.047   7.454   2.889  0.1141 -1.3677 -0.1647
   19MOL   H65417970   0.132   7.366   3.100 -2.1297 -1.0450 -1.7171
   19MOL   H65517971   0.377   7.529   3.289  0.3803 -0.6765 -1.2997
   19MOL   H65617972   0.292   7.382   3.293  2.4284  0.6880  1.8227
   19MOL   H65717973   0.246   7.594   3.470 -0.5684  0.2235 -0.3502
   19MOL   H65817974   0.099   7.587   3.629  2.5757 -1.1565 -2.6376
   19MOL   H65917975   0.071   7.426   3.674 -1.6618  0.5954  0.7056
   19MOL   H66017976   7.629   7.435   3.556 -0.7757  0.1417 -0.5254
   19MOL   H66117977   7.651   7.605   3.534 -0.5673 -0.2115 -0.1108
   19MOL   H66217978   7.627   7.473   3.801  2.6444 -1.4595 -0.8361
   19MOL   H66317979   7.698   7.638   3.759  1.7106 -1.2491 -1.7325
   19MOL   H66417980   7.463   7.657   3.825  0.5324  0.4549 -0.3430
   19MOL   H66517981   7.493   7.713   3.664  1.6712  0.9080  1.1741
   19MOL   H66617982   7.403   7.507   3.565  0.2632  2.0753 -1.0001
   19MOL   H66717983   7.403   7.425   3.712 -0.1381  0.8402  0.5665
   19MOL   H66817984   7.225   7.653   3.623  1.3749  0.1473  0.0385
   19MOL   H66917985   7.232   7.594   3.792 -4.9904  1.4062 -0.9046
   19MOL   H67017986   7.144   7.433   3.549 -1.3997  0.7839  0.6729
   19MOL   H67117987   7.143   7.373   3.718  2.7176  1.4575  1.8590
   19MOL   H67217988   7.000   7.594   3.752 -1.2852 -0.8465  0.1247
   19MOL   H67317989   6.923   7.451   3.709  0.7592  1.6845  5.4187
   19MOL   N67417990   6.824   7.666   3.566  0.6443  0.0424 -0.3608
   19MOL   C67517991   6.753   7.743   3.459  0.1186  0.3498  0.5120
   19MOL   C67617992   6.698   7.647   3.354  0.0952 -0.3612  0.7172
   19MOL   C67717993   6.778   7.629   3.238  0.3044  0.2610  0.6826
   19MOL   C67817994   6.748   7.540   3.137 -0.2771 -0.1809 -0.0630
   19MOL   C67917995   6.634   7.461   3.147 -0.0805 -0.3222 -0.8290
   19MOL   C68017996   6.545   7.475   3.262  0.0525 -0.3434 -0.4999
   19MOL   C68117997   6.586   7.561   3.368 -0.0796 -0.2122  0.6557
   19MOL   C68217998   6.509   7.560   3.494  0.2440  0.3972 -0.1391
   19MOL   N68317999   6.368   7.526   3.471  0.3139 -0.0881 -0.6560
   19MOL   C68418000   6.268   7.614   3.460  0.2613 -0.3812 -0.4267
   19MOL   O68518001   6.283   7.735   3.483 -0.0137  0.3053  0.4847
   19MOL   C68618002   6.133   7.562   3.412 -0.7330  0.5660 -0.3802
   19MOL   C68718003   6.034   7.585   3.518 -0.1375 -0.5234 -0.2674
   19MOL   C68818004   6.036   7.474   3.630  0.3759  0.3578 -0.5823
   19MOL   C68918005   5.912   7.467   3.717  0.5614 -0.3895  0.2856
   19MOL   C69018006   5.909   7.568   3.833  0.1782  0.5407 -0.0246
   19MOL   C69118007   5.772   7.552   3.915  0.2026  0.1820  0.4503
   19MOL   C69218008   5.764   7.626   4.052 -0.1801  0.3821 -0.2976
   19MOL   C69318009   5.644   7.588   4.138 -0.3557  0.2236 -0.1554
   19MOL   C69418010   5.521   7.673   4.119 -0.0855  0.0680 -0.4239
   19MOL   O69518011   5.469   7.684   4.008  0.3056 -0.1182  0.6461
   19MOL   H69618012   6.763   7.630   3.638  1.5617 -2.0817 -0.5982
   19MOL   H69718013   6.821   0.020   3.405 -1.6878  0.6735 -1.4215
   19MOL   H69818014   6.668   0.009   3.497 -2.1879 -2.1135 -0.9313
   19MOL   H69918015   6.861   7.696   3.221  0.0955  0.6471  1.1565
   19MOL   H70018016   6.814   7.536   3.052  2.2972 -2.2163  1.9709
   19MOL   H70118017   6.606   7.386   3.075  1.0446 -1.4342 -0.1277
   19MOL   H70218018   6.462   7.407   3.268  0.4723 -0.8483 -0.3940
   19MOL   H70318019   6.517   7.650   3.556 -2.6055 -0.9611  2.3124
   19MOL   H70418020   6.558   7.482   3.553  0.1876 -0.8918 -1.7743
   19MOL   H70518021   6.348   7.428   3.461  1.8259 -0.3051 -1.7230
   19MOL   H70618022   6.139   7.459   3.375 -0.5667 -0.0862  1.4458
   19MOL   H70718023   6.097   7.607   3.319 -2.2402 -0.4203 -0.2946
   19MOL   H70818024   5.933   7.596   3.480 -0.1178  0.2928 -0.0996
   19MOL   H70918025   6.054   7.682   3.563 -0.1506 -1.0487  0.8895
   19MOL   H71018026   6.035   7.378   3.577 -3.8562  0.2911 -0.5692
   19MOL   H71118027   6.129   7.483   3.685 -1.0244 -2.4884  2.4269
   19MOL   H71218028   5.816   7.464   3.666  0.3219 -0.2649  0.7201
   19MOL   H71318029   5.921   7.369   3.762  0.2225  0.3241  1.9565
   19MOL   H71418030   5.989   7.552   3.905  1.2502  1.1752 -1.0510
   19MOL   H71518031   5.917   7.672   3.800  0.6512 -0.2344 -2.4729
   19MOL   H71618032   5.776   7.445   3.936  0.8287 -0.4724 -2.6820
   19MOL   H71718033   5.680   7.579   3.863 -0.3998 -0.0434  1.3916
   19MOL   H71818034   5.763   7.734   4.037 -0.0338  0.2454 -1.3162
   19MOL   H71918035   5.852   7.608   4.114 -0.1360  0.2017 -0.4126
   19MOL   H72018036   5.677   7.592   4.242 -1.6228 -1.4683  0.3603
   19MOL   H72118037   5.618   7.483   4.119  2.2965 -0.6948  1.0290
   19MOL   N72218038   5.474   7.741   4.225  0.1990  0.3151 -0.2059
   19MOL   C72318039   5.344   0.023   4.230  0.3053 -0.3844 -0.7588
   19MOL   C72418040   5.266   7.778   4.351 -0.0750  0.7047  0.7018
   19MOL   C72518041   5.259   7.640   4.391 -0.0890 -0.5625 -0.0382
   19MOL   C72618042   5.190   7.591   4.505  0.8515 -0.2748 -0.6844
   19MOL   C72718043   5.108   7.684   4.569  0.4189 -0.0108  0.1991
   19MOL   C72818044   5.106   0.030   4.530 -0.2761 -0.0083 -0.0071
   19MOL   C72918045   5.191   0.077   4.424 -0.0091  0.7382 -0.3618
   19MOL   C73018046   5.188   0.229   4.394  0.8888  0.0297  0.2870
   19MOL   N73118047   5.316   0.297   4.423 -0.3759 -0.4539 -0.2529
   19MOL   C73218048   5.376   0.323   4.540 -0.8380 -0.0445 -0.5269
   19MOL   O73318049   5.319   0.299   4.646  0.6069 -1.2655  0.6298
   19MOL   C73418050   5.501   0.403   4.536 -0.1187  0.2158 -0.0190
   19MOL   C73518051   5.604   0.332   4.630 -0.2584  0.3846  0.1407
   19MOL   C73618052   5.684   0.212   4.563  0.2417 -0.1023  0.2376
   19MOL   C73718053   5.611   0.081   4.540  0.2059 -0.3200  0.1323
   19MOL   C73818054   5.710   7.745   4.535  0.1945 -0.2921 -0.0232
   19MOL   C73918055   5.644   7.605   4.530  0.8522 -0.3436 -0.0863
   19MOL   C74018056   5.551   7.575   4.646  0.9158 -0.6714 -0.2534
   19MOL   C74118057   5.491   7.434   4.656  0.1045 -0.8187 -0.2130
   19MOL   C74218058   5.408   7.421   4.782 -0.3787 -0.2271 -0.4739
   19MOL   O74318059   5.306   7.492   4.800  0.3648 -0.3611 -0.8943
   19MOL   H74418060   5.527   7.718   4.308  1.0722  0.4040 -0.7270
   19MOL   H74518061   5.273   0.013   4.148 -0.4311 -1.2766 -0.0257
   19MOL   H74618062   5.359   0.131   4.225  0.5442 -0.3298  0.8439
   19MOL   H74718063   5.317   7.566   4.339  1.5729  0.6067  0.1188
   19MOL   H74818064   5.189   7.488   4.537  2.3747 -0.4814 -1.2487
   19MOL   H74918065   5.056   7.655   4.658 -1.1832  0.0380 -0.6979
   19MOL   H75018066   5.048   0.099   4.589  0.0473  0.0337  0.2551
   19MOL   H75118067   5.115   0.284   4.454  0.6862 -2.5311  2.4738
   19MOL   H75218068   5.160   0.241   4.290 -0.2161  2.3709  0.8153
   19MOL   H75318069   5.364   0.323   4.338  0.9602  0.5870  0.7874
   19MOL   H75418070   5.473   0.503   4.567  0.3788 -0.2676  2.0203
   19MOL   H75518071   5.548   0.409   4.438  0.4811  0.8281  0.3074
   19MOL   H75618072   5.567   0.306   4.729  0.8854  0.4567  0.5925
   19MOL   H75718073   5.674   0.401   4.676 -1.0478  1.4346 -0.2217
   19MOL   H75818074   5.737   0.246   4.475 -1.1353 -0.7074 -0.8500
   19MOL   H75918075   5.764   0.182   4.630  3.1069 -0.7725 -3.3660
   19MOL   H76018076   5.532   0.071   4.614  1.3202  0.5282  1.4687
   19MOL   H76118077   5.569   0.089   4.440  0.4395 -0.6786  0.0017
   19MOL   H76218078   5.774   7.750   4.447  1.5795  1.3200  1.0659
   19MOL   H76318079   5.774   7.752   4.622  2.4409 -0.9352 -1.5819
   19MOL   H76418080   5.734   7.543   4.532  0.4436 -1.0064 -1.6353
   19MOL   H76518081   5.576   7.595   4.445 -0.3231  1.6790  0.5750
   19MOL   H76618082   5.609   7.605   4.733  1.0123 -0.1115 -0.5026
   19MOL   H76718083   5.469   7.648   4.643  0.6407 -0.8286  2.6506
   19MOL   H76818084   5.427   7.413   4.570 -0.2324  0.5988 -0.3279
   19MOL   H76918085   5.578   7.369   4.651  0.5280 -0.3463  0.7751
   19MOL   N77018086   5.441   7.326   4.871 -0.3369  0.6258 -0.0260
   19MOL   C77118087   5.363   7.295   4.992 -0.3800 -0.1206 -0.3480
   19MOL   C77218088   5.389   7.160   5.052 -0.9812  0.2008 -0.3795
   19MOL   C77318089   5.456   7.161   5.178 -0.8103  0.1958 -0.0467
   19MOL   C77418090   5.494   7.045   5.241  0.3145  0.0993 -0.5276
   19MOL   C77518091   5.465   6.923   5.176  0.5640 -0.1144 -0.5259
   19MOL   C77618092   5.397   6.919   5.052  0.1283 -0.3436  0.4725
   19MOL   C77718093   5.358   7.042   4.986  0.1562  0.0353  0.9146
   19MOL   C77818094   5.288   7.040   4.852 -0.2329  0.5230  0.6196
   19MOL   N77918095   5.205   6.922   4.833  0.8297  0.4069  0.2937
   19MOL   C78018096   5.160   6.867   4.722 -0.2666  0.2210  0.3315
   19MOL   O78118097   5.198   6.915   4.618 -0.1474  0.8525  0.7806
   19MOL   C78218098   5.065   6.748   4.731  0.0594  0.5514 -0.4455
   19MOL   C78318099   5.108   6.633   4.643 -0.5370  0.0415 -0.0655
   19MOL   C78418100   5.065   6.656   4.493  0.2791 -0.3552  0.1703
   19MOL   C78518101   5.079   6.530   4.408 -0.4108 -1.0666  0.7142
   19MOL   C78618102   5.214   6.470   4.386 -0.4655 -0.7738 -0.3074
   19MOL   C78718103   5.303   6.551   4.292 -0.2708  0.0595  0.3942
   19MOL   C78818104   5.452   6.510   4.258 -0.8856  0.8127 -0.5072
   19MOL   C78918105   5.536   6.598   4.161  0.1908 -0.1733  0.0745
   19MOL   C79018106   5.502   6.567   4.020  0.0364 -0.0892 -0.4116
   19MOL   O79118107   5.561   6.477   3.964 -0.0329 -0.0067 -0.4129
   19MOL   H79218108   5.529   7.278   4.855 -0.8014 -0.5004  0.7717
   19MOL   H79318109   5.385   7.373   5.065 -0.6961  0.2250 -0.6154
   19MOL   H79418110   5.256   7.309   4.974 -0.5919 -1.0581  0.1739
   19MOL   H79518111   5.482   7.252   5.230 -1.3597  0.5065 -0.3104
   19MOL   H79618112   5.546   7.058   5.334 -1.0835 -2.1144  0.6239
   19MOL   H79718113   5.491   6.828   5.221  2.5939  1.1480  1.0596
   19MOL   H79818114   5.378   6.824   5.005  1.9218 -0.4811  0.0294
   19MOL   H79918115   5.348   7.057   4.763  0.8124 -0.7061  1.0790
   19MOL   H80018116   5.225   7.128   4.861 -1.4364 -0.0746 -1.4416
   19MOL   H80118117   5.178   6.881   4.921 -0.5069  0.1687 -0.2091
   19MOL   H80218118   4.973   6.793   4.694 -0.3441 -0.1823 -0.3290
   19MOL   H80318119   5.051   6.713   4.834 -1.2673  1.3172 -0.3592
   19MOL   H80418120   5.062   6.540   4.676  0.6578 -0.1317  1.1241
   19MOL   H80518121   5.215   6.627   4.658 -0.7075 -0.6415  0.9191
   19MOL   H80618122   5.119   6.738   4.447 -0.7713  0.5379  0.5184
   19MOL   H80718123   4.960   6.684   4.481  0.6427  0.5612 -0.8746
   19MOL   H80818124   5.008   6.457   4.448 -0.6167 -0.0938  2.1766
   19MOL   H80918125   5.036   6.553   4.311  0.4232  1.1959  0.8518
   19MOL   H81018126   5.266   6.459   4.482  1.1786  0.8506 -0.9940
   19MOL   H81118127   5.200   6.375   4.335  0.1792 -1.6079  1.0323
   19MOL   H81218128   5.312   6.646   4.345 -0.4903  0.5559 -0.4592
   19MOL   H81318129   5.251   6.576   4.200  1.6981  0.6884 -0.5665
   19MOL   H81418130   5.442   6.407   4.225 -1.3646 -0.1539  2.4907
   19MOL   H81518131   5.512   6.497   4.348 -0.8675  1.3120 -0.4455
   19MOL   H81618132   5.642   6.573   4.169  0.3293 -0.6513 -2.5816
   19MOL   H81718133   5.542   6.704   4.186 -2.0364  0.0569 -0.2308
   19MOL   N81818134   5.414   6.647   3.963 -0.6327 -0.6899 -0.1137
   19MOL   C81918135   5.357   6.632   3.829  0.6022 -0.2495 -0.4223
   19MOL   C82018136   5.446   6.689   3.717 -0.5264  0.0037  0.1807
   19MOL   C82118137   5.528   6.591   3.657  0.2137  0.2997  0.7039
   19MOL   C82218138   5.600   6.629   3.537 -0.9392 -0.0709  0.0602
   19MOL   C82318139   5.609   6.765   3.505 -0.5008  0.3987 -0.1495
   19MOL   C82418140   5.530   6.864   3.577 -0.5324  0.4119  0.1447
   19MOL   C82518141   5.442   6.823   3.677 -0.2642 -0.6714 -0.1766
   19MOL   C82618142   5.346   6.927   3.744  0.5159 -0.8531  0.0302
   19MOL   N82718143   5.349   7.059   3.696  0.0416 -0.9895  1.1675
   19MOL   C82818144   5.301   7.098   3.581  0.1755 -0.3457  0.2205
   19MOL   O82918145   5.280   7.026   3.485  0.3710  0.2563  0.2194
   19MOL   C83018146   5.279   7.249   3.560 -0.3836 -0.0953  0.6037
   19MOL   C83118147   5.139   7.282   3.516 -0.4117 -0.5225  0.1884
   19MOL   C83218148   5.118   7.425   3.465 -0.1134 -0.3699  0.9750
   19MOL   C83318149   4.978   7.452   3.413 -0.0747  0.3673  0.1220
   19MOL   C83418150   4.979   7.574   3.326  0.6543 -0.2167 -0.1399
   19MOL   C83518151   4.844   7.649   3.317 -0.6373 -0.0129 -0.3204
   19MOL   C83618152   4.841   7.782   3.239 -0.5636 -0.3764  0.8337
   19MOL   C83718153   4.835   7.755   3.086 -0.3177 -0.6957  0.8166
   19MOL   C83818154   4.873   0.089   2.999 -0.0768  0.5885 -0.0272
   19MOL   O83918155   4.882   0.207   3.044  0.3393 -0.1910  0.5319
   19MOL   H84018156   5.361   6.706   4.025 -0.6508 -0.7195 -0.1009
   19MOL   H84118157   5.330   6.530   3.803 -1.9245  0.5370 -1.0726
   19MOL   H84218158   5.264   6.689   3.833  0.5234 -0.3993 -0.0838
   19MOL   H84318159   5.535   6.489   3.692  1.7007  0.1888  0.1219
   19MOL   H84418160   5.653   6.554   3.480 -0.7238 -0.9309  1.3698
   19MOL   H84518161   5.677   6.799   3.428 -0.3091  0.9154  0.2461
   19MOL   H84618162   5.527   6.968   3.550 -3.6695  0.2296 -0.5038
   19MOL   H84718163   5.364   6.932   3.851 -0.0890 -0.3515  0.1082
   19MOL   H84818164   5.244   6.895   3.725  0.1676 -0.2639  0.9255
   19MOL   H84918165   5.353   7.135   3.764 -0.7085 -1.9104  2.2537
   19MOL   H85018166   5.355   7.285   3.491 -1.0874  1.0101  0.4124
   19MOL   H85118167   5.303   7.300   3.653  2.7887  0.2123 -0.3158
   19MOL   H85218168   5.057   7.267   3.586 -2.1159  0.3443 -1.5875
   19MOL   H85318169   5.122   7.215   3.431 -1.3130 -0.4298  0.2878
   19MOL   H85418170   5.196   7.430   3.389 -1.9219 -2.5553 -1.0951
   19MOL   H85518171   5.142   7.492   3.548 -1.3738  0.3714  0.7568
   19MOL   H85618172   4.952   7.366   3.352 -0.3591  0.7502 -0.2998
   19MOL   H85718173   4.913   7.478   3.497 -0.0145  0.9309 -0.0069
   19MOL   H85818174   5.065   7.637   3.350 -0.6260  1.9670 -1.0839
   19MOL   H85918175   5.015   7.530   3.233  1.8317 -2.9752  1.5539
   19MOL   H86018176   4.826   7.669   3.423  1.3575  1.4929 -0.2358
   19MOL   H86118177   4.764   7.582   3.284 -0.1446 -0.0198 -1.5200
   19MOL   H86218178   4.931   0.049   3.263 -0.6196 -0.1068  0.4066
   19MOL   H86318179   4.757   0.048   3.280 -1.3331 -1.6436  1.0168
   19MOL   H86418180   4.892   7.664   3.066  0.2811 -0.1592  0.0691
   19MOL   H86518181   4.732   7.730   3.060 -1.2098  1.4604  2.1774
   19MOL   N86618182   4.874   0.061   2.869 -0.1701 -0.0248 -0.5070
   19MOL   C86718183   4.900   0.150   2.757 -0.4460  0.7192 -0.2744
   19MOL   C86818184   5.041   0.157   2.713 -0.2295 -0.1689  0.1298
   19MOL   C86918185   5.122   0.270   2.750  0.1525 -0.1709  0.3637
   19MOL   C87018186   5.259   0.277   2.710  0.3316  0.2679  0.3525
   19MOL   C87118187   5.318   0.177   2.638 -0.1631  0.5262 -0.0051
   19MOL   C87218188   5.245   0.062   2.610 -0.4451  0.0161 -0.2322
   19MOL   C87318189   5.105   0.049   2.642 -0.2016  0.2346  0.5662
   19MOL   C87418190   5.028   7.716   2.586  0.5694 -0.5995  0.4967
   19MOL   N87518191   5.036   7.592   2.669  0.0249 -0.8671 -0.2137
   19MOL   C87618192   4.940   7.537   2.740 -0.2822  0.3774  0.0215
   19MOL   O87718193   4.837   7.598   2.755 -0.0912 -0.2297  0.5135
   19MOL   C87818194   4.971   7.411   2.811 -0.0098 -0.4265 -0.4023
   19MOL   C87918195   4.864   7.367   2.907 -0.1706 -0.6240  0.2668
   19MOL   C88018196   4.886   7.232   2.972  0.5133  0.1309  0.0751
   19MOL   C88118197   4.782   7.210   3.085 -0.5746  0.0875  0.8625
   19MOL   C88218198   4.829   7.091   3.171 -0.2468  0.6301 -0.0790
   19MOL   C88318199   4.743   7.050   3.295 -0.2915 -0.1018  0.0089
   19MOL   C88418200   4.803   6.929   3.377  0.1876 -0.0043  0.1862
   19MOL   C88518201   4.942   6.941   3.456 -0.2995 -0.3298  0.0559
   19MOL   C88618202   5.003   6.800   3.470 -0.4240  0.0497 -0.4321
   19MOL   O88718203   4.934   6.703   3.500 -0.4107 -0.3531 -0.2273
   19MOL   H88818204   4.857   7.754   2.847  0.6954  0.0372 -1.4591
   19MOL   H88918205   4.841   0.138   2.666  2.1474 -1.0850 -1.7917
   19MOL   H89018206   4.871   0.250   2.791  0.4156  0.5679  0.9649
   19MOL   H89118207   5.076   0.357   2.794 -0.2455 -0.3204  0.2420
   19MOL   H89218208   5.319   0.365   2.725  0.3725  0.5831 -1.5775
   19MOL   H89318209   5.421   0.188   2.609  0.8044 -0.1959  2.9280
   19MOL   H89418210   5.307   7.776   2.564  0.7275  1.0814 -0.4469
   19MOL   H89518211   5.068   7.689   2.488  0.2369  0.5538  0.0293
   19MOL   H89618212   4.924   7.744   2.568  0.7567  0.3311  0.8123
   19MOL   H89718213   5.125   7.544   2.662 -0.1451 -1.0222 -1.4854
   19MOL   H89818214   5.061   7.423   2.873 -0.3445  0.7499 -0.1468
   19MOL   H89918215   4.986   7.329   2.740  4.6703 -0.7170  0.7092
   19MOL   H90018216   4.767   7.365   2.856  0.3010  0.2718 -0.6954
   19MOL   H90118217   4.848   7.434   2.991  0.2429 -2.2662  1.6741
   19MOL   H90218218   4.867   7.149   2.903  0.1578 -1.6560  2.2342
   19MOL   H90318219   4.989   7.237   3.007 -0.1124  2.6698  1.6567
   19MOL   H90418220   4.777   7.299   3.148  0.6757  0.1272  0.9235
   19MOL   H90518221   4.681   7.193   3.049 -0.1887  0.7624 -0.5865
   19MOL   H90618222   4.862   7.001   3.118 -0.3988  1.2248 -1.2063
   19MOL   H90718223   4.926   7.123   3.209 -0.4463 -1.5778  2.4506
   19MOL   H90818224   4.642   7.021   3.268  0.1170 -1.0888 -0.4999
   19MOL   H90918225   4.728   7.140   3.354 -0.2396 -0.5216  0.6706
   19MOL   H91018226   4.725   6.909   3.451 -0.1933 -1.3771 -0.5760
   19MOL   H91118227   4.815   6.851   3.302  1.3068  0.8917 -0.5843
   19MOL   H91218228   4.999   7.002   3.386  1.7161  0.6624  2.5336
   19MOL   H91318229   4.921   6.985   3.553 -0.3175  0.0064 -0.0995
   19MOL   N91418230   5.133   6.785   3.461 -0.6330 -0.5843  0.5439
   19MOL   C91518231   5.203   6.654   3.464  0.1171 -0.0204 -0.2198
   19MOL   C91618232   5.269   6.621   3.329 -0.2015 -0.2215  0.0260
   19MOL   C91718233   5.294   6.723   3.238 -0.2151 -0.3816 -0.1024
   19MOL   C91818234   5.364   6.689   3.123  0.1407 -0.8513  0.1012
   19MOL   C91918235   5.401   6.561   3.089 -0.2410  0.2452 -0.5368
   19MOL   C92018236   5.371   6.455   3.176  0.4411  0.3348  0.1162
   19MOL   C92118237   5.318   6.484   3.301  0.2715 -0.0972  0.1705
   19MOL   C92218238   5.307   6.375   3.408 -0.1597 -0.4127  0.4592
   19MOL   N92318239   5.172   6.312   3.417  0.2310 -0.7370  0.3470
   19MOL   C92418240   5.141   6.207   3.340  0.7605 -0.4421 -0.4643
   19MOL   O92518241   5.228   6.141   3.280 -0.1494  0.0772  0.6012
   19MOL   C92618242   4.992   6.176   3.315  0.4922 -0.0600  0.5884
   19MOL   C92718243   4.945   6.160   3.167 -0.0080  0.1498 -0.2608
   19MOL   C92818244   4.944   6.009   3.125  0.3898 -0.1472  0.4923
   19MOL   C92918245   4.961   6.011   2.968 -0.0213 -0.1706  0.5267
   19MOL   C93018246   4.957   5.876   2.903 -0.0341 -0.4646  0.5180
   19MOL   C93118247   4.976   5.886   2.755 -0.0478 -0.0442 -0.4218
   19MOL   C93218248   4.949   5.762   2.668  0.1590  0.5418 -0.7456
   19MOL   C93318249   4.989   5.775   2.525  0.1218 -0.0114  0.1041
   19MOL   C93418250   4.941   5.658   2.443 -0.3095 -0.1358 -0.5698
   19MOL   O93518251   4.849   5.686   2.368 -0.3999 -0.2489 -0.1685
   19MOL   H93618252   5.190   6.867   3.477 -3.9010  1.5153  1.9211
   19MOL   H93718253   5.268   6.684   3.545  0.1444  0.0763 -0.2778
   19MOL   H93818254   5.149   6.568   3.504  1.1641 -0.3846  0.4252
   19MOL   H93918255   5.259   6.822   3.262  0.8196 -0.4269  1.6719
   19MOL   H94018256   5.375   6.772   3.055  2.1827 -0.1736  1.2041
   19MOL   H94118257   5.465   6.542   3.004  1.3994 -0.1680  0.7489
   19MOL   H94218258   5.404   6.358   3.141 -1.3302  0.0763 -0.8957
   19MOL   H94318259   5.333   6.432   3.497 -2.6572 -0.2377  1.1065
   19MOL   H94418260   5.372   6.289   3.393  0.3670  0.0050  0.3313
   19MOL   H94518261   5.103   6.343   3.484  0.1462  0.5735 -0.3509
   19MOL   H94618262   4.941   6.259   3.363  1.6777 -0.1805  2.0851
   19MOL   H94718263   4.960   6.086   3.368 -0.7577 -0.3120 -0.5493
   19MOL   H94818264   5.015   6.218   3.106 -1.0595  1.2803 -0.4315
   19MOL   H94918265   4.852   6.216   3.163  0.2831  0.6543 -0.0166
   19MOL   H95018266   5.025   5.954   3.172  0.3114 -1.1527 -0.5303
   19MOL   H95118267   4.854   5.966   3.170  1.6550 -3.6203 -0.1865
   19MOL   H95218268   4.890   6.080   2.923 -1.4236 -2.5095 -0.9803
   19MOL   H95318269   5.061   6.052   2.956 -1.2181  1.7924 -3.6146
   19MOL   H95418270   4.861   5.828   2.919  1.1390 -1.5623  4.9413
   19MOL   H95518271   5.037   5.815   2.945  0.7702  1.9143  2.5497
   19MOL   H95618272   4.904   5.951   2.707  0.2993 -1.4357 -2.9138
   19MOL   H95718273   5.078   5.920   2.738 -0.0326  1.7778  2.7965
   19MOL   H95818274   4.840   5.751   2.677  0.6220 -3.8486  0.8180
   19MOL   H95918275   5.000   5.681   2.721  1.1063  2.4429  1.3271
   19MOL   H96018276   5.097   5.781   2.514  0.4878 -1.9562  2.2344
   19MOL   H96118277   4.947   5.866   2.482  2.9516  1.4154  0.3075
   19MOL   H96218278   5.002   5.568   2.442  0.3605  0.3102 -0.5771
   20MOL     N118279   0.562   7.493   0.162 -0.1594  0.5473  0.1953
   20MOL     C218280   0.559   7.566   0.289 -0.0938  0.6026 -0.1161
   20MOL     C318281   0.583   7.715   0.264 -0.2813  0.4351  0.1847
   20MOL     C418282   0.667   7.757   0.155  0.1287 -0.2331  0.8420
   20MOL     C518283   0.695   0.104   0.133  0.3230  1.0247 -0.0549
   20MOL     C618284   0.638   0.197   0.219 -0.0036  0.3120 -0.5527
   20MOL     C718285   0.558   0.152   0.328 -0.1098 -0.3466 -0.0424
   20MOL     C818286   0.529   0.020   0.352  0.0555  0.4143  0.2751
   20MOL     C918287   0.460   7.778   0.478 -0.0621  0.2298  0.7129
   20MOL    N1018288   0.563   7.735   0.572 -0.1353 -1.0500 -0.0937
   20MOL    C1118289   0.539   7.645   0.664  0.7925 -0.0668  0.4736
   20MOL    O1218290   0.432   7.583   0.679 -1.0165  0.0003  0.4788
   20MOL    C1318291   0.651   7.618   0.758  1.0106  1.1570 -0.2830
   20MOL    C1418292   0.697   7.470   0.764 -0.1644  0.3007  0.1492
   20MOL    C1518293   0.741   7.414   0.631  0.0422 -0.0067  0.0388
   20MOL    C1618294   0.812   7.282   0.644  0.0044  0.7658 -0.6950
   20MOL    C1718295   0.873   7.237   0.508  0.4779  0.1956 -0.2284
   20MOL    C1818296   0.953   7.106   0.533 -0.6786  0.2407 -0.0893
   20MOL    C1918297   0.993   7.038   0.398  0.5318 -0.2903  0.4855
   20MOL    C2018298   1.093   6.921   0.422  0.6634 -0.0743  0.1277
   20MOL    C2118299   1.117   6.844   0.297  0.4287  0.0418 -0.3167
   20MOL    O2218300   1.203   6.888   0.213  0.3353 -0.0619 -0.1895
   20MOL    H2318301   0.475   7.443   0.150 -0.0311  0.3111  0.2419
   20MOL    H2418302   0.468   7.544   0.345  0.1302 -0.9850 -0.3348
   20MOL    H2518303   0.649   7.548   0.349  0.3894 -0.0375 -1.0252
   20MOL    H2618304   0.711   7.685   0.088 -1.1804 -0.3214  0.0555
   20MOL    H2718305   0.753   0.148   0.053  0.7559 -0.7027 -0.7099
   20MOL    H2818306   0.653   0.303   0.200 -1.7145  1.0174  1.6987
   20MOL    H2918307   0.518   0.228   0.394  0.9525 -0.7054  1.0406
   20MOL    H3018308   0.386   7.702   0.453  2.3120 -1.3076 -1.8215
   20MOL    H3118309   0.390   0.068   0.505 -0.8730 -0.4512  0.6524
   20MOL    H3218310   0.646   0.002   0.575 -0.4367 -0.4728 -1.9277
   20MOL    H3318311   0.626   7.652   0.858 -2.5599  1.0765 -1.0838
   20MOL    H3418312   0.741   7.673   0.731  0.7694  1.3547 -0.6891
   20MOL    H3518313   0.609   7.414   0.797 -0.4537  1.5772  1.6088
   20MOL    H3618314   0.781   7.467   0.833 -0.4524 -0.7098  0.4592
   20MOL    H3718315   0.656   7.415   0.563  0.1529 -0.8320 -0.1124
   20MOL    H3818316   0.820   7.474   0.587 -0.2284  0.0728 -0.3470
   20MOL    H3918317   0.895   7.281   0.714 -0.9471 -0.9623  0.4742
   20MOL    H4018318   0.746   7.204   0.683  0.2475  0.9862  0.1630
   20MOL    H4118319   0.796   7.205   0.439  1.7197  0.4350 -1.7416
   20MOL    H4218320   0.941   7.306   0.458  0.0239 -0.1613 -1.3412
   20MOL    H4318321   0.895   7.035   0.592 -0.6579 -2.5315 -3.2763
   20MOL    H4418322   1.045   7.136   0.585 -1.0060  1.3292 -0.1209
   20MOL    H4518323   0.908   7.000   0.342 -1.0650  2.6965  0.7528
   20MOL    H4618324   1.039   7.116   0.337  2.0976 -1.4396  0.1697
   20MOL    H4718325   1.056   6.859   0.504  0.4981  1.8204  1.5088
   20MOL    H4818326   1.186   6.957   0.466  2.5615 -1.7788 -2.3479
   20MOL    H4918327   0.574   7.546   0.078 -1.5952 -2.9904 -2.3641
   20MOL    N5018328   1.041   6.736   0.287 -0.1981 -0.6367  0.3445
   20MOL    C5118329   1.021   6.663   0.160 -0.4056  0.6803  0.2440
   20MOL    C5218330   0.909   6.721   0.076  0.4425 -0.0142  0.0668
   20MOL    C5318331   0.945   6.836   0.004 -0.0820  0.0140  0.6634
   20MOL    C5418332   0.853   6.897   7.704 -0.0040  0.0534 -0.0834
   20MOL    C5518333   0.724   6.851   7.701  0.0019  0.2082  0.3829
   20MOL    C5618334   0.686   6.739   7.771 -0.1867  0.4155 -0.3711
   20MOL    C5718335   0.775   6.679   0.077 -0.3952 -0.9870  0.0951
   20MOL    C5818336   0.730   6.576   0.173 -0.7928 -0.2892 -0.3610
   20MOL    N5918337   0.739   6.440   0.123 -0.3850  0.4647  0.1588
   20MOL    C6018338   0.636   6.365   0.085 -0.6435 -0.1836  0.4928
   20MOL    O6118339   0.518   6.409   0.060 -0.0806  0.3584 -0.0689
   20MOL    C6218340   0.673   6.215   0.057  0.1166 -0.6395 -0.0131
   20MOL    C6318341   0.670   6.139   0.186  0.5177  0.4753  0.0302
   20MOL    C6418342   0.764   6.018   0.201  0.4445 -0.0045  0.4447
   20MOL    C6518343   0.744   5.913   0.096 -0.8918 -0.1154 -0.9035
   20MOL    C6618344   0.835   5.785   0.110 -0.2656  0.0857 -0.4105
   20MOL    C6718345   0.790   5.667   0.020 -0.1009  0.8619  0.3950
   20MOL    C6818346   0.881   5.550   0.042  0.3726  0.2056 -0.2521
   20MOL    C6918347   0.844   5.415   7.766 -0.1689  0.0540  0.0844
   20MOL    C7018348   0.962   5.319   7.785 -0.4460 -0.9577 -0.4174
   20MOL    O7118349   1.046   5.337   0.086  0.3512 -0.2785  0.4509
   20MOL    H7218350   0.974   6.727   0.362 -0.0236 -1.0789  0.4472
   20MOL    H7318351   1.001   6.560   0.192 -0.2050  0.3633 -0.6242
   20MOL    H7418352   1.111   6.654   0.098 -0.0175 -0.4166  0.9393
   20MOL    H7518353   1.051   6.856   7.790 -0.0824  0.5674  2.9195
   20MOL    H7618354   0.893   6.978   7.644  0.1289  0.3210  0.3585
   20MOL    H7718355   0.646   6.903   7.647 -0.6281 -1.0295  0.0965
   20MOL    H7818356   0.585   6.702   7.780  0.2392 -0.2862  1.8080
   20MOL    H7918357   0.628   6.588   0.212 -0.3222  1.0888  0.4967
   20MOL    H8018358   0.784   6.581   0.268 -0.5452 -0.9647 -0.4696
   20MOL    H8118359   0.828   6.392   0.122  0.6576  2.2469 -3.5882
   20MOL    H8218360   0.773   6.214   0.014  0.3527  1.4761  0.4237
   20MOL    H8318361   0.601   6.176   7.774 -0.2010 -0.5630  0.2604
   20MOL    H8418362   0.570   6.098   0.200  0.8845 -1.0378 -1.5899
   20MOL    H8518363   0.696   6.206   0.269 -0.9587  0.0955  0.8272
   20MOL    H8618364   0.871   6.037   0.210  0.4487 -0.1385  0.6755
   20MOL    H8718365   0.746   5.983   0.303  0.2610  0.6291  0.6387
   20MOL    H8818366   0.639   5.888   0.079 -1.2692  1.3990 -0.9013
   20MOL    H8918367   0.773   5.961   0.002  0.8547  0.3768 -0.1365
   20MOL    H9018368   0.939   5.813   0.091 -0.4793 -0.9310 -3.3011
   20MOL    H9118369   0.812   5.754   0.212 -2.8959  1.1166 -0.6579
   20MOL    H9218370   0.786   5.701   7.707 -0.0181  0.8361  0.3824
   20MOL    H9318371   0.689   5.633   0.047  0.3655 -0.7200  0.2333
   20MOL    H9418372   0.903   5.527   0.146  1.6392 -2.3482 -1.0196
   20MOL    H9518373   0.979   5.584   0.008  0.6104 -0.3784 -0.1544
   20MOL    H9618374   0.834   5.433   7.659  0.2783 -1.5851 -0.2465
   20MOL    H9718375   0.744   5.384   0.004 -0.9157  1.3817 -1.0809
   20MOL    N9818376   0.971   5.212   7.707  1.0984  0.4944 -0.0777
   20MOL    C9918377   1.044   5.093   7.746 -0.8033  0.0379  0.5630
   20MOL   C10018378   1.193   5.096   7.702 -0.0932 -0.3235 -0.4788
   20MOL   C10118379   1.257   5.213   7.654 -0.2045 -0.4476 -0.1419
   20MOL   C10218380   1.376   5.202   7.589  0.0717  0.8880 -0.0675
   20MOL   C10318381   1.444   5.084   7.565  0.0679 -0.5157 -0.6082
   20MOL   C10418382   1.384   4.964   7.612 -0.2496 -0.3725 -0.0153
   20MOL   C10518383   1.257   4.970   7.677 -0.2705  0.0274 -0.5683
   20MOL   C10618384   1.181   4.843   7.726  0.6668 -0.1210  0.9632
   20MOL   N10718385   1.266   4.725   7.723 -0.5439 -0.1218 -0.1747
   20MOL   C10818386   1.292   4.653   0.040 -0.4627 -0.1893 -0.0972
   20MOL   O10918387   1.244   4.658   0.153 -0.5136 -0.1863  0.7217
   20MOL   C11018388   1.374   4.529   0.014 -0.5794  0.1119 -0.4877
   20MOL   C11118389   1.511   4.553   0.083 -0.1032 -0.6766  0.2530
   20MOL   C11218390   1.615   4.446   0.063  0.3512 -0.1275  0.6497
   20MOL   C11318391   1.756   4.484   0.087 -0.9066  0.1559  0.7146
   20MOL   C11418392   1.809   4.594   7.783 -0.3714  0.3143 -0.5292
   20MOL   C11518393   1.810   4.568   7.639 -0.1272 -0.4205  0.3667
   20MOL   C11618394   1.694   4.644   7.574  0.4923 -0.2446 -0.2989
   20MOL   C11718395   1.673   4.610   7.425  0.2784 -0.4637  0.4797
   20MOL   C11818396   1.547   4.674   7.375 -0.7755  0.0540 -0.6383
   20MOL   O11918397   1.437   4.640   7.424  0.5076  0.6389  0.6596
   20MOL   H12018398   0.892   5.213   7.644  1.0023 -2.7672 -0.0983
   20MOL   H12118399   1.043   5.058   0.060  1.9942 -1.2047  0.2125
   20MOL   H12218400   0.999   5.011   7.690 -0.9946 -0.1026  0.9164
   20MOL   H12318401   1.217   5.312   7.667 -0.7686 -0.7239  0.2495
   20MOL   H12418402   1.413   5.287   7.534  0.7763 -0.6442 -2.0011
   20MOL   H12518403   1.541   5.071   7.519  1.4467 -0.2747  2.1334
   20MOL   H12618404   1.442   4.873   7.604 -1.1647 -0.9291 -0.4335
   20MOL   H12718405   1.099   4.815   7.659  0.3139 -0.9035  1.7139
   20MOL   H12818406   1.138   4.852   0.035 -1.5619 -1.6044  0.1586
   20MOL   H12918407   1.309   4.693   7.637  0.4151  0.7079 -0.0103
   20MOL   H13018408   1.388   4.520   7.696 -0.8794 -0.6231 -0.4721
   20MOL   H13118409   1.313   4.446   0.050  0.2555 -0.5473 -0.5644
   20MOL   H13218410   1.484   4.561   0.188  1.6591 -2.4178  0.8762
   20MOL   H13318411   1.541   4.650   0.042 -3.0461 -0.6110 -1.9333
   20MOL   H13418412   1.595   4.357   0.122  0.5855 -0.8607 -0.3728
   20MOL   H13518413   1.607   4.400   7.755 -0.5623 -0.3495  0.8206
   20MOL   H13618414   1.764   4.533   0.184 -1.2166 -1.2408  1.4672
   20MOL   H13718415   1.814   4.392   0.097 -2.0012 -0.5640  0.5682
   20MOL   H13818416   1.760   4.687   0.022 -1.5197 -0.8906  1.4654
   20MOL   H13918417   1.909   4.624   0.023 -0.8779  0.2751  1.2555
   20MOL   H14018418   1.791   4.464   7.613  1.1253 -0.6197  0.2139
   20MOL   H14118419   1.901   4.602   7.590 -1.7390  1.6493 -1.2989
   20MOL   H14218420   1.602   4.618   7.626 -0.6667  1.0703 -1.6495
   20MOL   H14318421   1.696   4.752   7.587  1.0986 -0.2198 -0.5864
   20MOL   H14418422   1.646   4.504   7.435  2.5703 -1.3250 -2.0232
   20MOL   H14518423   1.762   4.609   7.362 -0.0826 -1.8934 -0.0364
   20MOL   N14618424   1.561   4.769   7.277  0.1169 -0.6371 -0.4374
   20MOL   C14718425   1.448   4.816   7.197  0.6176  0.1948 -0.2754
   20MOL   C14818426   1.392   4.712   7.096  0.2666 -0.9011  0.1310
   20MOL   C14918427   1.481   4.659   6.999 -0.1897 -0.2114 -0.2021
   20MOL   C15018428   1.427   4.569   6.906 -0.1457 -0.0349 -0.1621
   20MOL   C15118429   1.295   4.528   6.909 -0.3346  0.3089  0.3317
   20MOL   C15218430   1.213   4.590   7.001 -0.2685  0.0743 -0.5191
   20MOL   C15318431   1.255   4.684   7.090 -0.2058  0.1531 -0.1988
   20MOL   C15418432   1.155   4.731   7.192 -0.1842  0.1443 -0.4161
   20MOL   N15518433   1.167   4.656   7.320 -0.1405  0.5489  0.0901
   20MOL   C15618434   1.064   4.598   7.380 -0.5255 -0.1062  0.1809
   20MOL   O15718435   0.950   4.591   7.336  0.5605 -0.2872  0.1526
   20MOL   C15818436   1.092   4.529   7.508 -0.0722 -0.5969  0.2951
   20MOL   C15918437   1.037   4.384   7.515 -0.1515 -0.4179 -0.5100
   20MOL   C16018438   1.110   4.285   7.426 -0.3439  0.3589  0.1432
   20MOL   C16118439   1.058   4.289   7.280 -0.6246  0.3630  0.1348
   20MOL   C16218440   1.097   4.168   7.193  1.5423  0.1093  0.3678
   20MOL   C16318441   1.242   4.136   7.186 -0.2457  0.1862  0.3875
   20MOL   C16418442   1.344   4.244   7.155  0.0684 -0.3675 -0.4586
   20MOL   C16518443   1.494   4.202   7.158 -0.4345 -0.1772  0.4361
   20MOL   C16618444   1.527   4.111   7.038  0.1391  0.0415  0.2123
   20MOL   O16718445   1.525   3.986   7.052 -0.4747 -0.0580 -0.0296
   20MOL   H16818446   1.652   4.808   7.258 -0.5497  1.8187  1.1470
   20MOL   H16918447   1.476   4.902   7.138 -2.3547  0.5853 -1.2214
   20MOL   H17018448   1.377   4.859   7.268  2.5203 -0.7621  2.2950
   20MOL   H17118449   1.589   4.667   7.001 -0.1830 -0.5173  2.9171
   20MOL   H17218450   1.497   4.515   6.845 -1.3681 -0.7726 -0.9358
   20MOL   H17318451   1.261   4.458   6.834 -1.0213 -1.4182  2.1957
   20MOL   H17418452   1.110   4.559   7.007 -0.1873 -0.1617 -0.3353
   20MOL   H17518453   1.061   4.724   7.138  0.4887  0.6975 -1.6836
   20MOL   H17618454   1.175   4.836   7.211 -0.7646  0.0904  0.5267
   20MOL   H17718455   1.256   4.644   7.367 -0.2737  0.1672  0.2532
   20MOL   H17818456   1.053   4.593   7.587  0.8300  2.5212 -1.6910
   20MOL   H17918457   1.199   4.516   7.524  0.3094  1.2812 -0.5807
   20MOL   H18018458   0.930   4.382   7.498 -0.1589  1.0580 -0.7029
   20MOL   H18118459   1.043   4.340   7.615 -0.1743  1.4931  0.3474
   20MOL   H18218460   1.218   4.297   7.437 -0.3098 -0.2971  0.5106
   20MOL   H18318461   1.093   4.183   7.460 -1.1989  0.7825  1.0187
   20MOL   H18418462   0.950   4.306   7.271 -0.6909 -0.6816 -1.2330
   20MOL   H18518463   1.112   4.373   7.236 -1.7889  1.7772  1.3118
   20MOL   H18618464   1.045   4.081   7.235 -0.8321  0.6974 -1.2487
   20MOL   H18718465   1.057   4.171   7.092  0.0063 -4.1610  0.7374
   20MOL   H18818466   1.258   4.056   7.114  2.0402  1.3746 -0.4584
   20MOL   H18918467   1.276   4.093   7.281  2.1380  1.0078 -0.0849
   20MOL   H19018468   1.325   4.294   7.060  1.5582  2.0606  0.4751
   20MOL   H19118469   1.335   4.326   7.227  0.4354 -0.9864  0.2926
   20MOL   H19218470   1.512   4.155   7.255 -2.1506  1.2373  1.4668
   20MOL   H19318471   1.566   4.284   7.171 -0.0564 -0.7521  2.0573
   20MOL   N19418472   1.579   4.173   6.933  0.0391  0.3283  0.0415
   20MOL   C19518473   1.655   4.110   6.830 -0.2120  0.0367  1.4029
   20MOL   C19618474   1.686   4.200   6.709 -0.4627 -0.6458  0.8667
   20MOL   C19718475   1.694   4.339   6.731  1.1913 -0.4509  0.0000
   20MOL   C19818476   1.724   4.427   6.623 -0.4213 -0.3505 -0.5676
   20MOL   C19918477   1.762   4.382   6.497 -0.3471  0.0173 -0.1114
   20MOL   C20018478   1.756   4.249   6.474 -0.1721 -0.2319  0.4821
   20MOL   C20118479   1.724   4.161   6.575  0.6491 -0.2219 -0.9112
   20MOL   C20218480   1.710   4.017   6.524 -0.0850  0.2584 -0.2606
   20MOL   N20318481   1.594   4.000   6.433 -0.3617  0.5237 -0.4726
   20MOL   C20418482   1.582   3.917   6.326 -0.4200  0.2126  0.2532
   20MOL   O20518483   1.669   3.840   6.293  0.0405  0.2595  0.0829
   20MOL   C20618484   1.452   3.928   6.252 -0.3679  0.5264 -0.0102
   20MOL   C20718485   1.326   3.905   6.341 -0.0457  0.0426 -0.4259
   20MOL   C20818486   1.277   4.028   6.417 -0.2395  0.8015  0.0470
   20MOL   C20918487   1.134   4.000   6.478  0.2454  0.0457  0.3260
   20MOL   C21018488   1.070   4.118   6.549  0.2638 -0.4068  0.8841
   20MOL   C21118489   0.934   4.083   6.615 -0.2131 -0.1568 -0.3075
   20MOL   C21218490   0.881   4.202   6.697 -0.2017  0.3117 -0.2723
   20MOL   C21318491   0.741   4.178   6.764  0.7513 -0.0445  0.2760
   20MOL   C21418492   0.630   4.209   6.668 -0.0047  0.1018  0.1491
   20MOL   O21518493   0.614   4.157   6.560  0.1049  0.0709  1.0402
   20MOL   H21618494   1.583   4.274   6.939 -0.3046  0.3486 -0.0409
   20MOL   H21718495   1.749   4.078   6.874 -0.8210 -1.7159  1.4610
   20MOL   H21818496   1.613   4.011   6.810  0.6265 -0.5809  2.6357
   20MOL   H21918497   1.665   4.379   6.827 -1.5937 -3.6280  0.5685
   20MOL   H22018498   1.714   4.531   6.651  2.8172 -0.4798  1.4571
   20MOL   H22118499   1.776   4.458   6.422 -1.2315  0.2381 -0.0586
   20MOL   H22218500   1.783   4.223   6.373  0.3373  1.9619  0.0228
   20MOL   H22318501   1.701   3.940   6.601 -0.1456  1.7615  1.2464
   20MOL   H22418502   1.803   3.992   6.473  0.3327  0.5971  0.3483
   20MOL   H22518503   1.526   4.071   6.454  0.6330  1.0837  0.9632
   20MOL   H22618504   1.455   3.862   6.166 -0.0781 -0.1619  0.5276
   20MOL   H22718505   1.447   4.027   6.206 -0.3318  0.3493 -0.3971
   20MOL   H22818506   1.249   3.867   6.273 -0.9940  1.0189  0.0925
   20MOL   H22918507   1.342   3.819   6.405 -1.6443 -0.7792 -1.0912
   20MOL   H23018508   1.343   4.047   6.501 -0.8861 -0.3452  0.8187
   20MOL   H23118509   1.275   4.110   6.346 -0.5383 -1.4748 -2.6742
   20MOL   H23218510   1.071   3.966   6.396  0.0900 -2.3140  1.3872
   20MOL   H23318511   1.146   3.913   6.543 -2.8689 -1.0820 -0.5380
   20MOL   H23418512   1.143   4.157   6.622 -0.6354  0.4461  1.3430
   20MOL   H23518513   1.057   4.197   6.475  3.8262 -0.2052  0.3566
   20MOL   H23618514   0.952   4.001   6.685 -1.0436 -0.7793 -0.8117
   20MOL   H23718515   0.870   4.046   6.535  0.1962 -2.9475  0.6082
   20MOL   H23818516   0.871   4.280   6.622  0.4033 -0.0221 -0.7025
   20MOL   H23918517   0.953   4.230   6.774 -0.2061 -2.3409  0.7728
   20MOL   H24018518   0.718   4.083   6.812 -0.2899 -1.3777 -2.7643
   20MOL   H24118519   0.737   4.258   6.838  0.0502  0.5023 -0.3505
   20MOL   N24218520   0.537   4.297   6.705  0.2379  0.3314  0.1747
   20MOL   C24318521   0.414   4.338   6.634 -0.1408  0.6256  0.8837
   20MOL   C24418522   0.288   4.246   6.674  0.5101 -0.0225  0.1072
   20MOL   C24518523   0.260   4.134   6.588  0.4490 -0.0431  0.1949
   20MOL   C24618524   0.143   4.057   6.601  0.3387 -0.2108  0.7930
   20MOL   C24718525   0.061   4.088   6.711 -0.1310  0.4226  0.3268
   20MOL   C24818526   0.096   4.189   6.801  0.1660 -0.1212  0.5060
   20MOL   C24918527   0.211   4.274   6.784 -0.4478  0.8025  0.1242
   20MOL   C25018528   0.250   4.381   6.882 -0.0943  0.3580  0.3944
   20MOL   N25118529   0.147   4.392   6.989  0.4863 -0.3259 -0.6402
   20MOL   C25218530   0.035   4.465   6.971  0.7695 -0.2860 -0.1030
   20MOL   O25318531   0.023   4.549   6.878 -0.5851  0.1099  0.0201
   20MOL   C25418532   7.712   4.467   7.076  0.5802 -0.8202  0.6032
   20MOL   C25518533   7.686   4.608   7.134 -0.0294  0.3022 -0.3825
   20MOL   C25618534   0.023   4.660   7.220 -0.8392  0.0587 -0.6710
   20MOL   C25718535   7.779   4.787   7.299 -0.0705 -0.2151  0.4326
   20MOL   C25818536   0.103   4.824   7.394 -0.7952 -0.4702 -0.7838
   20MOL   C25918537   0.082   4.952   7.479 -1.0441  0.3426 -0.7958
   20MOL   C26018538   0.039   5.076   7.402  0.3015  0.4472  0.1693
   20MOL   C26118539   0.067   5.188   7.501 -0.1360  0.9211  0.1130
   20MOL   C26218540   7.740   5.212   7.610 -0.1729  0.0936  0.5018
   20MOL   O26318541   7.623   5.211   7.577 -0.0257 -0.2010  0.3402
   20MOL   H26418542   0.551   4.332   6.799  1.0572  1.7493 -0.4631
   20MOL   H26518543   0.405   4.444   6.657  0.7352  1.5522 -2.8072
   20MOL   H26618544   0.444   4.320   6.531 -0.3432 -0.1392  0.9597
   20MOL   H26718545   0.328   4.109   6.508  0.3708  0.5667 -0.0595
   20MOL   H26818546   0.114   3.984   6.527 -0.5072  0.9573 -0.0506
   20MOL   H26918547   7.758   4.034   6.720 -1.5407  2.6256 -0.6878
   20MOL   H27018548   0.021   4.189   6.880 -2.4834  1.2074 -1.9171
   20MOL   H27118549   0.264   4.473   6.825  0.0466  1.2889  1.8912
   20MOL   H27218550   0.349   4.365   6.925 -0.0868 -2.4831 -0.6234
   20MOL   H27318551   0.156   4.333   7.070  1.7857  0.6741 -0.0337
   20MOL   H27418552   7.718   4.387   7.149 -0.4024 -1.1218  0.3541
   20MOL   H27518553   7.621   4.447   7.020 -0.5056 -0.2585  2.1498
   20MOL   H27618554   7.604   4.597   7.205 -0.7240 -0.4236 -1.2833
   20MOL   H27718555   7.639   4.677   7.065 -0.1196  0.0134 -0.6089
   20MOL   H27818556   0.119   4.669   7.168 -0.6294 -2.6764 -0.8301
   20MOL   H27918557   0.042   4.577   7.288 -3.1895 -0.0997 -0.1697
   20MOL   H28018558   7.771   4.866   7.225 -0.1185 -2.4261 -1.9992
   20MOL   H28118559   7.683   4.774   7.348  0.3826  2.6960  2.1861
   20MOL   H28218560   0.127   4.741   7.460  0.7695  0.7312  0.1998
   20MOL   H28318561   0.197   4.842   7.342 -0.6811  0.5816 -0.2425
   20MOL   H28418562   0.182   4.950   7.522 -1.4635 -0.3271  0.1605
   20MOL   H28518563   0.014   4.929   7.561 -0.4129  1.3257  0.0161
   20MOL   H28618564   0.101   5.096   7.315  0.0666 -0.3971 -0.1988
   20MOL   H28718565   7.725   5.092   7.373  1.1080  2.3120 -1.8330
   20MOL   H28818566   0.163   5.180   7.551  0.1700  1.3172 -0.4103
   20MOL   H28918567   0.077   5.282   7.446  1.3153  0.6672 -0.0627
   20MOL   N29018568   7.784   5.227   7.734  0.6297 -0.3912  0.6156
   20MOL   C29118569   7.710   5.277   0.058 -0.2649  0.1036 -0.4506
   20MOL   C29218570   7.721   5.423   0.084  0.3513 -0.4915 -0.7226
   20MOL   C29318571   7.610   5.494   0.027 -0.6304 -1.0083  0.1070
   20MOL   C29418572   7.602   5.630   0.043 -0.6079  0.5266  0.2937
   20MOL   C29518573   7.704   5.705   0.094 -0.5016 -0.6740 -0.0902
   20MOL   C29618574   0.029   5.644   0.149 -0.1661 -0.1593 -0.6922
   20MOL   C29718575   0.037   5.501   0.150  0.0571  0.3264 -0.6114
   20MOL   C29818576   0.149   5.424   0.218 -1.0025 -0.2521  0.3185
   20MOL   N29918577   0.275   5.422   0.141 -0.4045 -0.1747  0.8564
   20MOL   C30018578   0.317   5.343   0.049 -0.1222  0.1373 -0.4905
   20MOL   O30118579   0.255   5.244   0.011  0.5988  0.3939 -0.1276
   20MOL   C30218580   0.451   5.372   7.775 -0.0734  0.3652 -1.1319
   20MOL   C30318581   0.449   5.376   7.623 -0.5450  0.2613 -0.4240
   20MOL   C30418582   0.351   5.468   7.554  0.4399  0.3580  0.6064
   20MOL   C30518583   0.344   5.462   7.402  0.2515  0.0792 -0.0163
   20MOL   C30618584   0.448   5.551   7.330 -0.0049  0.3804  0.2036
   20MOL   C30718585   0.396   5.579   7.195 -0.0616 -0.0085 -0.5100
   20MOL   C30818586   0.515   5.623   7.106 -0.1227 -0.3139 -0.4461
   20MOL   C30918587   0.529   5.780   7.118  0.5936  0.2612 -0.1604
   20MOL   C31018588   0.615   5.824   7.232  0.2881 -0.5378 -0.4808
   20MOL   O31118589   0.727   5.771   7.244  0.0923 -0.3835  0.7084
   20MOL   H31218590   0.094   5.226   7.750  0.2348  0.6128  3.4201
   20MOL   H31318591   7.611   5.232   0.053 -0.3051  0.1240  0.2012
   20MOL   H31418592   7.748   5.226   0.147 -2.4137 -1.7719 -0.5418
   20MOL   H31518593   7.534   5.445   7.759 -0.2197 -0.0261 -1.2827
   20MOL   H31618594   7.518   5.673   7.779 -0.9332 -1.8483 -1.2100
   20MOL   H31718595   7.700   5.813   0.090  1.3219 -0.5645  0.6026
   20MOL   H31818596   0.104   5.707   0.195 -1.7984  1.6262 -0.4216
   20MOL   H31918597   0.115   5.323   0.242 -1.8375 -0.3545 -1.2656
   20MOL   H32018598   0.168   5.456   0.321  1.2742 -1.0781  0.1916
   20MOL   H32118599   0.341   5.497   0.159 -1.9478  1.7975 -1.4789
   20MOL   H32218600   0.503   5.459   0.026  2.2198 -0.6595 -1.8125
   20MOL   H32318601   0.521   5.292   0.007 -1.4188  0.0653  2.4183
   20MOL   H32418602   0.426   5.273   7.599  1.3218 -0.1450 -0.4916
   20MOL   H32518603   0.552   5.394   7.593 -0.0139 -0.9744  0.6014
   20MOL   H32618604   0.376   5.570   7.585  1.8536 -0.7626  3.3730
   20MOL   H32718605   0.249   5.458   7.589 -0.2613  1.6620 -1.0161
   20MOL   H32818606   0.365   5.361   7.368  1.1025 -0.0678  0.9216
   20MOL   H32918607   0.243   5.496   7.378  0.0031 -2.0976 -2.3462
   20MOL   H33018608   0.455   5.647   7.381 -1.1693 -0.2621  1.6278
   20MOL   H33118609   0.544   5.500   7.329  0.2669  0.8608  0.8590
   20MOL   H33218610   0.313   5.649   7.187  0.2418  0.3129 -0.8437
   20MOL   H33318611   0.361   5.487   7.149  0.6822 -0.4495 -0.2205
   20MOL   H33418612   0.612   5.574   7.116  0.5786  0.9505 -0.9091
   20MOL   H33518613   0.474   5.592   7.010  1.5901 -1.9817 -0.6603
   20MOL   H33618614   0.569   5.829   7.030  0.4727 -0.0370 -0.3824
   20MOL   H33718615   0.431   5.826   7.124  0.6643  0.4108 -0.1542
   20MOL   N33818616   0.568   5.912   7.324  0.2019 -0.0129 -0.6956
   20MOL   C33918617   0.623   5.944   7.455 -0.3926 -0.1780 -0.6201
   20MOL   C34018618   0.526   5.933   7.564 -0.1379  0.0985 -0.7202
   20MOL   C34118619   0.524   5.815   7.640 -0.8241 -0.0704  0.4990
   20MOL   C34218620   0.426   5.785   7.737  0.0798  0.3801 -0.2957
   20MOL   C34318621   0.330   5.881   7.760 -0.3804 -0.8464 -0.1007
   20MOL   C34418622   0.339   6.009   7.696 -0.2330  0.3438  0.4703
   20MOL   C34518623   0.432   6.034   7.592 -0.2632 -0.3171  0.0876
   20MOL   C34618624   0.424   6.164   7.517 -0.7541 -1.1664 -0.2768
   20MOL   N34718625   0.292   6.170   7.461 -0.2258  0.7444  0.3199
   20MOL   C34818626   0.264   6.124   7.340  0.8173 -0.8325 -0.3292
   20MOL   O34918627   0.348   6.093   7.259  0.0534 -0.2258  0.2659
   20MOL   C35018628   0.110   6.106   7.307 -0.4541 -0.0519 -0.7606
   20MOL   C35118629   0.068   5.960   7.323  0.4061 -0.4345  0.9194
   20MOL   C35218630   0.067   5.898   7.465 -0.9004 -0.0954  0.2264
   20MOL   C35318631   0.052   5.746   7.481 -0.7915 -0.2749  0.2582
   20MOL   C35418632   7.704   5.693   7.429 -0.5627  0.0419 -0.9506
   20MOL   C35518633   7.691   5.541   7.408  0.3423 -0.2416 -0.7072
   20MOL   C35618634   7.610   5.501   7.285  0.3506  0.2275 -0.3177
   20MOL   C35718635   7.634   5.351   7.266 -0.0355 -0.0248  0.1961
   20MOL   C35818636   7.559   5.291   7.140 -0.2650  0.3791  0.4476
   20MOL   O35918637   7.526   5.362   7.043 -0.6113  0.1505  0.5355
   20MOL   H36018638   0.475   5.950   7.312 -0.8360 -0.9413  3.3862
   20MOL   H36118639   0.701   5.868   7.468 -0.8364 -0.3692  0.9203
   20MOL   H36218640   0.675   6.040   7.457 -1.0293  0.1641 -0.5517
   20MOL   H36318641   0.591   5.732   7.619 -0.5187 -0.6763  3.5651
   20MOL   H36418642   0.424   5.696   0.008  1.6626  0.1927 -0.5191
   20MOL   H36518643   0.254   5.853   0.042 -1.2912 -0.6846 -0.9893
   20MOL   H36618644   0.257   6.074   7.722 -1.0083 -0.7742  0.8842
   20MOL   H36718645   0.495   6.187   7.437  0.2638  3.3049  1.7628
   20MOL   H36818646   0.430   6.259   7.568 -0.4674 -0.6199 -1.3062
   20MOL   H36918647   0.221   6.197   7.528 -0.1325 -0.6342  0.9966
   20MOL   H37018648   0.121   6.143   7.205  2.9359 -2.0765 -1.1942
   20MOL   H37118649   0.037   6.167   7.361 -1.7729 -0.0793 -2.4581
   20MOL   H37218650   0.131   5.888   7.271 -2.8075 -3.0050  0.4538
   20MOL   H37318651   7.756   5.958   7.286  1.2879  1.6391 -1.7507
   20MOL   H37418652   0.160   5.923   7.516 -0.3301 -1.5704 -0.0855
   20MOL   H37518653   7.773   5.949   7.513 -1.2917  1.1034 -1.6638
   20MOL   H37618654   0.082   5.727   7.584  0.5487 -0.0635 -0.0759
   20MOL   H37718655   0.132   5.707   7.419  0.3249  0.2029  1.3632
   20MOL   H37818656   7.628   5.727   7.499  0.7814  1.0740  0.0376
   20MOL   H37918657   7.670   5.742   7.338 -0.0314 -0.8769 -1.6576
   20MOL   H38018658   7.642   5.495   7.494  2.0165 -0.4974  0.1474
   20MOL   H38118659   7.789   5.492   7.408  0.5966  0.2515  0.4635
   20MOL   H38218660   7.506   5.533   7.291  0.3979  0.2484  0.4318
   20MOL   H38318661   7.645   5.557   7.198  0.0635 -0.0098 -0.5896
   20MOL   H38418662   7.606   5.303   7.359  1.7080  1.1375  1.3575
   20MOL   H38518663   7.739   5.334   7.240 -0.7042 -0.3177 -2.4658
   20MOL   N38618664   7.528   5.162   7.151 -0.2610 -0.4144  0.1565
   20MOL   C38718665   7.460   5.090   7.037 -0.3784 -0.0956 -0.6298
   20MOL   C38818666   7.303   5.074   7.051 -0.7770  0.0659 -0.5921
   20MOL   C38918667   7.236   5.198   7.083  0.3520 -0.3533  0.7664
   20MOL   C39018668   7.098   5.197   7.099  0.2236  0.5070  0.9300
   20MOL   C39118669   7.032   5.075   7.080 -0.2713  0.3485 -0.8442
   20MOL   C39218670   7.094   4.950   7.052  0.2512  0.3156 -0.0441
   20MOL   C39318671   7.233   4.951   7.038  0.4066 -0.2812 -0.6169
   20MOL   C39418672   7.302   4.813   7.019  0.3752 -0.2188 -0.2084
   20MOL   N39518673   7.212   4.697   7.019 -0.0933 -0.0658 -0.1565
   20MOL   C39618674   7.241   4.576   7.064  0.7217 -0.5336  0.0561
   20MOL   O39718675   7.356   4.538   7.088  0.1612  0.9144 -0.5247
   20MOL   C39818676   7.120   4.487   7.081  0.1429  0.2192  0.2462
   20MOL   C39918677   6.995   4.538   7.159  0.4181 -0.5121  0.1764
   20MOL   C40018678   7.036   4.582   7.302  0.4086 -0.0530  0.4512
   20MOL   C40118679   6.905   4.576   7.390 -0.4696  0.2898  0.0621
   20MOL   C40218680   6.919   4.577   7.543  0.0760 -0.0430 -0.0021
   20MOL   C40318681   6.785   4.597   7.615  0.5961  0.2107  0.0671
   20MOL   C40418682   6.806   4.589   7.762 -0.2749 -0.1680  0.0410
   20MOL   C40518683   6.676   4.593   0.054  0.3258  0.1153 -0.3736
   20MOL   C40618684   6.589   4.464   0.032 -0.4388  0.6855 -0.3603
   20MOL   O40718685   6.641   4.361   7.777 -0.5529 -0.3566  0.0342
   20MOL   H40818686   7.546   5.109   7.235 -0.7224  2.3016  2.0269
   20MOL   H40918687   7.494   5.125   6.939 -1.5612  0.1506 -0.9575
   20MOL   H41018688   7.496   4.988   7.050  0.4192 -0.0199 -2.0759
   20MOL   H41118689   7.283   5.293   7.107 -1.9520  1.3343 -1.0926
   20MOL   H41218690   7.055   5.293   7.124 -0.4079 -0.3910  3.5068
   20MOL   H41318691   6.925   5.070   7.097  0.0993  0.2475  1.7049
   20MOL   H41418692   7.034   4.860   7.060  1.3701 -0.6866 -2.5653
   20MOL   H41518693   7.386   4.808   7.088 -0.2304 -1.3975  0.4722
   20MOL   H41618694   7.350   4.798   6.922  2.0300 -2.0682  0.8530
   20MOL   H41718695   7.113   4.708   7.006 -0.0293 -1.8094 -2.2890
   20MOL   H41818696   7.095   4.446   6.983 -0.3577 -2.0193  1.2713
   20MOL   H41918697   7.165   4.399   7.128  1.8854  0.8988 -0.1440
   20MOL   H42018698   6.918   4.461   7.167  1.3974 -1.3850  1.4057
   20MOL   H42118699   6.938   4.613   7.104 -1.2532 -1.4258  0.6311
   20MOL   H42218700   7.074   4.684   7.299 -3.8437  1.6147 -0.2990
   20MOL   H42318701   7.112   4.517   7.347  1.2447 -0.2641 -1.2257
   20MOL   H42418702   6.836   4.650   7.350  0.0104  0.2110 -0.9216
   20MOL   H42518703   6.861   4.478   7.371  2.8210 -0.8205 -2.2691
   20MOL   H42618704   6.968   4.482   7.565  0.8089  0.1397 -0.8333
   20MOL   H42718705   6.997   4.652   7.557 -0.1963  0.1628  0.4254
   20MOL   H42818706   6.706   4.525   7.594 -0.4890  1.4383 -0.1561
   20MOL   H42918707   6.731   4.685   7.580 -1.6183 -0.7736  0.9176
   20MOL   H43018708   6.877   4.666   0.002  1.5771 -1.4366 -0.9778
   20MOL   H43118709   6.860   4.498   0.000  0.8354  0.3605 -0.3173
   20MOL   H43218710   6.614   4.682   0.045  0.9661  0.7169  1.1186
   20MOL   H43318711   6.712   4.603   0.156 -0.0602 -0.8231 -0.1366
   20MOL   N43418712   6.460   4.474   0.060 -0.2676  0.3297 -0.2446
   20MOL   C43518713   6.367   4.359   0.055  0.3011  0.7282 -0.1772
   20MOL   C43618714   6.225   4.394   0.014 -0.6770  0.3055 -0.9160
   20MOL   C43718715   6.182   4.388   7.667 -0.4978 -0.0044  0.0966
   20MOL   C43818716   6.049   4.419   7.630 -0.1782 -0.1129  0.5890
   20MOL   C43918717   5.958   4.461   7.725 -0.4641  0.3926  0.0913
   20MOL   C44018718   6.005   4.479   0.068  0.2737 -0.0397 -0.5384
   20MOL   C44118719   6.138   4.452   0.107  0.3421 -0.7714 -0.1767
   20MOL   C44218720   6.178   4.491   0.251  0.6794  0.4943  0.6218
   20MOL   N44318721   6.116   4.399   0.348 -0.1082  0.2997  0.3337
   20MOL   C44418722   6.052   4.423   0.464 -0.2954 -0.7313 -0.2189
   20MOL   O44518723   6.028   4.537   0.508 -0.2351 -0.9586  0.2214
   20MOL   C44618724   6.027   4.298   0.556  0.2850 -0.2967  0.6571
   20MOL   C44718725   5.935   4.326   0.668 -0.0354  0.2222 -0.7085
   20MOL   C44818726   6.002   4.372   0.798  0.9314 -1.0495 -0.4012
   20MOL   C44918727   6.105   4.477   0.787  0.0389  0.7861  0.1571
   20MOL   C45018728   6.172   4.512   0.922  0.2152  0.1186 -0.7249
   20MOL   C45118729   6.252   4.643   0.911 -0.2162 -0.1335 -0.9853
   20MOL   C45218730   6.350   4.666   1.029  0.3340 -0.2247  0.3129
   20MOL   C45318731   6.413   4.806   1.031  1.0046 -0.5907  0.3785
   20MOL   C45418732   6.539   4.817   1.113  0.4642 -0.4105  0.7219
   20MOL   O45518733   6.645   4.784   1.069 -0.8367 -0.4262 -0.4339
   20MOL   H45618734   6.430   4.557   0.108 -1.5984 -0.3212  0.0796
   20MOL   H45718735   6.362   4.305   0.150 -2.1892 -1.8840 -1.6787
   20MOL   H45818736   6.401   4.288   7.769 -0.2675 -0.1477  0.3821
   20MOL   H45918737   6.239   4.337   7.591  2.3427  0.4768  1.8379
   20MOL   H46018738   6.020   4.398   7.528  2.0477  1.1906 -0.3570
   20MOL   H46118739   5.858   4.491   7.698 -0.9469 -0.4020  0.9644
   20MOL   H46218740   5.938   4.524   0.139  1.9430  1.6090  0.0114
   20MOL   H46318741   6.151   4.597   0.261 -0.0296  0.1599  2.3675
   20MOL   H46418742   6.287   4.486   0.251  0.7396  0.4836 -2.9168
   20MOL   H46518743   6.123   4.305   0.311 -1.6074  0.8588 -1.4456
   20MOL   H46618744   6.120   4.266   0.603  0.2064 -2.0939 -0.3402
   20MOL   H46718745   5.999   4.214   0.492  1.6743  0.5645 -1.1104
   20MOL   H46818746   5.870   4.243   0.695 -1.2066  1.0714 -0.8906
   20MOL   H46918747   5.854   4.391   0.637 -1.8965 -0.2643  2.9163
   20MOL   H47018748   5.926   4.383   0.876  0.1764 -0.7390 -1.1683
   20MOL   H47118749   6.049   4.284   0.843 -0.2188 -0.2990  2.4152
   20MOL   H47218750   6.179   4.427   0.725  1.1531 -0.0799  2.1504
   20MOL   H47318751   6.067   4.566   0.736 -1.6487  0.6025  1.0233
   20MOL   H47418752   6.094   4.542   0.993  2.2857  1.6223  1.0006
   20MOL   H47518753   6.235   4.432   0.961 -0.0322 -0.0358 -0.6404
   20MOL   H47618754   6.175   4.719   0.916  0.2873  0.2857  0.7692
   20MOL   H47718755   6.299   4.654   0.813  0.6679  1.1361 -0.4354
   20MOL   H47818756   6.304   4.644   1.125 -0.7899 -1.5251 -0.4996
   20MOL   H47918757   6.430   4.591   1.022  1.2923  0.6414  1.7173
   20MOL   H48018758   6.441   4.827   0.927  0.3079 -1.6962 -0.0377
   20MOL   H48118759   6.342   4.885   1.053  0.9204 -1.4984  3.5357
   20MOL   N48218760   6.526   4.891   1.226  0.4137 -0.7686  0.0891
   20MOL   C48318761   6.636   4.928   1.317 -0.8178  0.0339 -0.3502
   20MOL   C48418762   6.759   4.995   1.251  0.4455 -0.2883 -0.1348
   20MOL   C48518763   6.734   5.112   1.178 -0.1955 -0.4314  0.0855
   20MOL   C48618764   6.846   5.175   1.115 -0.3660 -0.0753  0.3371
   20MOL   C48718765   6.971   5.120   1.122  0.0239 -0.4793  0.6681
   20MOL   C48818766   6.990   5.006   1.195 -0.1322  0.1943 -0.3997
   20MOL   C48918767   6.889   4.941   1.260 -0.1381 -0.5471 -0.1168
   20MOL   C49018768   6.923   4.826   1.356  0.0179 -0.6694  0.1852
   20MOL   N49118769   6.989   4.879   1.474 -0.5606 -0.0360  0.1740
   20MOL   C49218770   6.946   4.854   1.605  0.0736 -0.2480  0.6510
   20MOL   O49318771   6.853   4.779   1.640  0.7812  0.4687 -0.0783
   20MOL   C49418772   7.026   4.930   1.712 -0.3694 -0.4017 -0.1367
   20MOL   C49518773   6.996   4.887   1.860 -0.5475  0.1156  0.8822
   20MOL   C49618774   7.032   4.984   1.973  0.5390  0.1862 -0.1327
   20MOL   C49718775   6.985   4.938   2.112  0.2944  0.5030 -0.2796
   20MOL   C49818776   6.845   4.980   2.155  0.4225 -0.6827 -0.0947
   20MOL   C49918777   6.723   4.933   2.076  0.3180 -0.5022  0.0395
   20MOL   C50018778   6.596   5.001   2.140  0.6230 -0.0058 -0.3423
   20MOL   C50118779   6.461   4.969   2.070 -0.0436  0.3708 -0.3073
   20MOL   C50218780   6.353   5.064   2.126  0.2015  0.3527 -0.7075
   20MOL   O50318781   6.384   5.170   2.183  0.2620  0.0786 -0.2125
   20MOL   H50418782   6.435   4.927   1.248  1.0983  1.2059 -0.2171
   20MOL   H50518783   6.597   4.992   1.397 -1.9112 -3.3235  1.8865
   20MOL   H50618784   6.654   4.836   1.371  0.8216 -0.2853 -1.4307
   20MOL   H50718785   6.636   5.155   1.170  0.0463  0.1072 -0.0077
   20MOL   H50818786   6.818   5.254   1.047  0.9665 -0.2499 -0.4395
   20MOL   H50918787   7.059   5.167   1.080  2.1637 -1.9448  3.3177
   20MOL   H51018788   7.093   4.977   1.212 -0.1776 -0.3155 -0.9491
   20MOL   H51118789   7.000   4.760   1.315 -0.4294  0.7135 -3.0915
   20MOL   H51218790   6.841   4.757   1.373  0.3642 -1.5900 -1.7568
   20MOL   H51318791   7.066   4.944   1.468  0.6798 -1.5150 -0.5864
   20MOL   H51418792   7.005   5.035   1.690  2.7395 -0.3537 -3.2760
   20MOL   H51518793   7.132   4.926   1.689 -0.8494  1.1712 -2.7807
   20MOL   H51618794   7.045   4.789   1.870 -0.5665 -0.3021 -2.4598
   20MOL   H51718795   6.892   4.857   1.872 -1.5950  2.5354 -1.6770
   20MOL   H51818796   7.137   5.004   1.993  0.9181 -0.7010 -1.1894
   20MOL   H51918797   6.992   5.081   1.942  2.1088  0.9874  0.2911
   20MOL   H52018798   6.998   4.830   2.119  2.1277  0.7011 -0.4899
   20MOL   H52118799   7.049   4.982   2.188 -1.4672  0.8497  1.0194
   20MOL   H52218800   6.827   4.945   2.257  0.3081 -2.2404 -0.6428
   20MOL   H52318801   6.841   5.089   2.154  0.4734 -0.6859 -0.5331
   20MOL   H52418802   6.715   4.824   2.078  0.7546 -0.5253  2.4612
   20MOL   H52518803   6.723   4.966   1.973 -0.6525  1.9755  0.7831
   20MOL   H52618804   6.593   4.976   2.246  2.1935  1.1495 -0.0084
   20MOL   H52718805   6.617   5.108   2.140  0.3780  0.0442  0.1485
   20MOL   H52818806   6.429   4.867   2.091  0.5018  0.1746 -0.4176
   20MOL   H52918807   6.477   4.983   1.963 -0.1199 -1.8028 -0.6306
   20MOL   N53018808   6.227   5.021   2.109  0.1270 -0.4727  0.0629
   20MOL   C53118809   6.101   5.081   2.157 -0.5700  0.9265  0.2189
   20MOL   C53218810   6.068   5.053   2.307 -0.3424  0.4222 -0.4230
   20MOL   C53318811   6.130   4.951   2.384 -0.1165  0.4085 -0.5401
   20MOL   C53418812   6.114   4.940   2.527 -0.0291 -1.4571  0.9823
   20MOL   C53518813   6.019   5.022   2.591  0.0948 -0.2212  0.0495
   20MOL   C53618814   5.955   5.123   2.520 -0.0047 -0.6753 -0.5478
   20MOL   C53718815   5.978   5.135   2.378 -0.1732 -0.1911  0.1415
   20MOL   C53818816   5.902   5.243   2.297  0.4103  0.7670  0.2071
   20MOL   N53918817   5.971   5.375   2.302  0.0488  0.7689  0.7259
   20MOL   C54018818   5.927   5.481   2.242 -0.3118 -0.6224  0.4313
   20MOL   O54118819   5.806   5.512   2.237  0.3139 -0.5519 -0.2219
   20MOL   C54218820   6.030   5.582   2.180  0.0607  0.2811  0.2278
   20MOL   C54318821   6.011   5.589   2.022  0.5728 -0.3874 -0.5295
   20MOL   C54418822   6.085   5.470   1.951 -0.6040 -0.2008  0.0798
   20MOL   C54518823   6.090   5.504   1.792 -0.4575 -0.2907  0.0955
   20MOL   C54618824   6.153   5.379   1.715 -0.1276  0.3535  0.5505
   20MOL   C54718825   6.194   5.417   1.571  0.9197 -0.1022 -0.7101
   20MOL   C54818826   6.087   5.505   1.499 -0.2365 -0.6924 -0.0682
   20MOL   C54918827   6.116   5.545   1.360  0.3313 -0.1373  0.0209
   20MOL   C55018828   6.241   5.630   1.333 -0.0055  0.3356 -0.0541
   20MOL   O55118829   6.352   5.603   1.385 -0.7501  0.2245 -0.2770
   20MOL   H55218830   6.221   4.923   2.083 -2.3975 -0.3642  0.0721
   20MOL   H55318831   6.016   5.056   2.094 -0.0929  0.7270 -0.3488
   20MOL   H55418832   6.123   5.188   2.163 -1.9071  1.1503  1.5287
   20MOL   H55518833   6.210   4.899   2.333  0.9556  0.7508  0.7531
   20MOL   H55618834   6.165   4.860   2.578 -2.2524 -1.3585  3.4487
   20MOL   H55718835   6.001   5.018   2.698  0.8259  1.0459  0.2239
   20MOL   H55818836   5.888   5.197   2.559  0.8931 -0.5226  0.7226
   20MOL   H55918837   5.803   5.250   2.341  0.0131 -0.2724 -0.5148
   20MOL   H56018838   5.873   5.201   2.201 -0.7302 -0.1866  0.9559
   20MOL   H56118839   6.070   5.377   2.285 -0.2099  2.6510 -0.7593
   20MOL   H56218840   6.135   5.578   2.207  0.0028  0.9833  0.5841
   20MOL   H56318841   5.998   5.681   2.214  1.3282  1.1439 -0.9843
   20MOL   H56418842   6.051   5.683   1.984  2.4415  0.0386  2.3273
   20MOL   H56518843   5.908   5.596   1.988  0.9969 -1.0205 -1.9811
   20MOL   H56618844   6.186   5.464   1.992 -1.6679  1.8825  3.1707
   20MOL   H56718845   6.037   5.376   1.979 -0.0666  0.3911  3.2391
   20MOL   H56818846   5.988   5.524   1.758 -0.5382  1.5525  1.3414
   20MOL   H56918847   6.135   5.600   1.767 -0.3493 -0.5803 -0.8409
   20MOL   H57018848   6.243   5.348   1.768 -0.1868 -0.9052 -0.0689
   20MOL   H57118849   6.091   5.290   1.729 -0.5320  0.2480 -1.7704
   20MOL   H57218850   6.221   5.330   1.511  1.8268  0.3061 -0.9049
   20MOL   H57318851   6.289   5.471   1.569  0.2781  1.0518 -0.2832
   20MOL   H57418852   5.985   5.465   1.500 -0.1007 -1.0076  2.0964
   20MOL   H57518853   6.079   5.598   1.554 -0.3041 -0.8412  0.1737
   20MOL   H57618854   6.033   5.605   1.326  2.3816  3.3147  0.8737
   20MOL   H57718855   6.124   5.452   1.304  0.5612 -1.0303  1.4966
   20MOL   N57818856   6.235   5.708   1.232  0.8929  0.1540  0.2494
   20MOL   C57918857   6.345   5.786   1.183  0.3364 -0.0396  0.1991
   20MOL   C58018858   6.292   5.891   1.093 -0.4052  0.1693  0.1569
   20MOL   C58118859   6.223   6.004   1.148 -0.4580 -0.3682 -0.6440
   20MOL   C58218860   6.169   6.104   1.061  0.0852  0.3765 -0.1979
   20MOL   C58318861   6.193   6.092   0.923  0.3668 -0.1307 -0.3234
   20MOL   C58418862   6.262   5.985   0.871  0.4980 -0.8117  0.3492
   20MOL   C58518863   6.306   5.878   0.953 -0.0268  0.1409 -0.4585
   20MOL   C58618864   6.375   5.761   0.892  0.0549 -0.1156  0.0063
   20MOL   N58718865   6.390   5.752   0.747  0.5167  0.4578  0.2266
   20MOL   C58818866   6.477   5.673   0.682 -0.7898  0.0458  0.1388
   20MOL   O58918867   6.546   5.587   0.742 -0.2523  0.2241 -0.3683
   20MOL   C59018868   6.497   5.696   0.532 -0.1374 -0.1716  0.3537
   20MOL   C59118869   6.495   5.567   0.454 -0.3391  0.9401  0.0989
   20MOL   C59218870   6.521   5.600   0.309  0.6598  0.6040  0.4310
   20MOL   C59318871   6.493   5.485   0.214 -0.0963  0.4641  0.3197
   20MOL   C59418872   6.502   5.543   0.068 -0.4721 -0.0732  0.3293
   20MOL   C59518873   6.455   5.441   7.748 -0.1314 -0.0420 -0.6484
   20MOL   C59618874   6.465   5.507   7.611 -0.3973  0.1428  0.8661
   20MOL   C59718875   6.392   5.432   7.489 -0.4605  0.3832  0.0517
   20MOL   C59818876   6.414   5.284   7.503  0.2345  0.4229 -0.0119
   20MOL   O59918877   6.332   5.219   7.567 -0.5676 -0.4509 -0.3157
   20MOL   H60018878   6.146   5.724   1.186  0.0217  0.9505  2.1760
   20MOL   H60118879   6.423   5.722   1.139 -1.8862 -2.9761  0.3716
   20MOL   H60218880   6.388   5.828   1.274 -0.7077 -1.3131  1.3150
   20MOL   H60318881   6.208   6.012   1.255 -0.9258  1.7100 -0.8461
   20MOL   H60418882   6.114   6.190   1.096  0.3164  1.1438 -1.6800
   20MOL   H60518883   6.151   6.164   0.855  1.7667  0.8103 -0.2078
   20MOL   H60618884   6.282   5.982   0.765 -0.8130 -0.2956  0.0837
   20MOL   H60718885   6.315   5.675   0.919 -0.4500 -0.2286 -1.4257
   20MOL   H60818886   6.478   5.747   0.924  0.3865  1.2814 -0.3958
   20MOL   H60918887   6.326   5.814   0.698  0.6253  0.3377 -0.0671
   20MOL   H61018888   6.593   5.746   0.517 -0.1574  0.5970  2.5639
   20MOL   H61118889   6.416   5.762   0.500  1.5194  0.5422 -2.5223
   20MOL   H61218890   6.403   5.511   0.471 -0.6472  1.0023 -1.3227
   20MOL   H61318891   6.568   5.497   0.493 -0.5682 -0.7614 -2.4537
   20MOL   H61418892   6.452   5.677   0.275 -0.5252 -1.1283 -1.1349
   20MOL   H61518893   6.623   5.636   0.301  1.5773 -1.7748  0.8185
   20MOL   H61618894   6.578   5.416   0.218 -0.2181  0.1583 -1.8645
   20MOL   H61718895   6.403   5.425   0.227  2.3172 -3.4844 -0.2146
   20MOL   H61818896   6.446   5.637   0.061 -2.4308 -1.2504 -0.0568
   20MOL   H61918897   6.606   5.571   0.050  0.4109 -2.5661  1.3543
   20MOL   H62018898   6.359   5.401   7.780 -0.3040  1.6686  1.0594
   20MOL   H62118899   6.527   5.361   7.759  0.5162  0.6373  0.1007
   20MOL   H62218900   6.432   5.610   7.621 -0.8681  0.1276 -0.4188
   20MOL   H62318901   6.568   5.513   7.576 -1.0000  0.3734 -0.9585
   20MOL   H62418902   6.284   5.441   7.504 -0.3955 -1.2921  1.7231
   20MOL   H62518903   6.412   5.468   7.388  0.8291  0.9621  0.5001
   20MOL   N62618904   6.510   5.230   7.436  0.0948 -0.0666  0.1410
   20MOL   C62718905   6.536   5.093   7.413 -0.6637  0.5315  0.4499
   20MOL   C62818906   6.642   5.043   7.503 -0.6738  0.1186 -0.3186
   20MOL   C62918907   6.626   5.066   7.642  0.4199 -0.7440  0.1686
   20MOL   C63018908   6.725   5.036   7.731 -0.1770  0.2962 -0.0113
   20MOL   C63118909   6.846   4.980   7.687 -0.5888 -0.2385  0.5937
   20MOL   C63218910   6.865   4.943   7.552 -0.0852 -0.4412  0.5830
   20MOL   C63318911   6.760   4.972   7.456 -0.7770 -0.0467  0.5595
   20MOL   C63418912   6.788   4.954   7.306 -0.0434  0.4267 -0.4701
   20MOL   N63518913   6.707   4.855   7.232  0.6840 -1.0819 -0.0940
   20MOL   C63618914   6.698   4.852   7.099  0.3773  0.2028  0.5748
   20MOL   O63718915   6.766   4.918   7.025 -0.3105  0.4131  0.2939
   20MOL   C63818916   6.605   4.749   7.035  0.5573 -0.4272  0.0066
   20MOL   C63918917   6.460   4.781   7.006 -0.2931 -0.0038 -0.5965
   20MOL   C64018918   6.452   4.878   6.890  0.4514  0.1868 -0.0218
   20MOL   C64118919   6.312   4.926   6.860 -0.0596  0.4458 -0.1666
   20MOL   C64218920   6.316   5.052   6.777  0.3867 -1.1112  0.4819
   20MOL   C64318921   6.184   5.081   6.706  0.5298 -0.0733  0.4374
   20MOL   C64418922   6.200   5.196   6.613 -0.1341 -0.2490  0.1888
   20MOL   C64518923   6.082   5.228   6.517 -0.3896 -0.1669  0.0389
   20MOL   C64618924   5.982   5.312   6.599  0.0403  0.0350 -0.1820
   20MOL   O64718925   5.916   5.258   6.689  0.1124  0.2052 -0.3741
   20MOL   H64818926   6.573   5.296   7.393  0.1068 -1.1125 -1.4816
   20MOL   H64918927   6.561   5.075   7.308 -1.4057  2.4397 -0.0687
   20MOL   H65018928   6.450   5.035   7.446 -0.0602 -0.2968  0.5860
   20MOL   H65118929   6.543   5.119   7.687 -0.6511 -0.7975 -1.6729
   20MOL   H65218930   6.714   5.059   0.046 -1.6383 -1.8825  0.3601
   20MOL   H65318931   6.911   4.944   7.764 -0.1868 -1.2698 -0.2159
   20MOL   H65418932   6.956   4.893   7.522 -0.3377 -0.7766  0.3719
   20MOL   H65518933   6.894   4.931   7.294  0.0762 -0.0414  1.3638
   20MOL   H65618934   6.779   5.058   7.274 -2.0911  0.0664 -1.1038
   20MOL   H65718935   6.633   4.803   7.276 -1.5285  0.6356 -1.6878
   20MOL   H65818936   6.609   4.657   7.093 -0.8092 -0.2465  0.4096
   20MOL   H65918937   6.654   4.728   6.941  0.1325  2.2776 -0.8676
   20MOL   H66018938   6.429   4.822   7.103 -0.9069 -1.3489 -0.2210
   20MOL   H66118939   6.401   4.693   6.983 -0.0028 -0.6828  1.1455
   20MOL   H66218940   6.504   4.968   6.922  0.7292  0.2466 -0.6421
   20MOL   H66318941   6.501   4.836   6.803  1.3651  0.7562  0.2194
   20MOL   H66418942   6.267   4.847   6.799  2.3785  1.0945 -2.9180
   20MOL   H66518943   6.256   4.940   6.952  0.5537 -0.2219  0.3088
   20MOL   H66618944   6.353   5.135   6.838  1.2590 -0.1433 -1.3071
   20MOL   H66718945   6.389   5.037   6.697  2.1872  2.4580  1.3389
   20MOL   H66818946   6.096   5.099   6.768 -1.1890  1.5360 -2.3833
   20MOL   H66918947   6.161   4.992   6.647 -1.2510  1.7254 -1.6266
   20MOL   H67018948   6.234   5.278   6.676 -2.0246  0.8009 -0.1431
   20MOL   H67118949   6.285   5.176   6.547 -0.7657  2.1327 -1.4000
   20MOL   H67218950   6.031   5.134   6.496  0.8387 -0.9062  0.2968
   20MOL   H67318951   6.098   5.281   6.423 -1.3041 -0.8146 -0.4923
   20MOL   N67418952   5.987   5.440   6.583 -0.3331 -0.5653 -0.3146
   20MOL   C67518953   5.914   5.540   6.667  0.2628  0.8146 -0.7104
   20MOL   C67618954   6.006   5.651   6.711 -0.2399 -0.5886 -0.4295
   20MOL   C67718955   6.103   5.613   6.809 -1.1794  0.3690  0.0873
   20MOL   C67818956   6.208   5.705   6.839 -0.9347  0.7647 -0.2186
   20MOL   C67918957   6.207   5.835   6.788  0.2498 -0.0118 -0.2343
   20MOL   C68018958   6.110   5.875   6.691 -0.3327  0.9535 -0.3239
   20MOL   C68118959   6.011   5.779   6.660 -0.2828 -0.7792  0.4502
   20MOL   C68218960   5.908   5.818   6.559 -0.1646  0.4303  0.2890
   20MOL   N68318961   5.926   5.736   6.436  0.5520  0.1829 -0.1357
   20MOL   C68418962   5.826   5.728   6.347 -0.7192  0.1440  0.2181
   20MOL   O68518963   5.715   5.776   6.369 -0.1522 -0.1929  0.2341
   20MOL   C68618964   5.856   5.643   6.226 -0.3537 -0.7106 -0.2005
   20MOL   C68718965   5.784   5.504   6.243 -0.8965 -0.3653  0.3192
   20MOL   C68818966   5.645   5.516   6.186  0.0075  0.4059 -0.8032
   20MOL   C68918967   5.575   5.378   6.188 -0.1153  0.0073  0.1369
   20MOL   C69018968   5.444   5.385   6.099  0.6803 -0.6118  0.3171
   20MOL   C69118969   5.378   5.239   6.093 -0.5504  0.0355  0.4262
   20MOL   C69218970   5.314   5.190   6.225  0.0625 -0.1322 -0.1238
   20MOL   C69318971   5.196   5.273   6.281 -0.4380  0.0842 -0.2091
   20MOL   C69418972   5.242   5.390   6.377  0.2344  0.3231 -0.2965
   20MOL   O69518973   5.309   5.355   6.478  0.4841  0.0881  0.2302
   20MOL   H69618974   6.049   5.477   6.513  0.1270  1.0396  0.9056
   20MOL   H69718975   5.875   5.493   6.758 -1.6036  0.5507 -1.6362
   20MOL   H69818976   5.822   5.574   6.619  0.6021 -0.3453 -2.2050
   20MOL   H69918977   6.090   5.516   6.853 -0.0049  0.1349 -0.0522
   20MOL   H70018978   6.287   5.675   6.905  0.4733  0.7886 -1.8422
   20MOL   H70118979   6.284   5.906   6.814  0.0490  0.0616  0.1687
   20MOL   H70218980   6.123   5.974   6.648  1.3365  0.6515 -0.5414
   20MOL   H70318981   5.917   5.920   6.523 -0.8929 -0.0985 -1.4434
   20MOL   H70418982   5.812   5.814   6.611  0.4443 -1.9486  1.3267
   20MOL   H70518983   6.017   5.702   6.411  1.1986  0.4616  1.7898
   20MOL   H70618984   5.963   5.625   6.219 -0.4179 -2.1287  2.0507
   20MOL   H70718985   5.822   5.696   6.137 -2.2045  0.7967  1.3359
   20MOL   H70818986   5.785   5.469   6.347 -0.1191  0.0686  0.4583
   20MOL   H70918987   5.834   5.424   6.189  0.5508 -0.1145  1.2721
   20MOL   H71018988   5.582   5.587   6.239 -0.7385  0.2070 -1.4146
   20MOL   H71118989   5.641   5.553   6.083 -1.2896  2.4873 -0.0338
   20MOL   H71218990   5.641   5.310   6.135 -1.7813 -0.7362 -1.0298
   20MOL   H71318991   5.550   5.342   6.288 -2.2102 -0.5843 -0.5608
   20MOL   H71418992   5.380   5.466   6.133 -0.7355 -1.1274 -1.0422
   20MOL   H71518993   5.471   5.409   5.997  1.3128 -1.3079  0.3104
   20MOL   H71618994   5.438   5.165   6.041 -2.2062 -1.6693  0.8758
   20MOL   H71718995   5.288   5.251   6.033  0.0382 -1.7583 -0.8694
   20MOL   H71818996   5.389   5.175   6.302 -0.9743  0.6178  1.0491
   20MOL   H71918997   5.286   5.087   6.204  0.7756  0.2326 -3.0304
   20MOL   H72018998   5.127   5.212   6.339 -0.2188  0.4397  0.4304
   20MOL   H72118999   5.129   5.314   6.205  0.2734  0.4538 -0.6446
   20MOL   N72219000   5.212   5.516   6.340 -0.0733  0.2451  0.6235
   20MOL   C72319001   5.248   5.632   6.417  0.0150 -0.2423  0.0282
   20MOL   C72419002   5.229   5.759   6.338  0.4622  1.0404  0.1709
   20MOL   C72519003   5.345   5.826   6.294  0.2992 -0.0515 -0.4981
   20MOL   C72619004   5.326   5.948   6.220 -0.2091 -0.5641 -0.0087
   20MOL   C72719005   5.198   6.007   6.196  0.2354  0.2567 -0.3395
   20MOL   C72819006   5.089   5.926   6.226  0.3337  0.0555  0.0479
   20MOL   C72919007   5.100   5.811   6.301  0.3428 -0.1284 -0.0318
   20MOL   C73019008   4.965   5.739   6.330 -0.0795 -0.1632  0.2216
   20MOL   N73119009   4.871   5.743   6.223  0.4337  0.2845 -0.0636
   20MOL   C73219010   4.755   5.812   6.231 -0.2929 -1.1141  0.8764
   20MOL   O73319011   4.712   5.864   6.330 -0.2717  0.0889  0.2785
   20MOL   C73419012   4.691   5.830   6.091 -0.2399 -0.6226 -0.0230
   20MOL   C73519013   4.538   5.860   6.108 -0.2032  0.1759  0.0045
   20MOL   C73619014   4.448   5.738   6.124 -0.3302 -0.0704  0.8867
   20MOL   C73719015   4.462   5.626   6.020 -0.4820  0.1829 -0.1836
   20MOL   C73819016   4.565   5.515   6.051  0.4261  1.3694  0.3174
   20MOL   C73919017   4.542   5.386   5.966  0.1544 -0.3061 -0.6283
   20MOL   C74019018   4.519   5.403   5.817 -0.3157  0.1549 -0.5448
   20MOL   C74119019   4.518   5.274   5.737  0.1569 -0.6353 -0.0537
   20MOL   C74219020   4.405   5.174   5.769  0.0477 -0.1162 -0.3505
   20MOL   O74319021   4.284   5.199   5.767  0.1545  0.0025 -0.1965
   20MOL   H74419022   5.192   5.533   6.242  0.3361  2.6387  0.9191
   20MOL   H74519023   5.344   5.629   6.469  0.4681 -0.8079 -0.8352
   20MOL   H74619024   5.179   5.631   6.502 -0.0592 -2.4139 -0.0206
   20MOL   H74719025   5.441   5.782   6.313  0.4015 -0.3890 -1.7186
   20MOL   H74819026   5.414   5.984   6.169 -0.2266  0.3024  0.5515
   20MOL   H74919027   5.193   6.106   6.153 -2.5707 -0.0005 -0.6813
   20MOL   H75019028   4.989   5.964   6.208 -0.1322  0.3239  3.0333
   20MOL   H75119029   4.922   5.779   6.422 -0.0815  1.1481 -0.3506
   20MOL   H75219030   4.990   5.633   6.344  0.9157 -0.1735 -1.4894
   20MOL   H75319031   4.896   5.711   6.131 -0.7227  0.5033 -0.4596
   20MOL   H75419032   4.716   5.745   6.028 -1.1910 -0.6387 -0.3971
   20MOL   H75519033   4.739   5.906   6.028  2.1099 -1.6533  0.5024
   20MOL   H75619034   4.507   5.913   6.017  2.5119  0.8413 -0.5663
   20MOL   H75719035   4.520   5.933   6.186  1.2810 -0.6809  1.1647
   20MOL   H75819036   4.459   5.688   6.221  0.3942 -1.5736  0.0594
   20MOL   H75919037   4.349   5.784   6.127  0.4852  1.9259 -1.4713
   20MOL   H76019038   4.373   5.563   6.024  0.5497 -1.2410  0.4999
   20MOL   H76119039   4.478   5.674   5.924 -0.6768  0.7542  0.0686
   20MOL   H76219040   4.669   5.539   6.032  0.4839  0.2505 -0.8534
   20MOL   H76319041   4.566   5.495   6.158 -1.6861 -0.1539  0.0879
   20MOL   H76419042   4.467   5.322   6.013  0.5993  0.5814  1.3446
   20MOL   H76519043   4.626   5.318   5.978  0.5938  0.1857 -0.8717
   20MOL   H76619044   4.425   5.451   5.793 -1.9173 -1.8896  1.4418
   20MOL   H76719045   4.596   5.466   5.772  0.9961  0.4657  2.0323
   20MOL   H76819046   4.499   5.313   5.637  0.8387  1.3422  0.5517
   20MOL   H76919047   4.619   5.234   5.732  1.0165  1.5597 -0.9971
   20MOL   N77019048   4.452   5.054   5.798 -0.5216 -0.0904  0.2717
   20MOL   C77119049   4.383   4.938   5.834 -0.2285  0.1921 -0.1625
   20MOL   C77219050   4.398   4.909   5.981  0.1667 -0.7572 -0.6488
   20MOL   C77319051   4.516   4.845   6.026  0.2705 -1.1309 -0.0591
   20MOL   C77419052   4.532   4.820   6.159 -0.2718  0.0949  0.2640
   20MOL   C77519053   4.431   4.844   6.250  0.3018 -0.1360  0.1587
   20MOL   C77619054   4.312   4.907   6.208 -0.3329 -0.1308 -0.2747
   20MOL   C77719055   4.287   4.933   6.066 -0.7249  0.7207 -0.1397
   20MOL   C77819056   4.156   5.009   6.033  0.2310  0.4583  0.4730
   20MOL   N77919057   4.156   5.152   6.021  0.2001  0.6057  0.5333
   20MOL   C78019058   4.125   5.231   6.124  0.4454 -0.0866  0.2655
   20MOL   O78119059   4.114   5.192   6.239  0.1389  0.9686 -0.4223
   20MOL   C78219060   4.106   5.382   6.093  0.4106 -0.0061  0.5213
   20MOL   C78319061   4.091   5.466   6.213  0.2093 -0.1878 -0.1853
   20MOL   C78419062   4.204   5.463   6.317  0.1618  0.5057 -0.4850
   20MOL   C78519063   4.200   5.581   6.412 -0.7119 -0.4074 -1.0691
   20MOL   C78619064   4.322   5.586   6.522 -0.0861  0.3015  0.8609
   20MOL   C78719065   4.380   5.451   6.576 -0.8058  0.4402 -0.0930
   20MOL   C78819066   4.523   5.466   6.626 -0.5960 -0.8077  0.2194
   20MOL   C78919067   4.639   5.495   6.533 -0.2690  0.0546 -0.2254
   20MOL   C79019068   4.780   5.503   6.609  0.0770 -0.1030 -0.0903
   20MOL   O79119069   4.826   5.611   6.654  0.3515 -0.2379  0.3345
   20MOL   H79219070   4.550   5.042   5.819 -0.5786 -0.7865  0.1748
   20MOL   H79319071   4.283   4.935   5.792  0.4427  0.6693 -1.8430
   20MOL   H79419072   4.437   4.858   5.783 -2.6120 -0.7327 -1.2763
   20MOL   H79519073   4.592   4.820   5.954 -0.0061  1.6010 -1.3344
   20MOL   H79619074   4.626   4.779   6.193  1.2299  2.2121 -1.2142
   20MOL   H79719075   4.444   4.822   6.355 -1.4134 -0.5646  0.2958
   20MOL   H79819076   4.230   4.936   6.271 -0.8984 -0.9447 -0.6258
   20MOL   H79919077   4.092   4.974   6.113 -0.0387 -0.1426  0.0025
   20MOL   H80019078   4.121   4.962   5.941  0.7360  1.2424 -0.1281
   20MOL   H80119079   4.170   5.191   5.930  0.2769 -0.9497 -0.1467
   20MOL   H80219080   4.019   5.384   6.027 -0.2534 -1.1363  1.3493
   20MOL   H80319081   4.196   5.416   6.040 -0.6737  1.2468 -0.5613
   20MOL   H80419082   3.997   5.435   6.259  0.8297 -0.6129  0.8157
   20MOL   H80519083   4.067   5.567   6.180 -1.4447 -0.2989  0.5869
   20MOL   H80619084   4.298   5.451   6.264 -0.8244 -0.9435 -1.9641
   20MOL   H80719085   4.200   5.376   6.383 -2.1420  0.5839 -0.4695
   20MOL   H80819086   4.202   5.675   6.356 -0.0636  0.0180 -0.3437
   20MOL   H80919087   4.113   5.570   6.476  0.6958 -1.8452  0.6522
   20MOL   H81019088   4.404   5.633   6.467 -0.2104 -0.5913 -0.1105
   20MOL   H81119089   4.295   5.649   6.606  0.9376  1.3051  0.4632
   20MOL   H81219090   4.397   5.387   6.490 -0.6533 -0.3851  0.5447
   20MOL   H81319091   4.309   5.395   6.637  0.8084 -2.4534 -0.7715
   20MOL   H81419092   4.552   5.388   6.697 -1.2313 -0.8946  0.3906
   20MOL   H81519093   4.513   5.556   6.687 -1.3158 -1.7708  1.5577
   20MOL   H81619094   4.624   5.590   6.482 -0.5285  1.2408  1.9690
   20MOL   H81719095   4.661   5.420   6.458  1.8320 -0.4625  0.8802
   20MOL   N81819096   4.847   5.385   6.625  0.5771  0.5145  0.3570
   20MOL   C81919097   4.976   5.363   6.684 -0.5805  0.7730  0.1415
   20MOL   C82019098   4.981   5.362   6.835 -0.0766  0.5227 -0.0221
   20MOL   C82119099   5.093   5.433   6.884  0.3821 -0.4656  0.4948
   20MOL   C82219100   5.104   5.453   7.021 -0.1496  0.6679 -0.2629
   20MOL   C82319101   5.010   5.403   7.110 -0.6666 -0.1962  0.5988
   20MOL   C82419102   4.897   5.334   7.056 -0.6009  0.3669 -0.0073
   20MOL   C82519103   4.881   5.310   6.919  0.0224  0.6398 -0.4106
   20MOL   C82619104   4.761   5.227   6.877 -0.4392 -0.0336 -0.1309
   20MOL   N82719105   4.799   5.096   6.817  0.0111 -0.6211  0.0716
   20MOL   C82819106   4.767   4.978   6.862 -0.3516 -0.0913 -0.6989
   20MOL   O82919107   4.683   4.958   6.949  0.1641  0.2615 -0.0853
   20MOL   C83019108   4.841   4.869   6.791 -0.5467  0.0238 -0.5941
   20MOL   C83119109   4.793   4.722   6.813 -0.1405 -0.0761 -0.4087
   20MOL   C83219110   4.694   4.677   6.708  0.2813  0.7340 -0.1246
   20MOL   C83319111   4.671   4.522   6.712 -0.1605  0.1323  0.3858
   20MOL   C83419112   4.528   4.464   6.677 -0.2743 -1.3379  0.6702
   20MOL   C83519113   4.427   4.450   6.794  0.2923 -0.2985  0.0355
   20MOL   C83619114   4.333   4.570   6.828  0.4163 -0.1628  0.4459
   20MOL   C83719115   4.382   4.664   6.938  0.5612  0.0807  0.4654
   20MOL   C83819116   4.311   4.795   6.937  0.3982 -0.6339  0.0167
   20MOL   O83919117   4.191   4.793   6.935  0.6164  0.1303  0.0514
   20MOL   H84019118   4.805   5.304   6.580 -0.0920  0.8582  0.3503
   20MOL   H84119119   5.007   5.265   6.648  0.2545  0.5664  1.3886
   20MOL   H84219120   5.041   5.439   6.640 -1.1830  1.7506  0.9299
   20MOL   H84319121   5.173   5.466   6.820 -2.1143  1.0967 -1.9390
   20MOL   H84419122   5.190   5.507   7.058  0.6579 -1.0336  0.3792
   20MOL   H84519123   5.003   5.424   7.216  0.8783 -0.3090  0.7244
   20MOL   H84619124   4.824   5.301   7.128 -0.5387 -0.3315 -0.2552
   20MOL   H84719125   4.700   5.296   6.818 -1.1025 -0.8232 -0.3797
   20MOL   H84819126   4.701   5.217   6.967  1.6405  1.6663  1.4941
   20MOL   H84919127   4.871   5.101   6.748 -0.7327 -1.8268 -0.8000
   20MOL   H85019128   4.945   4.880   6.822 -0.8135 -0.8664  0.6239
   20MOL   H85119129   4.837   4.889   6.684  1.9076  1.4458 -0.4794
   20MOL   H85219130   4.749   4.707   6.911  0.3665  3.5710  0.4396
   20MOL   H85319131   4.885   4.663   6.809 -0.3349 -0.4120  0.0184
   20MOL   H85419132   4.715   4.704   6.605 -3.8519  0.5856 -1.0805
   20MOL   H85519133   4.598   4.724   6.729 -0.3531  1.4678 -4.2819
   20MOL   H85619134   4.743   4.485   6.639 -0.4228  0.5380 -0.0825
   20MOL   H85719135   4.701   4.478   6.807  2.3637 -0.9733 -0.8680
   20MOL   H85819136   4.480   4.514   6.593  1.2949  0.4013  0.7810
   20MOL   H85919137   4.548   4.364   6.639  0.9030  0.5542 -4.0873
   20MOL   H86019138   4.487   4.420   6.881  1.7792 -0.7829 -1.1317
   20MOL   H86119139   4.369   4.365   6.759  0.0903 -0.5804  1.0449
   20MOL   H86219140   4.233   4.534   6.854  0.4778 -0.6962 -0.0239
   20MOL   H86319141   4.319   4.636   6.742  0.7139 -1.2864 -0.4870
   20MOL   H86419142   4.357   4.619   7.034  0.8638 -0.6365  0.2080
   20MOL   H86519143   4.490   4.673   6.938  0.3941  2.5029  1.4823
   20MOL   N86619144   4.386   4.901   6.936 -0.2839 -0.6349 -0.2668
   20MOL   C86719145   4.353   5.042   6.938 -0.5863 -0.7368 -0.1669
   20MOL   C86819146   4.277   5.083   6.808  0.2564 -1.1625 -0.5901
   20MOL   C86919147   4.142   5.123   6.829  0.9446  0.6808 -0.0545
   20MOL   C87019148   4.059   5.166   6.718 -0.2339  0.4879 -0.4518
   20MOL   C87119149   4.115   5.164   6.587 -0.2879 -0.1731  0.0647
   20MOL   C87219150   4.246   5.117   6.565  0.0294 -0.1807 -1.3043
   20MOL   C87319151   4.331   5.076   6.671  0.6256  0.3132 -0.2502
   20MOL   C87419152   4.482   5.040   6.648  0.1071 -0.1310 -0.4369
   20MOL   N87519153   4.520   5.071   6.511 -0.2502  0.0386 -0.3368
   20MOL   C87619154   4.643   5.115   6.472 -0.0967 -0.0546 -0.0486
   20MOL   O87719155   4.736   5.145   6.543 -0.0316 -0.2535  0.1799
   20MOL   C87819156   4.666   5.120   6.319  0.1671  0.3072 -0.4028
   20MOL   C87919157   4.811   5.082   6.274 -0.2867 -0.0791 -0.6852
   20MOL   C88019158   4.831   5.110   6.126  0.0441 -0.2476  0.3165
   20MOL   C88119159   4.950   5.031   6.088  0.1421  0.4845 -0.1217
   20MOL   C88219160   5.028   5.080   5.961  0.4458 -0.2747 -0.2425
   20MOL   C88319161   5.131   4.976   5.911  0.2436  0.5993 -0.2193
   20MOL   C88419162   5.206   5.041   5.799  0.1889 -0.3236 -0.4393
   20MOL   C88519163   5.311   4.950   5.727 -0.9431 -0.7405  0.7868
   20MOL   C88619164   5.247   4.860   5.621 -0.7704  0.8233 -0.2354
   20MOL   O88719165   5.122   4.855   5.608 -0.3045 -0.0022  0.3087
   20MOL   H88819166   4.483   4.878   6.919 -0.3049 -1.3066  0.5137
   20MOL   H88919167   4.303   5.065   7.032  1.3930 -1.2399  1.0477
   20MOL   H89019168   4.448   5.095   6.926  0.1263 -1.2414  2.8170
   20MOL   H89119169   4.102   5.119   6.929  2.5162  1.1288  0.5990
   20MOL   H89219170   3.954   5.186   6.732 -0.0613  1.5581 -0.7144
   20MOL   H89319171   4.056   5.204   6.506  0.1535 -2.1753 -1.2787
   20MOL   H89419172   4.272   5.120   6.460  1.9650  0.8557 -0.8079
   20MOL   H89519173   4.487   4.933   6.665 -1.8113 -0.0504  0.7372
   20MOL   H89619174   4.544   5.090   6.722  1.3966 -0.5526 -1.2084
   20MOL   H89719175   4.456   5.049   6.437 -0.1613  0.9992 -0.7020
   20MOL   H89819176   4.640   5.224   6.300  1.3657  0.9472  1.3544
   20MOL   H89919177   4.593   5.063   6.261 -1.9158  1.1545  1.2815
   20MOL   H90019178   4.832   4.981   6.309  1.2672  0.5965  0.3593
   20MOL   H90119179   4.887   5.148   6.315 -1.0578  1.8425 -2.2682
   20MOL   H90219180   4.744   5.079   6.070  0.7379  1.6942 -1.9254
   20MOL   H90319181   4.854   5.216   6.111 -0.9601  0.0703  0.9940
   20MOL   H90419182   5.022   5.026   6.170  0.2831  1.0230 -0.2095
   20MOL   H90519183   4.922   4.926   6.081  0.0622  0.4153  1.2702
   20MOL   H90619184   4.948   5.104   5.891  0.3245 -0.6175 -0.2202
   20MOL   H90719185   5.078   5.172   5.993 -1.0913  0.5249 -0.0872
   20MOL   H90819186   5.082   4.885   5.878 -1.1434  1.4852 -0.6670
   20MOL   H90919187   5.194   4.943   5.993 -0.6088 -0.9477 -0.1813
   20MOL   H91019188   5.140   5.081   5.722 -2.1617  0.3717  1.8753
   20MOL   H91119189   5.247   5.137   5.831  2.7048 -1.4124 -0.2536
   20MOL   H91219190   5.384   5.015   5.678 -1.1982 -0.2412  1.0574
   20MOL   H91319191   5.363   4.887   5.799  0.1195  1.7841  2.3076
   20MOL   N91419192   5.329   4.784   5.544 -0.0052  0.2633  0.1999
   20MOL   C91519193   5.290   4.658   5.464  0.3979 -0.7426 -0.3788
   20MOL   C91619194   5.286   4.685   5.313  0.3722 -0.4072  0.3031
   20MOL   C91719195   5.318   4.819   5.265 -0.1347 -0.6229  0.1132
   20MOL   C91819196   5.320   4.847   5.129  0.1980 -0.2120 -0.4366
   20MOL   C91919197   5.288   4.749   5.029 -0.2655  0.1020  0.5253
   20MOL   C92019198   5.258   4.619   5.073  0.1037  0.3609 -0.2097
   20MOL   C92119199   5.259   4.587   5.215 -0.2214 -0.7019  0.4182
   20MOL   C92219200   5.240   4.440   5.251  0.3074  0.7605 -0.0044
   20MOL   N92319201   5.112   4.390   5.205 -0.1930  0.1483  0.0331
   20MOL   C92419202   5.007   4.349   5.279  0.4292  0.1579 -0.4766
   20MOL   O92519203   5.009   4.334   5.402 -0.8659  0.3166 -0.4671
   20MOL   C92619204   4.880   4.338   5.192  0.0381  0.0094  0.5597
   20MOL   C92719205   4.762   4.419   5.246  0.1321 -0.2893 -0.5632
   20MOL   C92819206   4.790   4.569   5.251  0.0602 -0.8873 -0.2042
   20MOL   C92919207   4.688   4.647   5.335  0.0381 -0.0731 -0.1714
   20MOL   C93019208   4.719   4.667   5.483 -0.4218  0.5774 -0.3698
   20MOL   C93119209   4.632   4.775   5.543 -0.3227 -0.0456 -0.3878
   20MOL   C93219210   4.685   4.918   5.516 -0.0199  0.6199 -0.0460
   20MOL   C93319211   4.812   4.949   5.580  0.0750  0.1323  0.3269
   20MOL   C93419212   4.812   4.927   5.730 -0.3866 -0.4602 -0.2993
   20MOL   O93519213   4.735   4.977   5.809  0.4901  0.8064 -0.2413
   20MOL   H93619214   5.428   4.802   5.557  0.0771  0.0304 -0.1120
   20MOL   H93719215   5.366   4.588   5.499  0.6369  0.7618  2.2361
   20MOL   H93819216   5.198   4.607   5.495  1.0575 -1.3981  0.5401
   20MOL   H93919217   5.352   4.899   5.329  1.6798  0.5650 -2.2676
   20MOL   H94019218   5.345   4.950   5.109  0.6172 -0.3826 -0.8031
   20MOL   H94119219   5.302   4.776   4.925 -0.4371  0.0842  0.4984
   20MOL   H94219220   5.252   4.532   5.009  2.0729 -0.6498  0.9429
   20MOL   H94319221   5.261   4.418   5.355  1.2581 -0.5231 -0.4577
   20MOL   H94419222   5.323   4.394   5.198  0.7593  1.6623 -0.0833
   20MOL   H94519223   5.110   4.377   5.105  0.6339 -2.1948  0.2784
   20MOL   H94619224   4.859   4.231   5.188 -0.2427 -0.0204  2.1771
   20MOL   H94719225   4.898   4.369   5.089 -0.3785  0.0815  0.5098
   20MOL   H94819226   4.741   4.386   5.348 -0.4975  1.4518 -0.0973
   20MOL   H94919227   4.672   4.394   5.191  0.2153  1.7764 -1.6769
   20MOL   H95019228   4.889   4.591   5.292 -0.8755  0.8011  1.2083
   20MOL   H95119229   4.777   4.601   5.147 -3.9242 -2.1889 -0.2022
   20MOL   H95219230   4.692   4.749   5.296  0.3224 -0.0838 -0.1719
   20MOL   H95319231   4.587   4.610   5.317  0.3790 -1.0504 -0.0501
   20MOL   H95419232   4.822   4.687   5.513 -0.3284  3.4443 -2.4411
   20MOL   H95519233   4.699   4.565   5.516 -0.0327  0.8532  0.7378
   20MOL   H95619234   4.539   4.766   5.487  0.1962  0.0081 -1.2608
   20MOL   H95719235   4.607   4.750   5.647 -2.6065 -1.9118 -1.3322
   20MOL   H95819236   4.620   5.005   5.531 -0.2296  0.5421 -0.4952
   20MOL   H95919237   4.705   4.937   5.411  0.2578 -0.1415 -0.1285
   20MOL   H96019238   4.842   5.051   5.556 -0.3229  0.0676 -0.4858
   20MOL   H96119239   4.893   4.891   5.536 -1.5038 -1.5851 -0.3957
   20MOL   H96219240   4.901   4.870   5.758  0.1316 -0.6555 -2.2498
   21MOL     N119241   7.438   3.623   0.336  0.1382 -0.2899  0.0017
   21MOL     C219242   7.533   3.559   0.421  0.3830 -0.3551  0.4714
   21MOL     C319243   7.483   3.419   0.458 -0.2099 -0.9530 -0.3636
   21MOL     C419244   7.386   3.412   0.565  0.3493  0.1039 -0.2674
   21MOL     C519245   7.334   3.296   0.617 -0.5680 -0.2664 -0.3790
   21MOL     C619246   7.393   3.174   0.570 -0.6873 -0.2629 -0.0526
   21MOL     C719247   7.488   3.175   0.469  0.0778  0.1106  0.1706
   21MOL     C819248   7.530   3.296   0.403 -0.3964 -0.2957  0.0387
   21MOL     C919249   7.643   3.279   0.307 -0.2123  0.3325  0.5572
   21MOL    N1019250   7.664   3.376   0.198  0.1377 -0.2382 -0.4311
   21MOL    C1119251   7.602   3.377   0.078  0.3453 -0.3762  0.2602
   21MOL    O1219252   7.500   3.309   0.050 -0.1193 -0.8707  0.2237
   21MOL    C1319253   7.662   3.473   7.769 -1.0003 -0.2920 -0.4388
   21MOL    C1419254   7.634   3.478   7.620 -0.4959  0.1402 -0.6523
   21MOL    C1519255   7.728   3.579   7.552 -0.3169  0.5832 -0.1633
   21MOL    C1619256   7.683   3.723   7.570 -0.1547  0.0336  0.3967
   21MOL    C1719257   7.764   3.821   7.483  0.1170 -0.1114  0.5233
   21MOL    C1819258   7.737   3.965   7.531 -0.2797  0.3382  0.4654
   21MOL    C1919259   0.047   4.070   7.490  0.0409  0.2912  0.3735
   21MOL    C2019260   0.010   4.104   7.340  0.4369 -0.2837 -0.2682
   21MOL    C2119261   0.126   4.178   7.273 -0.9636 -0.3957 -0.4004
   21MOL    O2219262   0.165   4.145   7.167 -0.3649 -0.5338  0.3850
   21MOL    H2319263   7.464   3.720   0.347 -1.0403  0.1803 -1.2751
   21MOL    H2419264   7.637   3.557   0.387  0.3033 -4.0924  0.2659
   21MOL    H2519265   7.530   3.609   0.518  0.6408 -1.2453  0.9420
   21MOL    H2619266   7.349   3.505   0.604  1.2213  0.1332  0.4981
   21MOL    H2719267   7.262   3.299   0.698  0.6241  1.4568  0.6457
   21MOL    H2819268   7.370   3.081   0.619 -3.0115 -0.0520 -0.6743
   21MOL    H2919269   7.520   3.080   0.430  1.9468 -0.1818  2.2902
   21MOL    H3019270   7.629   3.188   0.248 -2.6261  1.6265 -0.9325
   21MOL    H3119271   7.739   3.268   0.357 -0.3115  0.9894  0.8889
   21MOL    H3219272   7.732   3.449   0.214  0.2352 -0.4355  0.0517
   21MOL    H3319273   7.768   3.457   7.788 -0.8561 -2.0736 -2.4452
   21MOL    H3419274   7.636   3.568   0.025 -1.6459  0.6482 -2.7100
   21MOL    H3519275   7.532   3.511   7.600  0.0285  0.8006 -2.2730
   21MOL    H3619276   7.646   3.376   7.582 -0.1739  0.0999 -0.4385
   21MOL    H3719277   0.039   3.571   7.592 -1.5013  1.0441  3.0170
   21MOL    H3819278   7.738   3.562   7.445  1.3527  0.3272  0.0168
   21MOL    H3919279   7.577   3.731   7.545 -0.1744 -0.1439  0.4219
   21MOL    H4019280   7.690   3.755   7.673 -0.2101  2.5055 -0.3388
   21MOL    H4119281   0.081   3.800   7.477 -0.4860 -3.4739  0.3059
   21MOL    H4219282   7.730   3.814   7.379  0.0152 -0.8620  0.6055
   21MOL    H4319283   7.743   3.963   7.640 -0.2459 -0.5477  0.4534
   21MOL    H4419284   7.636   3.991   7.498 -0.5832 -2.2460 -0.7769
   21MOL    H4519285   0.026   4.156   7.554 -1.5091  0.3299 -0.1764
   21MOL    H4619286   0.150   4.035   7.503  0.5269 -0.5064 -4.6188
   21MOL    H4719287   7.709   4.164   7.327  2.2439  2.2771 -1.4240
   21MOL    H4819288   7.774   4.011   7.289 -0.8006 -0.1683  0.1222
   21MOL    H4919289   7.467   3.603   0.241 -0.2178 -0.5039 -0.0619
   21MOL    N5019290   0.171   4.290   7.333  0.3915 -0.4507 -0.6706
   21MOL    C5119291   0.282   4.374   7.289 -0.4326  0.5428  0.1773
   21MOL    C5219292   0.410   4.378   7.370 -0.0424 -0.0163 -0.2570
   21MOL    C5319293   0.419   4.297   7.488  0.0737 -0.6806 -0.7795
   21MOL    C5419294   0.532   4.300   7.574 -0.0767 -0.8398 -0.3145
   21MOL    C5519295   0.639   4.382   7.530 -0.4591  0.2740 -0.2390
   21MOL    C5619296   0.638   4.457   7.416 -0.4515 -0.4914  0.2372
   21MOL    C5719297   0.518   4.457   7.332 -0.0256 -0.1703 -0.6487
   21MOL    C5819298   0.519   4.544   7.209 -0.3754 -0.5286 -0.4631
   21MOL    N5919299   0.652   4.553   7.144 -0.6471 -0.0878 -0.0510
   21MOL    C6019300   0.686   4.511   7.027  0.1866  0.0538  0.2693
   21MOL    O6119301   0.603   4.462   6.947 -0.1061  0.0879 -0.2650
   21MOL    C6219302   0.836   4.517   6.989 -0.1281  0.4505  0.4037
   21MOL    C6319303   0.863   4.559   6.847 -0.9343  0.0156 -0.1147
   21MOL    C6419304   0.819   4.707   6.809 -1.1546 -0.3351  0.1905
   21MOL    C6519305   0.852   4.816   6.916 -0.0639  0.2230  0.7935
   21MOL    C6619306   0.859   4.954   6.851 -0.3049  0.6256  0.7518
   21MOL    C6719307   0.726   5.025   6.841  0.5412 -0.3460  0.4652
   21MOL    C6819308   0.674   5.069   6.975  0.5119  0.4897 -0.2499
   21MOL    C6919309   0.572   5.180   6.961  0.0446 -0.2383  0.4922
   21MOL    C7019310   0.614   5.316   6.892  0.2503  0.6062 -0.4339
   21MOL    O7119311   0.719   5.369   6.931  0.5299  0.3917  0.2975
   21MOL    H7219312   0.108   4.330   7.402  0.2147 -0.1290 -1.0128
   21MOL    H7319313   0.253   4.473   7.253 -0.2790  0.2336 -0.8033
   21MOL    H7419314   0.313   4.328   7.196  0.6367 -2.4106  1.9455
   21MOL    H7519315   0.339   4.231   7.518 -0.2248 -0.6748 -1.5370
   21MOL    H7619316   0.526   4.253   7.671 -1.3625 -0.6016 -0.2766
   21MOL    H7719317   0.726   4.390   7.593  0.7532 -0.4514 -1.7619
   21MOL    H7819318   0.721   4.523   7.396  0.1654 -1.4597 -0.3992
   21MOL    H7919319   0.503   4.641   7.255 -1.8757 -1.4645  1.0824
   21MOL    H8019320   0.439   4.515   7.141 -0.3792 -0.7105 -0.3807
   21MOL    H8119321   0.726   4.590   7.203 -0.1004 -1.1744 -0.0344
   21MOL    H8219322   0.885   4.421   7.006  0.1154  0.7378  1.3540
   21MOL    H8319323   0.895   4.578   7.058  0.2430 -0.5551  0.9756
   21MOL    H8419324   0.816   4.490   6.776 -1.2425 -0.2942  0.3930
   21MOL    H8519325   0.970   4.562   6.823 -0.7814  0.2837  0.6040
   21MOL    H8619326   0.871   4.727   6.715  1.5584  0.5265  1.8296
   21MOL    H8719327   0.715   4.720   6.776 -1.3979 -1.8673  0.3254
   21MOL    H8819328   0.790   4.815   7.006  0.4604 -0.6841  1.1545
   21MOL    H8919329   0.948   4.794   6.963 -0.8895 -1.4754  1.7289
   21MOL    H9019330   0.937   5.010   6.903 -0.8028  1.7706  0.2788
   21MOL    H9119331   0.892   4.941   6.748 -1.0765 -0.6061  0.6582
   21MOL    H9219332   0.653   4.958   6.795  0.0197 -0.3729  1.3164
   21MOL    H9319333   0.749   5.114   6.782  1.4523 -0.2648  0.9424
   21MOL    H9419334   0.758   5.107   7.033  0.4856  0.4741 -0.2015
   21MOL    H9519335   0.628   4.986   7.029  0.9616 -0.8020 -1.8065
   21MOL    H9619336   0.524   5.190   7.058 -1.8149  0.5255 -0.4995
   21MOL    H9719337   0.492   5.150   6.894  0.8355 -0.6791 -0.2712
   21MOL    N9819338   0.542   5.376   6.793 -0.3074 -0.6189  0.3022
   21MOL    C9919339   0.415   5.329   6.737  0.1226 -0.6665 -0.5582
   21MOL   C10019340   0.292   5.383   6.819  0.0637 -0.2566 -0.4006
   21MOL   C10119341   0.228   5.300   6.913 -0.3792 -0.8434  0.2301
   21MOL   C10219342   0.117   5.336   6.992  0.2267  0.1133  0.2670
   21MOL   C10319343   0.069   5.468   6.971 -0.1671 -0.0775  0.2089
   21MOL   C10419344   0.131   5.556   6.879  0.2470 -0.4460  0.5119
   21MOL   C10519345   0.242   5.514   6.800  0.7043  0.0113  0.3582
   21MOL   C10619346   0.297   5.605   6.691  0.2542  0.3230 -0.2269
   21MOL   N10719347   0.224   5.590   6.563  0.0924  0.1289 -0.3676
   21MOL   C10819348   0.275   5.568   6.445 -0.1583 -0.0239 -0.0427
   21MOL   O10919349   0.398   5.563   6.439  0.5495 -0.5600 -0.4291
   21MOL   C11019350   0.180   5.540   6.329  0.0607 -0.0302 -0.3568
   21MOL   C11119351   0.148   5.660   6.237 -0.0155  0.1861 -0.0396
   21MOL   C11219352   0.024   5.742   6.288 -0.2459  0.0687  0.3869
   21MOL   C11319353   7.766   5.832   6.169  0.3882  0.4454 -0.2648
   21MOL   C11419354   7.649   5.914   6.210  0.4728 -0.6625 -0.1299
   21MOL   C11519355   7.682   6.025   6.314  0.2160  0.5656  0.4046
   21MOL   C11619356   7.562   6.134   6.311  0.0121  0.2756  0.0393
   21MOL   C11719357   7.542   6.232   6.425  0.0106 -0.1121 -0.2029
   21MOL   C11819358   7.413   6.309   6.404 -0.2137  0.2251 -0.7948
   21MOL   O11919359   7.399   6.383   6.312  0.0973 -0.0634 -0.2989
   21MOL   H12019360   0.581   5.462   6.759 -2.1490  0.2994  0.4702
   21MOL   H12119361   0.401   5.362   6.634  0.6363 -1.7331 -0.9774
   21MOL   H12219362   0.430   5.223   6.716  0.2618 -0.9823  1.0265
   21MOL   H12319363   0.282   5.207   6.926  0.7749 -0.1303  0.6066
   21MOL   H12419364   0.082   5.277   7.075 -4.7829  1.4992 -0.6787
   21MOL   H12519365   7.782   5.506   7.037 -1.4833 -0.7141 -0.9194
   21MOL   H12619366   0.097   5.658   6.876  0.1786 -0.4947 -0.2553
   21MOL   H12719367   0.400   5.571   6.679 -0.2337 -1.3678  0.2940
   21MOL   H12819368   0.306   5.709   6.724 -1.8248 -0.0742  1.6762
   21MOL   H12919369   0.124   5.607   6.564  0.3727  1.8445  0.4736
   21MOL   H13019370   0.096   5.478   6.363  2.1101 -3.0905 -0.6521
   21MOL   H13119371   0.238   5.466   6.274  1.3480  0.0361  0.8845
   21MOL   H13219372   0.124   5.623   6.137 -1.4560  2.6682 -0.6496
   21MOL   H13319373   0.231   5.729   6.223  0.9821 -0.6721  1.5146
   21MOL   H13419374   7.738   5.668   6.315  0.1883  0.1353  1.8151
   21MOL   H13519375   0.061   5.802   6.370  0.4096  1.5990 -1.0118
   21MOL   H13619376   0.052   5.901   6.134 -0.3709  0.9947 -0.8480
   21MOL   H13719377   7.735   5.764   6.090 -2.3369  0.3900  0.7833
   21MOL   H13819378   7.616   5.974   6.125  2.2393 -0.1134 -0.4624
   21MOL   H13919379   7.564   5.856   6.246  0.6383  0.7907  2.7269
   21MOL   H14019380   7.779   6.073   6.299  0.2299  0.8160  1.2506
   21MOL   H14119381   7.688   5.970   6.407 -1.2182  0.4077  0.4139
   21MOL   H14219382   7.560   6.199   6.224 -0.1706  1.6168  1.0263
   21MOL   H14319383   7.469   6.078   6.306  0.3793 -0.2542 -0.8830
   21MOL   H14419384   7.624   6.301   6.445 -0.2215 -0.1879  1.0940
   21MOL   H14519385   7.544   6.177   6.519  1.0317  0.8929  0.3746
   21MOL   N14619386   7.314   6.278   6.492  0.7190 -0.3569  0.0745
   21MOL   C14719387   7.171   6.307   6.472  0.1120  0.2771  0.3305
   21MOL   C14819388   7.131   6.442   6.535 -1.4602 -0.2413  0.0791
   21MOL   C14919389   7.182   6.474   6.664 -0.0316 -0.1577  0.5520
   21MOL   C15019390   7.138   6.593   6.727  0.3580 -0.1742 -0.3321
   21MOL   C15119391   7.031   6.666   6.679  0.0908 -0.4181  1.2996
   21MOL   C15219392   6.983   6.638   6.549  0.1700  0.5149  0.0065
   21MOL   C15319393   7.027   6.520   6.483  0.0413 -0.6231  0.1541
   21MOL   C15419394   6.953   6.469   6.361 -0.1676  0.8747 -0.6330
   21MOL   N15519395   6.880   6.352   6.400 -0.0096  0.2076  0.2364
   21MOL   C15619396   6.804   6.271   6.317 -0.5713 -1.1122  0.1869
   21MOL   O15719397   6.795   6.302   6.195 -0.3480 -0.5691 -0.4462
   21MOL   C15819398   6.739   6.152   6.378  0.7846  0.2857  0.3541
   21MOL   C15919399   6.789   6.019   6.304 -0.1692  0.1941 -0.0780
   21MOL   C16019400   6.754   5.892   6.384  0.7961  0.1454 -0.6515
   21MOL   C16119401   6.798   5.766   6.310 -1.0574  0.1719 -0.3872
   21MOL   C16219402   6.729   5.642   6.370  0.3382  0.7429  0.0498
   21MOL   C16319403   6.731   5.510   6.285 -0.3263 -0.7705  0.3541
   21MOL   C16419404   6.711   5.391   6.388 -0.0446 -0.4657 -0.6541
   21MOL   C16519405   6.692   5.253   6.325  0.5834 -0.5511  0.4401
   21MOL   C16619406   6.650   5.148   6.422 -0.3090  0.1405  0.2362
   21MOL   O16719407   6.541   5.155   6.470  0.2365  0.1129  0.5101
   21MOL   H16819408   7.332   6.237   6.582  1.7251  2.9371  1.4592
   21MOL   H16919409   7.104   6.232   6.514 -0.4519  1.5693  1.7824
   21MOL   H17019410   7.148   6.298   6.366 -0.9616  1.3724  0.4727
   21MOL   H17119411   7.258   6.419   6.716  0.0142 -0.9591 -0.3357
   21MOL   H17219412   7.163   6.612   6.830 -0.7156 -2.7950  0.4652
   21MOL   H17319413   6.994   6.742   6.746  0.8162 -0.2960  1.5614
   21MOL   H17419414   6.893   6.686   6.513  2.2149  2.7620 -2.2310
   21MOL   H17519415   7.017   6.460   6.273 -0.6827  1.0571 -1.0324
   21MOL   H17619416   6.884   6.546   6.328  0.1387  1.9083  1.1106
   21MOL   H17719417   6.884   6.320   6.495  3.0108  0.8687  0.3788
   21MOL   H17819418   6.631   6.169   6.367  0.6792  1.3421  2.7254
   21MOL   H17919419   6.759   6.155   6.485 -0.4324 -0.1044  0.6085
   21MOL   H18019420   6.897   6.027   6.291  0.0205 -2.5805 -0.6605
   21MOL   H18119421   6.751   6.008   6.202 -0.0658  2.3284 -0.3633
   21MOL   H18219422   6.800   5.894   6.483  0.4338  1.2848 -0.4968
   21MOL   H18319423   6.645   5.898   6.392  0.9089  1.1602  0.3503
   21MOL   H18419424   6.762   5.762   6.207 -1.9331 -3.2915 -0.0127
   21MOL   H18519425   6.904   5.741   6.313 -1.6036 -2.2347  0.3156
   21MOL   H18619426   6.760   5.626   6.473  1.8963 -0.2014 -0.5550
   21MOL   H18719427   6.625   5.675   6.380 -0.1273 -1.4012  2.7249
   21MOL   H18819428   6.829   5.502   6.239 -0.2526  0.7239  0.2397
   21MOL   H18919429   6.660   5.524   6.204  0.6335  0.0330 -0.3644
   21MOL   H19019430   6.785   5.375   6.468 -2.3925 -0.6465  1.5397
   21MOL   H19119431   6.611   5.402   6.430  0.5497  1.6833  0.2319
   21MOL   H19219432   6.783   5.219   6.275  1.2953 -1.6898  2.4809
   21MOL   H19319433   6.609   5.266   6.255  2.3663  0.3745 -1.5672
   21MOL   N19419434   6.734   5.051   6.459  0.1157 -0.0085 -0.2495
   21MOL   C19519435   6.704   4.944   6.560  1.0102 -0.1042  0.2577
   21MOL   C19619436   6.826   4.865   6.607 -0.0107 -0.1850  0.0620
   21MOL   C19719437   6.823   4.724   6.579 -0.1184  0.5689  0.1921
   21MOL   C19819438   6.926   4.641   6.627 -0.3585  0.2550  0.1397
   21MOL   C19919439   7.039   4.699   6.687 -0.1869 -0.2410  0.3856
   21MOL   C20019440   7.051   4.839   6.699  0.3489 -0.5107 -0.8393
   21MOL   C20119441   6.943   4.922   6.673 -0.0433  1.1223  0.5706
   21MOL   C20219442   6.959   5.068   6.722  0.2793  0.3238 -0.2967
   21MOL   N20319443   6.845   5.101   6.811 -0.5173 -0.3420 -0.2543
   21MOL   C20419444   6.802   5.221   6.843 -0.1495  0.7849 -0.1830
   21MOL   O20519445   6.832   5.324   6.777  0.3984 -0.0747 -0.1582
   21MOL   C20619446   6.705   5.231   6.957 -0.3839 -0.2826 -0.7218
   21MOL   C20719447   6.601   5.345   6.939 -0.2633  0.0943  0.3811
   21MOL   C20819448   6.499   5.341   7.051 -0.0656  0.0193  0.7190
   21MOL   C20919449   6.392   5.457   7.036 -0.1849 -0.3215  0.0506
   21MOL   C21019450   6.259   5.428   7.106  0.1174 -0.3155 -0.2214
   21MOL   C21119451   6.182   5.317   7.040 -0.0917 -0.1245  0.1442
   21MOL   C21219452   6.039   5.307   7.099 -0.0263 -0.5590 -0.0218
   21MOL   C21319453   5.956   5.199   7.030  0.0117 -0.5210 -0.5259
   21MOL   C21419454   5.810   5.236   7.034  0.0069 -0.2906 -0.6095
   21MOL   O21519455   5.756   5.249   7.142 -0.3510  0.0968  0.2871
   21MOL   H21619456   6.822   5.046   6.408  0.1556 -0.5814 -0.1317
   21MOL   H21719457   6.646   4.982   6.644 -0.4236  0.8735 -1.1554
   21MOL   H21819458   6.634   4.885   6.502 -0.0364  0.4818  0.9117
   21MOL   H21919459   6.737   4.683   6.528 -0.4244 -0.0523  1.1920
   21MOL   H22019460   6.931   4.533   6.619  0.4751  0.1888  1.4399
   21MOL   H22119461   7.121   4.640   6.726  0.0895  0.8092  1.4350
   21MOL   H22219462   7.138   4.882   6.745  1.7296 -4.0339 -0.0845
   21MOL   H22319463   6.972   5.130   6.633 -4.0981  1.9146  0.0510
   21MOL   H22419464   7.054   5.076   6.775  0.3718 -0.9643 -0.2627
   21MOL   H22519465   6.824   5.029   6.879  1.1312 -1.4629 -0.8975
   21MOL   H22619466   6.770   5.251   7.043 -0.9878 -3.5107  0.5572
   21MOL   H22719467   6.654   5.135   6.962 -0.5054 -0.2335 -0.9982
   21MOL   H22819468   6.663   5.433   6.956 -0.1013  0.5028 -2.1034
   21MOL   H22919469   6.563   5.372   6.840  3.1988  2.7495 -0.2871
   21MOL   H23019470   6.453   5.242   7.054 -1.0014  0.4170 -0.0655
   21MOL   H23119471   6.545   5.351   7.149 -1.8638 -0.1764  1.6045
   21MOL   H23219472   6.436   5.541   7.089 -0.0091  0.5527 -1.4423
   21MOL   H23319473   6.371   5.479   6.931 -0.0907  2.0603  0.4956
   21MOL   H23419474   6.263   5.413   7.213 -2.6926 -1.0515 -0.1856
   21MOL   H23519475   6.194   5.513   7.085 -0.6590 -1.6500 -3.7106
   21MOL   H23619476   6.233   5.221   7.042 -0.0498 -0.1324 -0.9309
   21MOL   H23719477   6.166   5.333   6.933 -0.6930 -2.2160 -0.1233
   21MOL   H23819478   5.992   5.405   7.089  1.3479  0.0854 -0.2536
   21MOL   H23919479   6.051   5.289   7.206  0.6523 -0.1065 -0.0132
   21MOL   H24019480   5.988   5.199   6.925  0.6690 -3.2443 -0.3640
   21MOL   H24119481   5.975   5.097   7.064 -0.2484 -0.8306 -1.2855
   21MOL   N24219482   5.747   5.249   6.917  0.4991 -0.0745  0.3208
   21MOL   C24319483   5.607   5.267   6.894  0.0147  0.3811 -0.3749
   21MOL   C24419484   5.569   5.392   6.811  0.0689  0.6128 -0.0177
   21MOL   C24519485   5.517   5.509   6.876  0.0993 -0.1409  0.1150
   21MOL   C24619486   5.479   5.626   6.804  0.1341 -0.5144  0.3206
   21MOL   C24719487   5.498   5.633   6.665  0.1111  0.8899 -0.1540
   21MOL   C24819488   5.548   5.512   6.597  0.0622 -0.1469  0.2189
   21MOL   C24919489   5.571   5.394   6.668  1.0360  0.0549  0.2491
   21MOL   C25019490   5.604   5.269   6.593  0.1206  0.0978 -0.1185
   21MOL   N25119491   5.489   5.186   6.560  0.3125  0.0604 -0.1823
   21MOL   C25219492   5.447   5.072   6.613 -0.3520 -0.2987 -0.5088
   21MOL   O25319493   5.515   4.997   6.681  0.3022  0.2190  0.1696
   21MOL   C25419494   5.298   5.041   6.593  0.1808  0.0284 -0.0675
   21MOL   C25519495   5.231   4.997   6.728  0.4082 -0.1765 -0.8319
   21MOL   C25619496   5.239   5.100   6.845 -0.3928 -0.0255  0.5406
   21MOL   C25719497   5.174   5.039   6.971  0.3171  0.3056  0.4250
   21MOL   C25819498   5.238   5.093   7.099 -0.1732 -0.1489 -0.0127
   21MOL   C25919499   5.175   5.025   7.220 -0.2258  0.2302 -0.2582
   21MOL   C26019500   5.227   5.078   7.357 -0.3679 -0.4863  0.4451
   21MOL   C26119501   5.373   5.046   7.390 -0.4395 -0.6375  0.0098
   21MOL   C26219502   5.428   5.103   7.519  0.0553  0.5256 -0.3693
   21MOL   O26319503   5.388   5.210   7.555 -0.2649  0.0739 -0.4698
   21MOL   H26419504   5.808   5.245   6.837  0.4597  0.1959  0.2754
   21MOL   H26519505   5.550   5.180   6.860 -2.2598  1.1702  1.2682
   21MOL   H26619506   5.548   5.281   6.985  1.8006 -0.8896  1.0059
   21MOL   H26719507   5.518   5.500   6.984  1.0241 -1.6631 -0.0107
   21MOL   H26819508   5.446   5.715   6.856  1.2377  1.7486 -2.7128
   21MOL   H26919509   5.482   5.725   6.612 -3.3620  1.4135  1.7000
   21MOL   H27019510   5.571   5.507   6.492 -2.2798 -1.3441 -0.2713
   21MOL   H27119511   5.670   5.212   6.659 -0.2106 -1.4981 -1.1451
   21MOL   H27219512   5.673   5.288   6.511  0.9696 -0.5876  0.4260
   21MOL   H27319513   5.422   5.241   6.508 -1.2700 -0.8750  0.8437
   21MOL   H27419514   5.284   4.961   6.520 -0.2469 -0.1037  0.1580
   21MOL   H27519515   5.242   5.129   6.560 -1.4938 -1.9347 -2.6631
   21MOL   H27619516   5.278   4.902   6.755  0.8068  0.3723  0.4202
   21MOL   H27719517   5.130   4.964   6.703  1.0724 -1.0991 -2.3925
   21MOL   H27819518   5.207   5.197   6.807  0.0197 -0.0606  0.0969
   21MOL   H27919519   5.343   5.128   6.860 -1.0338  3.1570 -0.5283
   21MOL   H28019520   5.066   5.047   6.979  0.3217 -1.1052  1.9846
   21MOL   H28119521   5.199   4.934   6.959 -1.7165 -0.1871  0.3001
   21MOL   H28219522   5.345   5.071   7.098  0.0629  0.9342  0.0294
   21MOL   H28319523   5.231   5.201   7.114 -0.2320 -0.3952  1.8635
   21MOL   H28419524   5.185   4.916   7.221 -1.2879  0.1329  0.6878
   21MOL   H28519525   5.067   5.038   7.217 -0.2005  0.7951  0.9741
   21MOL   H28619526   5.213   5.186   7.355 -1.8845 -0.5788  2.9740
   21MOL   H28719527   5.161   5.046   7.438  0.0397 -1.1740  0.5171
   21MOL   H28819528   5.376   4.938   7.404 -1.5499 -0.5125  1.3220
   21MOL   H28919529   5.435   5.084   7.309 -1.4381  0.6701 -0.1466
   21MOL   N29019530   5.521   5.039   7.588 -0.3320  0.0221  0.5067
   21MOL   C29119531   5.586   5.081   7.713  0.0040  0.0753  0.7818
   21MOL   C29219532   5.534   5.012   0.057  0.4562 -0.1517 -0.1157
   21MOL   C29319533   5.455   4.897   0.041  0.5642  0.7687 -0.3522
   21MOL   C29419534   5.404   4.829   0.154 -0.5870  0.0290  0.0878
   21MOL   C29519535   5.425   4.880   0.286  0.0944 -0.4665 -0.9479
   21MOL   C29619536   5.497   4.992   0.296 -0.4866  0.6851 -0.3598
   21MOL   C29719537   5.549   5.066   0.186  0.5091 -0.1101  0.1479
   21MOL   C29819538   5.639   5.191   0.204 -0.1194  0.3916  0.2662
   21MOL   N29919539   5.720   5.173   0.330  0.9205  0.6958  0.2647
   21MOL   C30019540   5.739   5.274   0.420 -0.7956 -0.0191 -0.1449
   21MOL   O30119541   5.671   5.379   0.426  0.4240 -0.0266 -0.4288
   21MOL   C30219542   5.822   5.231   0.542  0.7965 -0.1299 -0.0183
   21MOL   C30319543   5.923   5.334   0.595  0.0703  0.2639  0.6167
   21MOL   C30419544   6.021   5.397   0.490 -0.7720  0.0608 -0.8925
   21MOL   C30519545   6.166   5.339   0.495  0.4085 -0.7549  0.4371
   21MOL   C30619546   6.169   5.183   0.456 -1.0713  0.3780  0.3973
   21MOL   C30719547   6.313   5.125   0.427  0.0611  0.0058  0.2424
   21MOL   C30819548   6.310   4.982   0.371  0.4893  0.1424 -0.6971
   21MOL   C30919549   6.443   4.934   0.311 -0.8648 -0.0789 -0.4543
   21MOL   C31019550   6.457   4.781   0.300  0.0651  0.6555  0.1229
   21MOL   O31119551   6.400   4.717   0.209  0.0487  0.5446  0.1139
   21MOL   H31219552   5.532   4.941   7.562  0.8633  0.3524 -0.2832
   21MOL   H31319553   5.693   5.065   7.695  0.0751  0.7130  0.6198
   21MOL   H31419554   5.569   5.189   7.716 -0.6762 -0.0528  2.3334
   21MOL   H31519555   5.434   4.865   7.730  1.3108 -0.1245 -0.2219
   21MOL   H31619556   5.342   4.741   0.147 -1.2139  0.5414 -0.8283
   21MOL   H31719557   5.374   4.825   0.363  0.8285  1.1625  0.7257
   21MOL   H31819558   5.514   5.037   0.393  1.6940 -0.5526 -0.1296
   21MOL   H31919559   5.573   5.278   0.204 -1.0223 -0.2845  2.0274
   21MOL   H32019560   5.699   5.202   0.113 -1.7572 -0.4522 -0.9352
   21MOL   H32119561   5.769   5.086   0.344  0.0592 -0.0546 -1.3195
   21MOL   H32219562   5.757   5.205   0.625 -0.4550  0.1513 -0.9058
   21MOL   H32319563   5.867   5.135   0.515 -0.1593 -0.5524 -0.1292
   21MOL   H32419564   5.979   5.276   0.669  0.5722  1.2160  0.9935
   21MOL   H32519565   5.874   5.417   0.646 -2.2663 -0.9916  0.5059
   21MOL   H32619566   6.036   5.499   0.525  3.4898 -0.9555  0.5572
   21MOL   H32719567   5.980   5.392   0.390 -1.3118 -1.2888 -0.6139
   21MOL   H32819568   6.214   5.393   0.414 -1.2747 -1.4800 -1.0702
   21MOL   H32919569   6.220   5.367   0.586  0.5325  2.4194 -0.5445
   21MOL   H33019570   6.130   5.127   0.541 -1.5365  0.2065  0.0705
   21MOL   H33119571   6.109   5.152   0.371 -0.9574 -1.1367  0.8634
   21MOL   H33219572   6.375   5.139   0.515  0.3160  1.6539 -0.1835
   21MOL   H33319573   6.354   5.178   0.341 -0.2309 -0.0751  0.0507
   21MOL   H33419574   6.274   4.916   0.449  1.4942  2.6263  1.9676
   21MOL   H33519575   6.231   4.974   0.297 -0.7590 -1.4097  0.7900
   21MOL   H33619576   6.451   4.982   0.213 -0.1630  1.1255  0.1775
   21MOL   H33719577   6.524   4.972   0.373  1.0561  1.6555 -3.8303
   21MOL   N33819578   6.550   4.727   0.383  0.3043 -0.9092 -0.6441
   21MOL   C33919579   6.581   4.584   0.388 -0.6487  0.2548 -0.0577
   21MOL   C34019580   6.558   4.521   0.532  0.0459  0.0282 -0.4775
   21MOL   C34119581   6.459   4.425   0.546  0.3504  0.4079  0.2143
   21MOL   C34219582   6.420   4.385   0.676  0.8784  0.9054 -0.6845
   21MOL   C34319583   6.492   4.423   0.787  0.0071  0.3862 -0.1159
   21MOL   C34419584   6.605   4.502   0.772  0.3363  0.2419 -0.4587
   21MOL   C34519585   6.638   4.565   0.647  0.0359  0.3832  0.5736
   21MOL   C34619586   6.751   4.661   0.650  1.2454  0.3248  0.5568
   21MOL   N34719587   6.713   4.782   0.723  0.2305  0.1101 -0.1370
   21MOL   C34819588   6.680   4.897   0.661  0.3321 -0.2932 -0.4670
   21MOL   O34919589   6.700   4.925   0.543  0.1921  0.1361 -0.1991
   21MOL   C35019590   6.595   4.993   0.744  0.8836 -0.2934 -1.0746
   21MOL   C35119591   6.596   5.138   0.706 -0.3792 -0.2626 -0.4096
   21MOL   C35219592   6.498   5.230   0.785 -0.2779  0.2705  0.1958
   21MOL   C35319593   6.538   5.260   0.932 -0.6520 -0.2871 -0.1948
   21MOL   C35419594   6.443   5.369   0.986 -0.6741  0.0504 -0.1968
   21MOL   C35519595   6.434   5.393   1.138 -0.5541  0.1531  0.4848
   21MOL   C35619596   6.386   5.264   1.216  0.3477 -0.0155  0.1178
   21MOL   C35719597   6.258   5.203   1.155  0.3843 -0.1698  0.1152
   21MOL   C35819598   6.188   5.115   1.261 -0.0607 -0.2754 -0.5680
   21MOL   O35919599   6.264   5.038   1.312 -0.0514 -0.2924 -0.1880
   21MOL   H36019600   6.599   4.792   0.443 -1.8703 -2.0167  2.4592
   21MOL   H36119601   6.508   4.542   0.320  0.6488 -0.6766 -0.8969
   21MOL   H36219602   6.684   4.564   0.357  0.1725  0.6464  2.2876
   21MOL   H36319603   6.404   4.388   0.461  0.2967  1.5867 -0.2738
   21MOL   H36419604   6.335   4.319   0.688  0.9618  1.1263  1.2074
   21MOL   H36519605   6.460   4.389   0.885 -0.6211  1.4750  0.0622
   21MOL   H36619606   6.652   4.541   0.862 -1.8634  2.8450 -0.3740
   21MOL   H36719607   6.795   4.682   0.553  2.0136 -0.0531  0.8213
   21MOL   H36819608   6.833   4.610   0.699 -0.7688 -1.4560  2.1629
   21MOL   H36919609   6.702   4.763   0.822  0.5856  1.9995  0.2799
   21MOL   H37019610   6.629   4.973   0.846 -1.0741  0.7268 -0.1873
   21MOL   H37119611   6.492   4.959   0.744  0.4203  0.7256  3.5029
   21MOL   H37219612   6.590   5.162   0.600  0.4569  1.2384 -0.1418
   21MOL   H37319613   6.699   5.160   0.734 -0.4632 -0.2163 -0.1328
   21MOL   H37419614   6.509   5.318   0.721 -1.7738 -1.2907 -2.2684
   21MOL   H37519615   6.393   5.205   0.769 -0.0145 -0.5390 -0.2981
   21MOL   H37619616   6.642   5.291   0.948 -0.9772  1.0897 -0.7088
   21MOL   H37719617   6.525   5.168   0.988  0.9528 -1.5256 -1.8126
   21MOL   H37819618   6.481   5.465   0.952 -0.4631 -0.2223 -0.7220
   21MOL   H37919619   6.345   5.350   0.942  0.6574  0.4651 -3.4228
   21MOL   H38019620   6.353   5.465   1.129 -1.3776 -1.1170 -2.9734
   21MOL   H38119621   6.521   5.434   1.190 -1.1109 -1.0224  2.3743
   21MOL   H38219622   6.465   5.201   1.257  1.5000 -0.4895 -2.7096
   21MOL   H38319623   6.345   5.308   1.306 -0.4680  0.8990 -0.6851
   21MOL   H38419624   6.288   5.145   1.068 -1.8106 -0.1391 -0.6933
   21MOL   H38519625   6.185   5.275   1.120 -2.4306 -2.5934  0.8337
   21MOL   N38619626   6.057   5.132   1.283  0.0781  0.7700 -0.0904
   21MOL   C38719627   6.004   5.074   1.407  0.2864 -0.1779  0.1016
   21MOL   C38819628   5.860   5.035   1.390 -1.2148  0.0297 -0.1587
   21MOL   C38919629   5.823   4.900   1.415 -0.4358 -0.2151 -0.3658
   21MOL   C39019630   5.691   4.853   1.375  0.4050 -0.1854 -0.6477
   21MOL   C39119631   5.600   4.940   1.316  1.1197  0.3623 -0.3926
   21MOL   C39219632   5.632   5.071   1.303 -0.6499 -0.3704 -0.0762
   21MOL   C39319633   5.763   5.123   1.334 -0.3374  0.2082  0.2580
   21MOL   C39419634   5.784   5.275   1.307  0.1965  0.5247 -0.0767
   21MOL   N39519635   5.756   5.303   1.168 -0.6659 -0.4656  0.4726
   21MOL   C39619636   5.835   5.374   1.090  0.3531  0.3493  0.1958
   21MOL   O39719637   5.951   5.393   1.130 -0.1809 -0.1590  0.6067
   21MOL   C39819638   5.789   5.435   0.960  0.2114  0.3140  0.5993
   21MOL   C39919639   5.814   5.592   0.968  0.5324 -0.2969 -0.6243
   21MOL   C40019640   5.948   5.636   0.917  0.0098  0.2995  0.5660
   21MOL   C40119641   5.975   5.785   0.885  0.2077  0.4089 -0.0481
   21MOL   C40219642   5.891   5.835   0.766  0.0556 -0.2218  0.4741
   21MOL   C40319643   5.906   5.991   0.729 -0.9927 -0.0985  0.2515
   21MOL   C40419644   5.856   6.090   0.843  1.5233  0.3060  0.0282
   21MOL   C40519645   5.703   6.091   0.867  0.1323  0.2125 -0.7662
   21MOL   C40619646   5.653   6.188   0.978 -0.1850  0.0868  1.1912
   21MOL   O40719647   5.733   6.223   1.065  0.5654  0.5863  0.0965
   21MOL   H40819648   5.998   5.200   1.238 -1.9077 -1.1087 -0.4031
   21MOL   H40919649   6.059   4.986   1.439 -0.4190 -1.0086 -0.9339
   21MOL   H41019650   6.008   5.146   1.489  0.4440 -2.4693  2.1476
   21MOL   H41119651   5.886   4.821   1.453 -1.1985 -0.5570  0.2076
   21MOL   H41219652   5.672   4.747   1.370  1.0054 -0.2300 -2.9557
   21MOL   H41319653   5.509   4.892   1.284  2.1276 -1.6889 -0.2858
   21MOL   H41419654   5.559   5.139   1.262  0.8216 -0.1233 -2.3596
   21MOL   H41519655   5.881   5.316   1.338 -0.1905  2.1099 -0.9441
   21MOL   H41619656   5.716   5.341   1.360 -0.0577  0.4012 -0.2527
   21MOL   H41719657   5.670   5.267   1.131  1.5242 -2.4949 -2.8860
   21MOL   H41819658   5.842   5.384   0.880 -0.3425  0.5110  0.1070
   21MOL   H41919659   5.682   5.419   0.950 -0.5533  3.9315  2.0357
   21MOL   H42019660   5.823   5.617   1.074  0.6789 -2.2658 -0.1542
   21MOL   H42119661   5.729   5.647   0.926  0.0599 -0.6680 -0.1635
   21MOL   H42219662   5.977   5.586   0.825  0.7427  0.4832  0.6912
   21MOL   H42319663   6.023   5.624   0.996 -0.5685 -0.4296  1.0143
   21MOL   H42419664   5.966   5.838   0.980  1.0818 -0.5886  0.5989
   21MOL   H42519665   6.080   5.795   0.859 -0.3026  1.3872 -1.7941
   21MOL   H42619666   5.916   5.782   0.674  1.1557  1.7684 -0.4195
   21MOL   H42719667   5.784   5.823   0.784  0.1007 -0.0625  0.8564
   21MOL   H42819668   5.857   6.020   0.637  1.0774  0.9793 -0.5650
   21MOL   H42919669   6.012   5.995   0.703 -1.8215  0.9218 -3.1522
   21MOL   H43019670   5.881   6.189   0.805  3.0995 -1.1150 -2.8372
   21MOL   H43119671   5.910   6.073   0.937  0.6962 -1.6590  0.1579
   21MOL   H43219672   5.663   5.991   0.882  1.7959 -0.4380 -0.5533
   21MOL   H43319673   5.653   6.120   0.774  1.1966  1.1582 -1.0547
   21MOL   N43419674   5.531   6.233   0.978  0.3738 -0.2720  0.6028
   21MOL   C43519675   5.464   6.316   1.078  0.0303 -0.4762 -0.0725
   21MOL   C43619676   5.452   6.254   1.218 -0.5437  0.0325  0.0930
   21MOL   C43719677   5.387   6.133   1.221  0.6715  0.4609 -0.0423
   21MOL   C43819678   5.348   6.065   1.338 -0.5439 -0.6638 -0.3369
   21MOL   C43919679   5.382   6.126   1.462  0.2436 -0.2141  0.5654
   21MOL   C44019680   5.452   6.251   1.465 -0.0838  0.1368  0.1314
   21MOL   C44119681   5.491   6.317   1.345 -0.6102  0.2202 -0.9625
   21MOL   C44219682   5.571   6.446   1.346  0.0052  0.1533  0.3792
   21MOL   N44319683   5.703   6.422   1.274 -0.0121  0.1016  0.0144
   21MOL   C44419684   5.788   6.525   1.251 -0.2334 -0.2089  0.4061
   21MOL   O44519685   5.757   6.645   1.269 -0.2122 -0.5456  0.5791
   21MOL   C44619686   5.916   6.484   1.181 -0.8043  0.0392  0.1132
   21MOL   C44719687   6.026   6.578   1.152 -0.8055 -0.6209  0.3067
   21MOL   C44819688   6.100   6.615   1.281  0.2949  0.4438  0.9916
   21MOL   C44919689   6.196   6.511   1.341  0.4941 -0.4415 -0.5301
   21MOL   C45019690   6.245   6.542   1.490 -0.4365  0.1567 -0.2470
   21MOL   C45119691   6.367   6.465   1.548 -0.3174  0.2304  0.8793
   21MOL   C45219692   6.333   6.316   1.541 -0.5249  0.2207 -0.1073
   21MOL   C45319693   6.203   6.279   1.614  0.3477 -0.1362  0.8546
   21MOL   C45419694   6.214   6.165   1.710 -0.5124  0.8944  0.4264
   21MOL   O45519695   6.171   6.055   1.677  0.6089  0.5562  0.1792
   21MOL   H45619696   5.479   6.220   0.893  1.6502 -1.2344 -0.0429
   21MOL   H45719697   5.357   6.322   1.063 -0.1124  0.4198  1.2368
   21MOL   H45819698   5.513   6.414   1.085 -0.3475 -0.4352  2.1155
   21MOL   H45919699   5.363   6.084   1.128 -1.0827  0.5927  0.3266
   21MOL   H46019700   5.285   5.977   1.332  1.1509 -1.8203 -1.5508
   21MOL   H46119701   5.358   6.089   1.560 -2.3273  1.5879  0.6695
   21MOL   H46219702   5.478   6.285   1.564 -0.2849  0.9046 -0.0806
   21MOL   H46319703   5.599   6.476   1.447  0.6871  3.2235 -0.6643
   21MOL   H46419704   5.509   6.528   1.309  2.9512  1.9364 -0.8335
   21MOL   H46519705   5.737   6.327   1.265  0.7571  0.3897 -0.0938
   21MOL   H46619706   5.881   6.460   1.080  0.3325  3.4030 -1.1472
   21MOL   H46719707   5.944   6.388   1.225  0.6284  0.8677  1.0185
   21MOL   H46819708   5.981   6.671   1.117  3.7863  1.1944 -1.1392
   21MOL   H46919709   6.097   6.537   1.081 -0.7646 -0.8337  0.4689
   21MOL   H47019710   6.151   6.709   1.257 -2.3280  1.5143 -0.6161
   21MOL   H47119711   6.027   6.645   1.356  1.6265  4.0610  0.9472
   21MOL   H47219712   6.152   6.412   1.332 -0.0237 -0.6091  3.3126
   21MOL   H47319713   6.284   6.507   1.277 -0.0438 -0.2959 -1.2879
   21MOL   H47419714   6.272   6.645   1.510 -0.1788 -0.0238  0.3346
   21MOL   H47519715   6.162   6.518   1.556 -0.8465 -0.6756 -1.0433
   21MOL   H47619716   6.389   6.498   1.649 -0.4020  0.3597  0.8552
   21MOL   H47719717   6.451   6.478   1.479 -0.4658  3.2930  1.2275
   21MOL   H47819718   6.321   6.279   1.439  0.2121  0.8084 -0.4070
   21MOL   H47919719   6.412   6.251   1.578 -1.7013 -1.1988 -0.0703
   21MOL   H48019720   6.174   6.358   1.684 -0.2840 -0.0935  0.5407
   21MOL   H48119721   6.123   6.267   1.542  0.4198  2.9522  0.1898
   21MOL   N48219722   6.294   6.182   1.822  0.1802 -0.4483 -0.0429
   21MOL   C48319723   6.304   6.081   1.920 -0.2395 -0.2868  0.2985
   21MOL   C48419724   6.200   6.099   2.039 -0.2378  0.6533  0.8513
   21MOL   C48519725   6.083   6.019   2.025  0.6215 -0.4764  0.3277
   21MOL   C48619726   5.985   6.018   2.130  0.2679 -0.6845  0.1083
   21MOL   C48719727   6.012   6.095   2.243 -0.0700  0.2378 -0.1762
   21MOL   C48819728   6.131   6.167   2.255 -0.2020 -0.5884  0.7137
   21MOL   C48919729   6.233   6.168   2.158 -0.0860  0.5544  0.0333
   21MOL   C49019730   6.365   6.246   2.179  0.4005 -0.4167  0.3242
   21MOL   N49119731   6.335   6.384   2.178 -0.3671  0.2277  0.3727
   21MOL   C49219732   6.319   6.460   2.073 -0.7206 -0.2354 -0.5705
   21MOL   O49319733   6.340   6.425   1.963  0.1633  0.1504  0.4288
   21MOL   C49419734   6.302   6.610   2.089 -0.3242 -0.2059 -0.1906
   21MOL   C49519735   6.382   6.713   2.001 -0.2839 -0.7993 -0.4112
   21MOL   C49619736   6.531   6.719   2.029 -0.4076 -0.0189 -0.4293
   21MOL   C49719737   6.610   6.841   1.979  0.0485  0.2324 -0.0758
   21MOL   C49819738   6.766   6.839   1.998 -0.0455 -0.5322 -0.4577
   21MOL   C49919739   6.838   6.764   1.889 -0.2022 -0.2832 -0.3103
   21MOL   C50019740   6.989   6.798   1.902  0.2579 -0.7486 -0.5249
   21MOL   C50119741   7.083   6.703   1.819 -0.0948 -0.2997  0.6432
   21MOL   C50219742   7.228   6.759   1.800  0.0435  0.0758 -0.8169
   21MOL   O50319743   7.314   6.734   1.880 -0.0838  0.1821 -0.3524
   21MOL   H50419744   6.317   6.277   1.849  0.0800 -0.3827 -0.1871
   21MOL   H50519745   6.304   5.981   1.877  1.1568  1.4652 -4.0452
   21MOL   H50619746   6.408   6.100   1.946  0.2814 -0.0821 -1.8047
   21MOL   H50719747   6.074   5.968   1.930  0.1682 -2.5188  1.4500
   21MOL   H50819748   5.888   5.973   2.117 -0.2204  1.0910 -2.9365
   21MOL   H50919749   5.938   6.092   2.322 -0.0026  0.4971 -0.1026
   21MOL   H51019750   6.154   6.224   2.344  1.5958  2.3481 -1.5451
   21MOL   H51119751   6.433   6.240   2.094 -0.7551 -1.6304 -0.5309
   21MOL   H51219752   6.414   6.224   2.274  0.6291 -3.7962 -0.5131
   21MOL   H51319753   6.334   6.438   2.263  1.3791  0.0581  0.5204
   21MOL   H51419754   6.333   6.630   2.192  0.3686  1.8228 -0.7729
   21MOL   H51519755   6.196   6.632   2.088 -0.2128  0.3062 -0.5743
   21MOL   H51619756   6.336   6.811   1.995  0.0027 -0.7207 -1.4110
   21MOL   H51719757   6.366   6.678   1.898  1.7068 -0.0920 -0.9754
   21MOL   H51819758   6.528   6.735   2.137 -2.3288 -2.0009 -0.1550
   21MOL   H51919759   6.591   6.631   2.004  0.2771  0.0115  1.0155
   21MOL   H52019760   6.595   6.862   1.874  0.9795 -1.0880 -0.4888
   21MOL   H52119761   6.572   6.926   2.036  0.9135 -0.2443  1.2476
   21MOL   H52219762   6.799   6.943   2.003  2.2046 -1.3307  2.4419
   21MOL   H52319763   6.780   6.790   2.094 -0.6316 -1.2137 -0.7124
   21MOL   H52419764   6.796   6.785   1.790  1.3297 -0.4831 -1.0249
   21MOL   H52519765   6.814   6.658   1.901 -0.9430 -0.3028 -1.8614
   21MOL   H52619766   7.007   6.901   1.873  3.4171 -1.2566 -0.6020
   21MOL   H52719767   7.010   6.791   2.009 -2.0790 -2.8979 -0.1531
   21MOL   H52819768   7.039   6.681   1.721 -1.9811  0.2021  1.3635
   21MOL   H52919769   7.077   6.610   1.875 -1.6729 -0.8215 -0.3575
   21MOL   N53019770   7.253   6.841   1.698 -0.0692  0.2696 -0.2343
   21MOL   C53119771   7.375   6.922   1.677 -0.4058  0.3757 -0.6665
   21MOL   C53219772   7.344   7.056   1.607  0.0525 -0.2064 -0.1418
   21MOL   C53319773   7.412   7.065   1.483 -0.0277 -0.3076  0.1144
   21MOL   C53419774   7.417   7.191   1.424 -0.7579  0.2018  0.0561
   21MOL   C53519775   7.347   7.301   1.476 -0.3492  0.4408  0.0260
   21MOL   C53619776   7.276   7.289   1.600  0.3062  0.4869  0.0932
   21MOL   C53719777   7.276   7.165   1.665  0.0520 -0.1379  0.0830
   21MOL   C53819778   7.210   7.154   1.803 -0.2209 -0.0757  0.2795
   21MOL   N53919779   7.231   7.266   1.897  0.1561  0.2527 -0.1457
   21MOL   C54019780   7.142   7.352   1.941  0.3313 -0.1474 -0.0741
   21MOL   O54119781   7.020   7.349   1.922 -0.0603  0.4640  0.1892
   21MOL   C54219782   7.194   7.467   2.025 -0.6719  0.1002  0.6599
   21MOL   C54319783   7.154   7.616   1.988  0.0579  0.1145  0.3777
   21MOL   C54419784   7.250   7.668   1.886 -0.2470  0.5182  0.7995
   21MOL   C54519785   7.243   0.028   1.862  0.1956 -0.3884 -0.3574
   21MOL   C54619786   7.101   0.084   1.829  0.3528 -0.3085 -0.0880
   21MOL   C54719787   7.051   0.041   1.689 -0.0604  0.4287 -0.0148
   21MOL   C54819788   6.915   0.105   1.647  0.2535  0.0560 -0.1196
   21MOL   C54919789   6.797   0.011   1.664 -0.0631 -0.5396  0.1896
   21MOL   C55019790   6.668   0.070   1.606  0.2722  0.3438  0.0749
   21MOL   O55119791   6.662   0.191   1.584  0.1181  0.0014 -0.3649
   21MOL   H55219792   7.192   6.836   1.618  0.8444 -5.2058 -0.8277
   21MOL   H55319793   7.454   6.860   1.635 -1.0631 -1.3705  0.6038
   21MOL   H55419794   7.423   6.957   1.769  0.4389  1.1142 -1.3834
   21MOL   H55519795   7.473   6.986   1.442  2.0936  1.2018  0.2588
   21MOL   H55619796   7.475   7.203   1.334  0.7033 -0.8641  0.8395
   21MOL   H55719797   7.349   7.402   1.437 -0.1420  0.6559  0.5785
   21MOL   H55819798   7.230   7.378   1.640  1.5890  0.9283  0.5982
   21MOL   H55919799   7.250   7.062   1.847 -0.6455 -0.1013  0.6106
   21MOL   H56019800   7.104   7.132   1.793  0.1491 -1.3115 -1.0908
   21MOL   H56119801   7.325   7.280   1.932 -0.2042  0.3869  0.7692
   21MOL   H56219802   7.302   7.456   2.023 -0.6376  0.6418 -1.8258
   21MOL   H56319803   7.172   7.454   2.131  1.7720 -1.8474  0.9749
   21MOL   H56419804   7.157   7.669   2.083  2.0101  0.1480  0.3280
   21MOL   H56519805   7.051   7.630   1.955  0.4136  1.5064 -0.1704
   21MOL   H56619806   7.352   7.654   1.921 -1.4728 -3.1841  3.0887
   21MOL   H56719807   7.241   7.615   1.790 -1.4979 -1.5264  2.0078
   21MOL   H56819808   7.290   0.083   1.944 -1.4475  0.8946 -0.2447
   21MOL   H56919809   7.309   0.056   1.780  1.1434  2.2785  1.2507
   21MOL   H57019810   7.027   0.048   1.900  1.3082 -1.1687  0.4864
   21MOL   H57119811   7.110   0.192   1.843  3.0999 -0.6918  1.5542
   21MOL   H57219812   7.028   7.724   1.691  2.1679 -0.0613  3.6102
   21MOL   H57319813   7.125   0.058   1.612  1.6607  0.7741  1.6728
   21MOL   H57419814   6.908   0.200   1.699  0.3470  1.0235 -1.8529
   21MOL   H57519815   6.921   0.131   1.541  3.7376  0.3308  0.0805
   21MOL   H57619816   6.778   7.783   1.770  0.4594  1.2723  0.6056
   21MOL   H57719817   6.807   7.707   1.610  0.8888 -0.6562  0.5624
   21MOL   N57819818   6.566   7.774   1.578 -0.4946  0.7498  0.5794
   21MOL   C57919819   6.439   0.019   1.515 -0.5481 -0.3092 -0.4141
   21MOL   C58019820   6.341   0.067   1.618 -0.3308 -0.0815  0.5553
   21MOL   C58119821   6.313   7.766   1.716  0.3300  0.5337  0.1069
   21MOL   C58219822   6.208   0.001   1.808 -0.6196  0.3608  0.1515
   21MOL   C58319823   6.145   0.123   1.799  0.2934  0.6394 -0.6114
   21MOL   C58419824   6.185   0.223   1.711 -1.0015 -0.2221  0.0043
   21MOL   C58519825   6.285   0.197   1.617  0.4646  0.2229  0.5135
   21MOL   C58619826   6.316   0.301   1.502  0.4487  0.2854 -0.4040
   21MOL   N58719827   6.274   0.434   1.543  0.4887 -0.4658  0.2173
   21MOL   C58819828   6.283   0.534   1.458 -0.0533  0.0517 -0.3890
   21MOL   O58919829   6.332   0.519   1.345  0.2077 -0.1985  0.5427
   21MOL   C59019830   6.208   0.669   1.501 -0.0355 -0.1067  0.0746
   21MOL   C59119831   6.146   0.749   1.393 -0.9005  0.5793  0.0806
   21MOL   C59219832   6.018   0.693   1.329  0.0068 -0.8455  0.0221
   21MOL   C59319833   5.936   0.816   1.281  0.3721  0.8323  0.1186
   21MOL   C59419834   5.812   0.774   1.197  0.6849 -0.1036 -0.3411
   21MOL   C59519835   5.837   0.796   1.046 -0.0904 -0.1201 -0.8302
   21MOL   C59619836   5.707   0.779   0.966  0.0042 -0.5913  0.6018
   21MOL   C59719837   5.735   0.765   0.815 -0.1953 -0.7545  0.2722
   21MOL   C59819838   5.611   0.737   0.721 -0.8956  0.1526 -0.3585
   21MOL   O59919839   5.573   0.625   0.692  0.0017 -0.0614  0.6145
   21MOL   H60019840   6.576   7.682   1.618 -3.4368  0.3968  0.6135
   21MOL   H60119841   6.398   7.719   1.468 -1.5737  0.5122 -1.1077
   21MOL   H60219842   6.455   0.090   1.435  1.6057 -1.4981 -1.0821
   21MOL   H60319843   6.361   7.670   1.717  1.8683  1.2683 -1.2408
   21MOL   H60419844   6.177   7.712   1.874 -1.2327  1.7550  1.5472
   21MOL   H60519845   6.064   0.132   1.869  1.1181 -1.4044  0.6509
   21MOL   H60619846   6.125   0.311   1.692  0.8441  0.7992 -1.2955
   21MOL   H60719847   6.263   0.271   1.412 -3.2029  1.1311  1.3873
   21MOL   H60819848   6.423   0.313   1.481  0.4624  2.0007  0.4765
   21MOL   H60919849   6.260   0.447   1.642  1.1706 -1.9465  0.5148
   21MOL   H61019850   6.282   0.731   1.551 -1.4191 -0.9096  3.2396
   21MOL   H61119851   6.146   0.647   1.588  0.2295  0.2966  0.3700
   21MOL   H61219852   6.225   0.766   1.319  0.1404 -0.5563  0.9198
   21MOL   H61319853   6.127   0.852   1.426 -0.1022  1.1857 -1.3015
   21MOL   H61419854   6.029   0.633   1.239  0.4433 -2.0668  0.8740
   21MOL   H61519855   5.954   0.640   1.400  1.6673 -2.3610  0.4086
   21MOL   H61619856   5.909   0.852   1.380  0.2846 -0.1020  0.4388
   21MOL   H61719857   5.998   0.895   1.238  0.2642 -0.8095 -3.2045
   21MOL   H61819858   5.785   0.671   1.220 -1.9114 -0.2183 -3.4521
   21MOL   H61919859   5.722   0.832   1.216 -0.1198 -0.1838 -3.5862
   21MOL   H62019860   5.920   0.734   1.014 -0.6471 -0.1824 -2.1875
   21MOL   H62119861   5.880   0.895   1.030  0.1279  0.0255  0.6026
   21MOL   H62219862   5.656   0.687   0.993 -2.0777 -0.1366 -1.6921
   21MOL   H62319863   5.642   0.864   0.986  2.3452  0.5253  3.9173
   21MOL   H62419864   5.795   0.847   0.775 -0.3048 -2.1120 -2.8072
   21MOL   H62519865   5.789   0.671   0.800  1.2381 -0.3459  2.5343
   21MOL   N62619866   5.569   0.849   0.661 -0.3345 -0.2429  0.3321
   21MOL   C62719867   5.481   0.859   0.548  0.2082  0.3658 -1.1745
   21MOL   C62819868   5.336   0.849   0.591 -0.4126  0.3000  0.0704
   21MOL   C62919869   5.286   0.722   0.596  0.1666  0.5672 -0.2517
   21MOL   C63019870   5.151   0.700   0.638  0.0441  0.4608  0.3158
   21MOL   C63119871   5.066   0.809   0.666 -0.5735  0.6169  0.1207
   21MOL   C63219872   5.120   0.939   0.655 -0.0171 -0.1842 -0.3496
   21MOL   C63319873   5.252   0.958   0.620 -0.5148  0.3888  0.0408
   21MOL   C63419874   5.302   1.103   0.618  0.0173 -0.5455 -0.5980
   21MOL   N63519875   5.309   1.185   0.496  0.2264 -0.5795  0.2740
   21MOL   C63619876   5.208   1.273   0.462 -0.7671  0.4772 -0.0653
   21MOL   O63719877   5.111   1.299   0.534  0.2045  0.2377  0.0031
   21MOL   C63819878   5.251   1.367   0.346  0.2624  0.5360  0.3799
   21MOL   C63919879   5.139   1.464   0.302 -0.4708 -0.2921  0.5080
   21MOL   C64019880   5.002   1.420   0.249 -0.4374  0.5841 -0.3034
   21MOL   C64119881   5.013   1.334   0.123 -0.8622  0.0056 -0.7737
   21MOL   C64219882   4.877   1.327   0.050  1.2465 -0.4134 -0.3828
   21MOL   C64319883   4.878   1.239   7.705 -0.1497  0.0559  0.9272
   21MOL   C64419884   4.743   1.243   7.630  1.7694 -0.0861 -0.4098
   21MOL   C64519885   4.736   1.142   7.515  0.3542  0.4670 -0.7606
   21MOL   C64619886   4.597   1.132   7.453  0.4369 -0.0588 -0.3210
   21MOL   O64719887   4.543   1.232   7.413  0.3481  0.2059 -0.1229
   21MOL   H64819888   5.609   0.933   0.700  1.2680 -0.6007 -0.4803
   21MOL   H64919889   5.494   0.783   0.472 -0.8285 -0.6255 -0.3768
   21MOL   H65019890   5.509   0.951   0.496  0.4008  1.6411  1.1184
   21MOL   H65119891   5.352   0.638   0.585 -1.0702 -0.4086 -0.2620
   21MOL   H65219892   5.114   0.600   0.658  1.8078 -0.0834  0.9251
   21MOL   H65319893   4.962   0.802   0.696 -0.9783  0.0146 -1.3986
   21MOL   H65419894   5.056   1.024   0.674 -1.3089 -1.2066 -0.0549
   21MOL   H65519895   5.401   1.104   0.663 -0.3469  0.7333  0.2123
   21MOL   H65619896   5.234   1.159   0.683 -0.1013 -1.5015  0.1035
   21MOL   H65719897   5.386   1.182   0.430  0.8526  1.0547  0.9022
   21MOL   H65819898   5.282   1.301   0.266  0.0903  1.1437 -0.1923
   21MOL   H65919899   5.341   1.421   0.378 -0.2899  2.1292 -0.6972
   21MOL   H66019900   5.181   1.527   0.224 -0.3003 -1.2607 -0.1917
   21MOL   H66119901   5.134   1.542   0.378  1.2244 -0.9334  1.3065
   21MOL   H66219902   4.945   1.368   0.326  1.0979 -0.8868 -0.1220
   21MOL   H66319903   4.959   1.515   0.217 -1.1621 -0.4915 -2.5887
   21MOL   H66419904   5.078   1.392   0.058 -2.7252  1.5944 -1.2763
   21MOL   H66519905   5.050   1.234   0.142  0.3538  0.4343 -0.8439
   21MOL   H66619906   4.796   1.295   0.116  1.5783  0.5777  0.5261
   21MOL   H66719907   4.842   1.426   0.021  0.2064 -0.7853 -0.4162
   21MOL   H66819908   4.916   1.138   7.717 -4.4681 -1.7797  0.2328
   21MOL   H66919909   4.951   1.277   7.634 -2.0373 -0.8869 -1.5827
   21MOL   H67019910   4.662   1.224   7.700  1.6425  2.0288  0.0705
   21MOL   H67119911   4.719   1.344   7.596  1.0036  0.3865  1.4937
   21MOL   H67219912   4.761   1.041   7.549  0.7096  0.5801 -0.6768
   21MOL   H67319913   4.812   1.168   7.441  0.5999  1.2643 -0.2360
   21MOL   N67419914   4.552   1.014   7.433  0.2962  0.8396 -0.3822
   21MOL   C67519915   4.414   0.983   7.388 -0.2055  0.1479 -0.1084
   21MOL   C67619916   4.358   0.842   7.422 -0.1665  0.6550  0.5074
   21MOL   C67719917   4.241   0.832   7.503  0.0710  0.1263  0.1682
   21MOL   C67819918   4.195   0.710   7.555 -0.4902  0.2551 -0.1102
   21MOL   C67919919   4.266   0.589   7.520 -1.1493  0.2170 -0.0914
   21MOL   C68019920   4.378   0.593   7.426 -0.2502  0.1997 -0.3538
   21MOL   C68119921   4.421   0.724   7.377  0.3254  0.0086  0.0691
   21MOL   C68219922   4.537   0.724   7.290 -0.0575 -0.2592 -0.8417
   21MOL   N68319923   4.657   0.662   7.353 -0.3035  0.0493 -0.3144
   21MOL   C68419924   4.739   0.702   7.447  0.3955 -0.5833 -0.1369
   21MOL   O68519925   4.705   0.799   7.519 -0.2900 -0.6967  0.8716
   21MOL   C68619926   4.879   0.635   7.462  0.4584  0.3629 -1.1417
   21MOL   C68719927   4.959   0.684   7.590 -0.3408  0.1036  0.8103
   21MOL   C68819928   4.908   0.651   7.728  0.2994  0.6839 -0.4455
   21MOL   C68919929   5.005   0.668   0.055  0.0204  0.7592 -0.0295
   21MOL   C69019930   5.052   0.809   0.073  0.9246 -0.1136 -0.2235
   21MOL   C69119931   5.152   0.825   0.188  0.2693  0.2489  0.0983
   21MOL   C69219932   5.193   0.970   0.214 -0.1821 -0.1085 -0.1213
   21MOL   C69319933   5.290   1.035   0.112  0.5588 -0.1338 -0.3115
   21MOL   C69419934   5.440   1.008   0.133 -0.6316  0.2103 -0.1803
   21MOL   O69519935   5.481   0.978   0.243 -0.5940  0.2441 -0.4971
   21MOL   H69619936   4.625   0.945   7.431  2.8630  3.4892 -2.2258
   21MOL   H69719937   4.410   1.002   7.281 -1.6158  0.2028 -0.0455
   21MOL   H69819938   4.336   1.046   7.430 -0.9946 -0.5176 -0.5517
   21MOL   H69919939   4.183   0.921   7.521  1.9700  1.3290  0.4519
   21MOL   H70019940   4.100   0.713   7.607  0.0274 -2.2648  1.0076
   21MOL   H70119941   4.240   0.489   7.554 -1.0694  0.3519  0.3775
   21MOL   H70219942   4.430   0.506   7.387  1.2650  1.6142 -1.5497
   21MOL   H70319943   4.571   0.821   7.255 -1.2079  0.0612 -1.0665
   21MOL   H70419944   4.499   0.673   7.202 -2.0002  0.6445 -0.5593
   21MOL   H70519945   4.696   0.596   7.287  0.5351  0.5498 -0.3208
   21MOL   H70619946   4.927   0.657   7.367  1.4182 -2.4355 -1.3518
   21MOL   H70719947   4.865   0.527   7.453  1.5116  0.0542  0.7229
   21MOL   H70819948   4.992   0.787   7.581 -1.1047  0.2906  0.0450
   21MOL   H70919949   5.052   0.630   7.571 -0.8179 -0.2514 -0.5855
   21MOL   H71019950   4.821   0.711   7.755 -0.0506  0.1451 -0.3813
   21MOL   H71119951   4.871   0.549   7.732  0.7312  0.5064 -0.9605
   21MOL   H71219952   4.964   0.612   0.140  0.9313  0.5085  0.2586
   21MOL   H71319953   5.095   0.615   0.024 -0.1381  0.8359 -0.6090
   21MOL   H71419954   5.110   0.846   7.778  0.3886 -0.2587 -0.6551
   21MOL   H71519955   4.977   0.886   0.088  0.8155 -0.0684 -0.9884
   21MOL   H71619956   5.233   0.758   0.162  1.3883  1.6868 -0.1673
   21MOL   H71719957   5.102   0.783   0.276  1.2820  0.7030  0.8964
   21MOL   H71819958   5.237   0.976   0.314  1.2110  0.4250 -0.7597
   21MOL   H71919959   5.107   1.034   0.233 -0.6408  0.0990 -2.7092
   21MOL   H72019960   5.287   1.144   0.121  0.1557 -0.1587 -0.1263
   21MOL   H72119961   5.260   1.015   0.009 -1.8345 -2.1601  0.7521
   21MOL   N72219962   5.520   1.042   0.035 -0.3509  0.3310  0.7330
   21MOL   C72319963   5.661   1.043   0.028 -0.7076 -0.7904  0.3535
   21MOL   C72419964   5.722   0.910   7.769  0.3038 -0.1313 -0.1134
   21MOL   C72519965   5.639   0.812   7.709 -0.4524 -0.0587 -0.6798
   21MOL   C72619966   5.683   0.691   7.660 -0.2403 -0.5286 -0.3570
   21MOL   C72719967   5.822   0.671   7.670  0.0516 -0.2998 -0.3390
   21MOL   C72819968   5.911   0.759   7.734 -0.5397 -0.4696  0.0604
   21MOL   C72919969   5.861   0.878   7.782  0.3691  0.2633  0.2981
   21MOL   C73019970   5.950   0.972   0.078 -0.2686 -0.4511 -0.3282
   21MOL   N73119971   6.086   0.924   0.097 -0.1730 -0.2173  0.1423
   21MOL   C73219972   6.183   0.926   7.783  0.6044 -0.7228 -0.3680
   21MOL   O73319973   6.159   0.964   7.669  0.2671 -0.4354 -0.1132
   21MOL   C73419974   6.318   0.867   0.029 -0.4899  0.1579 -0.1882
   21MOL   C73519975   6.352   0.733   7.757  0.9756  0.2271 -0.6064
   21MOL   C73619976   6.287   0.609   0.032  0.4504 -0.3262  0.0578
   21MOL   C73719977   6.285   0.496   7.722  0.0373 -0.3521  0.3610
   21MOL   C73819978   6.244   0.357   7.775 -0.3768 -0.1903 -0.4180
   21MOL   C73919979   6.098   0.340   0.021  0.0214  0.9288 -0.7100
   21MOL   C74019980   5.998   0.329   7.699  0.0490 -0.4451  0.0423
   21MOL   C74119981   5.854   0.308   7.741 -0.6863  0.4928 -0.4163
   21MOL   C74219982   5.750   0.288   7.632 -0.1921 -0.2389 -0.8547
   21MOL   O74319983   5.787   0.237   7.522 -0.4875  0.1621  0.0440
   21MOL   H74419984   5.481   1.085   7.742  0.3423 -1.7958 -0.7333
   21MOL   H74519985   5.692   1.057   0.131 -1.2035 -0.3139  0.4419
   21MOL   H74619986   5.694   1.125   7.754 -1.5853  0.1383  1.0850
   21MOL   H74719987   5.534   0.836   7.700 -0.5756  0.1705  1.0689
   21MOL   H74819988   5.618   0.620   7.611 -3.0895 -0.0210  2.4995
   21MOL   H74919989   5.864   0.582   7.625 -1.3052 -2.0121  1.7251
   21MOL   H75019990   6.011   0.719   7.748 -1.0920 -2.0738 -0.3892
   21MOL   H75119991   5.900   1.011   0.167  0.4602  0.8009 -0.4475
   21MOL   H75219992   5.964   1.065   0.022 -2.0192  1.1913  1.8894
   21MOL   H75319993   6.108   0.899   0.192 -0.5413 -0.1608  0.2454
   21MOL   H75419994   6.331   0.871   0.137 -1.4349  0.9329 -0.0933
   21MOL   H75519995   6.396   0.938   0.001 -0.9261  2.1168  3.2712
   21MOL   H75619996   6.460   0.716   7.750  0.9367 -0.9902  1.3565
   21MOL   H75719997   6.324   0.744   7.652 -3.1492 -0.0213  0.4059
   21MOL   H75819998   6.338   0.592   0.126  3.4508  1.7032 -1.1282
   21MOL   H75919999   6.185   0.638   0.057  0.5101 -0.5064  0.5118
   21MOL   H76020000   6.236   0.512   7.625  0.2385  2.4064  0.6702
   21MOL   H76120001   6.384   0.475   7.681  0.2978  2.0940 -0.3807
   21MOL   H76220002   6.255   0.283   7.695 -0.6440  1.2506 -1.8239
   21MOL   H76320003   6.300   0.315   0.068 -2.3187 -0.2120  0.9173
   21MOL   H76420004   6.074   0.422   0.089  0.1612 -1.8209  2.8186
   21MOL   H76520005   6.094   0.259   0.094  0.6520  1.9998  0.5404
   21MOL   H76620006   5.999   0.424   7.645  0.3786 -0.9302 -0.8080
   21MOL   H76720007   6.027   0.254   7.626  2.5742  1.2830 -0.7987
   21MOL   H76820008   5.853   0.224   0.021  0.6885  1.7329  1.1257
   21MOL   H76920009   5.816   0.399   7.786  2.2597  1.3879  0.3675
   21MOL   N77020010   5.622   0.307   7.669 -0.3869  0.0494 -0.1271
   21MOL   C77120011   5.507   0.287   7.572  0.5814  0.5656 -0.0424
   21MOL   C77220012   5.438   0.415   7.540 -0.2798 -0.3492  0.3046
   21MOL   C77320013   5.443   0.457   7.408 -0.0067  1.0823  0.5277
   21MOL   C77420014   5.374   0.572   7.364 -0.1760  0.4777 -0.5063
   21MOL   C77520015   5.312   0.655   7.457  1.4102 -0.2294  0.0490
   21MOL   C77620016   5.301   0.612   7.587 -0.5477 -0.2091  0.3289
   21MOL   C77720017   5.353   0.487   7.629 -0.5594  0.2893  0.4388
   21MOL   C77820018   5.328   0.442   7.771  0.2737  0.4188 -0.8288
   21MOL   N77920019   5.399   0.527   0.075 -0.4343 -0.1297 -0.0825
   21MOL   C78020020   5.501   0.493   0.150 -0.2425 -0.3908 -0.3944
   21MOL   O78120021   5.545   0.380   0.155  0.1846  0.1452 -0.0136
   21MOL   C78220022   5.555   0.609   0.233 -0.1123 -0.5192 -0.0579
   21MOL   C78320023   5.642   0.570   0.347 -0.0535 -0.2890  0.1117
   21MOL   C78420024   5.782   0.518   0.305 -0.4166  0.0363  0.0495
   21MOL   C78520025   5.892   0.555   0.405 -0.4200  0.5139  0.4394
   21MOL   C78620026   6.036   0.578   0.361  0.2436  0.3218 -0.0022
   21MOL   C78720027   6.130   0.595   0.478 -0.4430  0.0365 -0.1464
   21MOL   C78820028   6.260   0.676   0.450 -0.3389 -0.0599 -0.7663
   21MOL   C78920029   6.332   0.691   0.583 -0.0294 -0.5629 -0.0134
   21MOL   C79020030   6.470   0.761   0.553 -0.1664  0.2524 -0.0485
   21MOL   O79120031   6.521   0.763   0.444  0.1689 -0.6444 -0.3451
   21MOL   H79220032   5.603   0.357   7.755 -0.7612  0.6031 -0.5250
   21MOL   H79320033   5.522   0.220   7.486 -1.3502 -3.0717  2.3129
   21MOL   H79420034   5.439   0.224   7.630 -1.4657  1.5161 -1.3556
   21MOL   H79520035   5.509   0.394   7.351 -0.7350  0.3580  0.4637
   21MOL   H79620036   5.372   0.593   7.258 -1.2363 -0.1912 -0.6245
   21MOL   H79720037   5.273   0.752   7.429  0.7456 -0.0696  1.4568
   21MOL   H79820038   5.255   0.675   7.662  1.5642  3.0531 -1.0044
   21MOL   H79920039   5.338   0.336   0.005 -1.9754  0.4787  0.4659
   21MOL   H80020040   5.221   0.458   7.776  0.8068  4.2047  0.3652
   21MOL   H80120041   5.361   0.619   0.092 -1.0153 -0.2575 -0.6892
   21MOL   H80220042   5.478   0.677   0.269 -0.0712  0.0457 -1.0242
   21MOL   H80320043   5.612   0.674   0.167 -0.3951 -0.2215 -0.0086
   21MOL   H80420044   5.589   0.500   0.411 -0.6364 -2.1927 -2.3837
   21MOL   H80520045   5.657   0.663   0.403  0.9388  0.1436 -0.8410
   21MOL   H80620046   5.813   0.566   0.212 -0.6646 -0.0555 -0.0812
   21MOL   H80720047   5.780   0.411   0.284  1.4575  0.2603 -1.4498
   21MOL   H80820048   5.852   0.652   0.434 -1.0897  1.5160 -3.5294
   21MOL   H80920049   5.894   0.492   0.494 -0.1004 -0.2946 -0.1355
   21MOL   H81020050   6.065   0.503   0.288 -0.6196 -0.6309  0.6231
   21MOL   H81120051   6.053   0.671   0.307  1.3156 -0.2011 -0.5866
   21MOL   H81220052   6.145   0.501   0.531  0.7320  0.8280  0.9455
   21MOL   H81320053   6.084   0.653   0.559 -2.4407 -3.1765  1.1402
   21MOL   H81420054   6.245   0.777   0.410  0.5175  0.2087 -0.4218
   21MOL   H81520055   6.334   0.616   0.398  2.9181  1.2519  2.1404
   21MOL   H81620056   6.353   0.594   0.627  0.2952 -0.2719  0.4719
   21MOL   H81720057   6.276   0.748   0.656  1.3857 -0.8548  1.3298
   21MOL   N81820058   6.534   0.816   0.657 -0.0158  0.3355  0.2246
   21MOL   C81920059   6.658   0.893   0.660 -0.2602 -1.3879  0.1012
   21MOL   C82020060   6.620   1.044   0.687  0.1765 -0.0328  0.3629
   21MOL   C82120061   6.634   1.095   0.814 -0.5819 -0.2311 -0.8966
   21MOL   C82220062   6.598   1.226   0.845  0.1289  0.0174 -0.2182
   21MOL   C82320063   6.545   1.312   0.745  0.1030  0.1123  0.0154
   21MOL   C82420064   6.528   1.259   0.617  0.3976 -0.2369 -0.0988
   21MOL   C82520065   6.571   1.126   0.583  1.3025 -0.9250  0.4411
   21MOL   C82620066   6.543   1.079   0.444  0.4964 -0.5739  0.5453
   21MOL   N82720067   6.579   1.173   0.330 -0.0592  0.2908 -0.9438
   21MOL   C82820068   6.504   1.197   0.224  0.8479  0.2636  0.2459
   21MOL   O82920069   6.393   1.139   0.211  0.4753 -0.4677  0.8233
   21MOL   C83020070   6.553   1.305   0.127  0.1753 -0.2342 -0.1231
   21MOL   C83120071   6.464   1.335   0.005 -0.4766 -0.3669  0.5762
   21MOL   C83220072   6.495   1.235   7.688  0.5568  0.5541  0.1216
   21MOL   C83320073   6.415   1.247   7.557  0.1933  0.0182  0.3241
   21MOL   C83420074   6.428   1.123   7.465  0.1446  0.3783 -0.0945
   21MOL   C83520075   6.369   1.149   7.322  0.7272  0.1072 -0.2360
   21MOL   C83620076   6.346   1.028   7.243 -1.2028  0.8984 -0.4077
   21MOL   C83720077   6.254   0.919   7.300  0.0045  0.1480 -0.0427
   21MOL   C83820078   6.105   0.958   7.291  0.3661 -0.4718 -0.5971
   21MOL   O83920079   6.056   0.970   7.176  0.3107 -0.3581  0.2745
   21MOL   H84020080   6.495   0.787   0.746  0.8325  1.2281  0.9132
   21MOL   H84120081   6.718   0.866   0.746 -0.8566  1.6439  1.5452
   21MOL   H84220082   6.713   0.885   0.566 -1.7929 -1.1123 -0.8496
   21MOL   H84320083   6.675   1.035   0.894  4.6174  0.5941 -2.7731
   21MOL   H84420084   6.603   1.270   0.943  1.4887  0.9100 -0.6784
   21MOL   H84520085   6.511   1.412   0.765 -0.9365  0.3093 -2.4967
   21MOL   H84620086   6.486   1.323   0.540 -0.2658 -1.7152 -0.9915
   21MOL   H84720087   6.436   1.075   0.461  0.6651  0.9923  2.1170
   21MOL   H84820088   6.590   0.985   0.416 -0.9652 -1.2618  0.3707
   21MOL   H84920089   6.669   1.216   0.343  0.3688 -0.7321 -0.4643
   21MOL   H85020090   6.652   1.285   0.087  0.2850  0.3591 -0.1486
   21MOL   H85120091   6.562   1.398   0.184  3.8407 -0.3035 -0.5224
   21MOL   H85220092   6.506   1.429   7.759 -0.2192 -0.8825 -0.4966
   21MOL   H85320093   6.358   1.346   0.025 -0.3805  1.1292  0.3505
   21MOL   H85420094   6.476   1.140   7.739 -0.3533  0.3722 -0.5317
   21MOL   H85520095   6.600   1.238   7.661  0.2682  0.7477 -1.0114
   21MOL   H85620096   6.309   1.262   7.576  0.8110  2.4228  2.0387
   21MOL   H85720097   6.454   1.336   7.506  1.2645 -0.6597 -0.0572
   21MOL   H85820098   6.532   1.091   7.461 -0.2153 -0.7025 -0.8710
   21MOL   H85920099   6.380   1.038   7.513 -0.9952  1.3245  0.4882
   21MOL   H86020100   6.443   1.215   7.277 -0.5906  1.8641  0.1304
   21MOL   H86120101   6.277   1.207   7.336  2.0776  1.7068  2.2402
   21MOL   H86220102   6.441   0.983   7.213 -1.6015 -1.3308  1.4838
   21MOL   H86320103   6.305   1.064   7.149 -0.4596  0.3943 -0.9317
   21MOL   H86420104   6.249   0.827   7.242 -0.5113 -1.1498  2.0425
   21MOL   H86520105   6.283   0.884   7.399  1.8734 -0.0711 -0.6357
   21MOL   N86620106   6.040   0.996   7.402  0.0343  0.2176  0.8347
   21MOL   C86720107   5.891   1.020   7.420  0.5284  0.2735 -1.1920
   21MOL   C86820108   5.855   1.159   7.476  0.1159 -0.3050 -0.0664
   21MOL   C86920109   5.961   1.250   7.508 -0.1962  0.3254 -0.5102
   21MOL   C87020110   5.939   1.381   7.532 -0.1434 -0.0770  0.2069
   21MOL   C87120111   5.808   1.422   7.532  0.2818  0.5111 -0.2775
   21MOL   C87220112   5.698   1.332   7.524 -0.3065  0.2463 -0.0480
   21MOL   C87320113   5.720   1.198   7.486  0.4088 -0.5269  0.0475
   21MOL   C87420114   5.607   1.104   7.444  0.6888  0.6911  0.1470
   21MOL   N87520115   5.479   1.176   7.433 -0.1328 -0.7410 -0.2013
   21MOL   C87620116   5.365   1.129   7.489 -0.0570  0.2530  0.6667
   21MOL   O87720117   5.353   1.031   7.570  0.5924 -0.9469  0.2652
   21MOL   C87820118   5.249   1.217   7.463 -0.6627  0.3073  0.3068
   21MOL   C87920119   5.148   1.162   7.362  0.0700  0.3960  0.1558
   21MOL   C88020120   5.071   1.036   7.408  0.2883 -0.1402 -0.1724
   21MOL   C88120121   4.975   0.995   7.293 -0.1196  0.3889 -0.1228
   21MOL   C88220122   5.035   0.909   7.179 -0.7804  0.8266 -0.1696
   21MOL   C88320123   4.958   0.899   7.050 -0.1240  0.8742  0.3644
   21MOL   C88420124   4.821   0.842   7.067 -0.0992 -0.1004 -0.5835
   21MOL   C88520125   4.751   0.818   6.935 -0.0116  0.6609  0.7072
   21MOL   C88620126   4.600   0.805   6.959 -0.1539 -0.3561 -0.4093
   21MOL   O88720127   4.546   0.696   6.959 -0.4831 -0.9776  1.1240
   21MOL   H88820128   6.089   0.999   7.490  0.4001  0.5334  0.6192
   21MOL   H88920129   5.848   1.023   7.319 -2.1826  1.7005 -0.0470
   21MOL   H89020130   5.842   0.938   7.473  0.0553  0.1437 -1.8220
   21MOL   H89120131   6.067   1.231   7.504  0.3402  2.6016  1.1599
   21MOL   H89220132   6.022   1.449   7.535  0.1615 -0.5087  2.1272
   21MOL   H89320133   5.773   1.522   7.550 -1.9417 -0.6309  2.0423
   21MOL   H89420134   5.596   1.368   7.535 -0.3967  0.3019 -1.0149
   21MOL   H89520135   5.598   1.013   7.504  0.5429  0.3694 -0.3575
   21MOL   H89620136   5.623   1.064   7.343 -0.4987  2.4406 -0.7597
   21MOL   H89720137   5.474   1.249   7.364  2.4433  0.4289  0.7497
   21MOL   H89820138   5.279   1.313   7.421  2.3679 -0.8708 -0.3656
   21MOL   H89920139   5.206   1.226   7.562  2.5783 -1.6438  1.9768
   21MOL   H90020140   5.197   1.157   7.265  0.4970  0.7572  0.3513
   21MOL   H90120141   5.069   1.235   7.346  0.0308  0.6861  1.6165
   21MOL   H90220142   5.137   0.955   7.438  1.8563  1.1653 -0.0283
   21MOL   H90320143   5.009   1.050   7.496 -1.4403  0.8119 -1.4992
   21MOL   H90420144   4.883   0.951   7.332  1.2522 -1.9823  0.5705
   21MOL   H90520145   4.951   1.090   7.245  1.6169  0.8342 -0.1584
   21MOL   H90620146   5.127   0.958   7.148 -0.7081 -0.5610 -2.2322
   21MOL   H90720147   5.072   0.812   7.212 -2.3392 -0.1288 -1.1433
   21MOL   H90820148   5.023   0.840   6.985  0.0317 -0.1740  1.4686
   21MOL   H90920149   4.953   0.994   6.996  2.6076  1.2042  0.6212
   21MOL   H91020150   4.814   0.753   7.130 -0.1047  1.6161  1.9265
   21MOL   H91120151   4.758   0.912   7.122  1.0624 -0.5287  1.3764
   21MOL   H91220152   4.776   0.894   6.860  0.3138  0.1576  0.2958
   21MOL   H91320153   4.791   0.724   6.896  1.1926  1.4725 -0.0677
   21MOL   N91420154   4.533   0.919   6.955 -0.1926  0.3967  0.4472
   21MOL   C91520155   4.393   0.941   6.921 -1.0886 -0.0996  0.2935
   21MOL   C91620156   4.360   1.080   6.853  0.1310  0.2394 -0.4017
   21MOL   C91720157   4.287   1.172   6.932 -0.1109 -0.4221 -0.0839
   21MOL   C91820158   4.268   1.303   6.884  0.7314 -0.3277 -0.0528
   21MOL   C91920159   4.319   1.344   6.761 -0.3398  0.4495 -0.1256
   21MOL   C92020160   4.382   1.244   6.675 -0.5153 -0.8490  0.1758
   21MOL   C92120161   4.409   1.115   6.724 -0.9002  0.1867 -1.0466
   21MOL   C92220162   4.501   1.026   6.638 -1.0182 -0.0833  0.2000
   21MOL   N92320163   4.644   1.046   6.663  1.0024  0.5769  0.5020
   21MOL   C92420164   4.741   1.065   6.573  0.3525 -0.8439 -0.2247
   21MOL   O92520165   4.734   1.058   6.451 -0.6843 -0.0864 -0.0229
   21MOL   C92620166   4.873   1.100   6.644 -0.2412  0.3709  0.1708
   21MOL   C92720167   4.987   1.150   6.552 -0.8579 -0.1201 -0.4552
   21MOL   C92820168   5.101   1.208   6.631  0.0955 -0.6291 -0.7522
   21MOL   C92920169   5.085   1.356   6.683  1.1774  0.1558  0.3966
   21MOL   C93020170   5.083   1.463   6.580  0.0372  0.8274  0.9484
   21MOL   C93120171   5.053   1.607   6.635 -0.2086  0.4076 -1.1447
   21MOL   C93220172   5.047   1.717   6.532  0.0314  0.2644  0.5053
   21MOL   C93320173   5.176   1.743   6.452  0.4963  0.2248 -0.1520
   21MOL   C93420174   5.296   1.811   6.530  0.1896 -0.0492  0.1380
   21MOL   O93520175   5.270   1.861   6.642 -0.2198 -0.1323  0.0435
   21MOL   H93620176   4.592   1.000   6.957  1.3107 -0.6659  0.1987
   21MOL   H93720177   4.359   0.860   6.857  0.6825 -0.2435 -0.4800
   21MOL   H93820178   4.340   0.949   7.016 -1.8283  0.9841 -0.2050
   21MOL   H93920179   4.241   1.157   7.029  0.9181 -1.1859  0.2978
   21MOL   H94020180   4.220   1.372   6.952  0.6511 -0.9064  0.4729
   21MOL   H94120181   4.297   1.444   6.724 -0.9244 -0.5330 -2.5291
   21MOL   H94220182   4.416   1.279   6.579  2.4551 -1.5353  0.9200
   21MOL   H94320183   4.485   1.036   6.531  0.3178 -0.9137 -0.0856
   21MOL   H94420184   4.496   0.919   6.657  0.9925  0.0519  1.6999
   21MOL   H94520185   4.665   1.069   6.759  2.5911 -3.1945  1.1495
   21MOL   H94620186   4.910   1.008   6.690  2.2520  0.7279 -1.0579
   21MOL   H94720187   4.859   1.174   6.723  1.3475  0.4171  0.4165
   21MOL   H94820188   4.948   1.206   6.467  1.6488 -0.9591 -2.2206
   21MOL   H94920189   5.034   1.064   6.505 -2.0155  0.1973 -2.2326
   21MOL   H95020190   5.125   1.128   6.701  2.7753  0.2459 -0.6128
   21MOL   H95120191   5.181   1.199   6.558 -0.5002  1.3491 -1.6886
   21MOL   H95220192   4.998   1.373   6.746  2.0019 -0.5751  1.7677
   21MOL   H95320193   5.169   1.380   6.748  0.5023  1.6806  0.7235
   21MOL   H95420194   5.016   1.443   6.497  0.2281 -1.7872  1.3850
   21MOL   H95520195   5.179   1.464   6.528 -0.1102  1.6504  0.6928
   21MOL   H95620196   4.951   1.613   6.674 -0.0619  0.2329 -0.7386
   21MOL   H95720197   5.123   1.634   6.714 -0.9696 -1.9079  0.3339
   21MOL   H95820198   5.004   1.807   6.576 -1.9270 -0.2232 -0.3202
   21MOL   H95920199   4.971   1.700   6.455  0.4505 -0.6018  0.2757
   21MOL   H96020200   5.142   1.813   6.376 -2.0480  0.0467  0.7829
   21MOL   H96120201   5.205   1.654   6.396 -1.0900  0.0868 -0.7557
   21MOL   H96220202   5.396   1.818   6.487  0.3171 -0.2657  0.3978
   22MOL     N120203   7.659   6.462   2.450  0.3366  0.6270  0.2442
   22MOL     C220204   7.745   6.465   2.568  0.6481 -0.6206  0.9752
   22MOL     C320205   0.032   6.334   2.576  0.2019  0.2328 -0.0600
   22MOL     C420206   7.772   6.250   2.675 -0.4953 -0.0186 -0.8047
   22MOL     C520207   0.036   6.123   2.689 -0.0609  0.8658  0.5554
   22MOL     C620208   0.142   6.080   2.610 -0.0516  0.2460 -0.6044
   22MOL     C720209   0.194   6.163   2.512 -0.1681 -0.3090  0.1627
   22MOL     C820210   0.133   6.288   2.491  0.1057  0.3758 -0.0664
   22MOL     C920211   0.201   6.381   2.387 -0.2979  0.7672  0.5314
   22MOL    N1020212   0.316   6.455   2.440 -0.5975  0.1028 -0.3828
   22MOL    C1120213   0.317   6.581   2.478  0.2358 -0.6655  0.3319
   22MOL    O1220214   0.223   6.659   2.453  0.3232  0.7150 -0.3784
   22MOL    C1320215   0.450   6.628   2.539 -0.4920 -0.3042  0.6840
   22MOL    C1420216   0.457   6.771   2.594 -0.0756  0.1183  0.3875
   22MOL    C1520217   0.598   6.815   2.633  0.0960 -0.0218  0.3558
   22MOL    C1620218   0.677   6.879   2.519  0.2376  0.4305 -0.0088
   22MOL    C1720219   0.789   6.986   2.557 -0.0986  0.4381  0.4696
   22MOL    C1820220   0.918   6.902   2.586 -0.1230 -0.3213 -0.8569
   22MOL    C1920221   1.018   6.982   2.669 -1.0445  0.1704 -0.2768
   22MOL    C2020222   1.147   6.901   2.684  0.4956  0.3657  0.0940
   22MOL    C2120223   1.144   6.817   2.815  0.0858  0.9673 -0.4354
   22MOL    O2220224   1.152   6.872   2.928  0.2948  0.6095  0.1115
   22MOL    H2320225   7.562   6.476   2.475 -0.4468  0.8926 -2.7574
   22MOL    H2420226   0.021   6.551   2.576  0.1786 -0.2462  0.8351
   22MOL    H2520227   7.689   6.480   2.660  0.9943  1.2016  0.8944
   22MOL    H2620228   7.691   6.275   2.742 -1.6190  0.5616 -2.3265
   22MOL    H2720229   0.002   6.049   2.760 -1.8054  1.5665  0.4685
   22MOL    H2820230   0.188   5.983   2.619  0.4167  0.5400  0.2393
   22MOL    H2920231   0.278   6.119   2.460  0.0236 -1.3722  1.3257
   22MOL    H3020232   0.137   6.454   2.337 -0.3433  0.2716 -0.1373
   22MOL    H3120233   0.251   6.325   2.308  0.6757  0.4740  1.3398
   22MOL    H3220234   0.400   6.403   2.460 -0.8538  0.1758  0.9323
   22MOL    H3320235   0.522   6.613   2.458 -0.2605  1.0215  0.6325
   22MOL    H3420236   0.467   6.558   2.620  1.4295  0.8554  1.3228
   22MOL    H3520237   0.380   6.782   2.670 -0.8974 -1.3233 -0.2161
   22MOL    H3620238   0.416   6.846   2.526  0.9046  0.3404  0.0403
   22MOL    H3720239   0.577   6.902   2.695 -2.3353 -2.1965  2.7122
   22MOL    H3820240   0.658   6.741   2.685 -0.5332  0.5498  1.9425
   22MOL    H3920241   0.714   6.793   2.464 -1.3286 -0.3592  0.1309
   22MOL    H4020242   0.608   6.938   2.458  2.3137  0.4040 -2.4615
   22MOL    H4120243   0.805   7.044   2.467 -0.5569  0.8956  0.6832
   22MOL    H4220244   0.765   7.042   2.648  1.1677  0.0941  1.0221
   22MOL    H4320245   0.964   6.866   2.494  0.2959 -1.6760 -0.1205
   22MOL    H4420246   0.891   6.808   2.635 -0.5753  1.3830  2.3215
   22MOL    H4520247   1.042   7.069   2.608 -0.3467 -0.1023 -0.3879
   22MOL    H4620248   0.979   7.020   2.763  0.3011  1.0774 -0.0823
   22MOL    H4720249   1.228   6.973   2.696  0.5331  0.8759 -2.7987
   22MOL    H4820250   1.159   6.830   2.602  1.8662 -1.3523  1.7212
   22MOL    H4920251   7.663   6.369   2.411  0.0311  1.2518 -1.2990
   22MOL    N5020252   1.128   6.689   2.804  0.3206  0.4414  0.0059
   22MOL    C5120253   1.123   6.599   2.925  0.1387 -0.1600  0.6179
   22MOL    C5220254   1.027   6.484   2.905  0.1061  0.1594  0.3896
   22MOL    C5320255   1.082   6.369   2.856 -0.3009  0.4528  0.3174
   22MOL    C5420256   1.002   6.259   2.831 -0.4450 -0.1599  0.3841
   22MOL    C5520257   0.864   6.262   2.854  0.0024 -0.0312 -0.2107
   22MOL    C5620258   0.803   6.381   2.892  0.0104 -0.1702 -0.2081
   22MOL    C5720259   0.883   6.500   2.913  0.0014 -0.2971 -0.3501
   22MOL    C5820260   0.821   6.633   2.939 -0.5697 -0.2191 -0.4714
   22MOL    N5920261   0.733   6.629   3.059 -0.2970  0.0058  0.2301
   22MOL    C6020262   0.630   6.717   3.070  0.4191  0.0693 -0.2062
   22MOL    O6120263   0.592   6.795   2.979  0.2062 -0.0380 -0.1475
   22MOL    C6220264   0.562   6.725   3.204 -0.2016  0.0592  0.2788
   22MOL    C6320265   0.639   6.815   3.304  0.1794  0.2406 -0.0803
   22MOL    C6420266   0.754   6.746   3.379  0.2858 -0.7688  0.6074
   22MOL    C6520267   0.828   6.848   3.469 -0.9788 -0.4907 -0.3287
   22MOL    C6620268   0.937   6.915   3.385 -0.1804 -0.5252  0.0398
   22MOL    C6720269   1.007   7.039   3.455 -0.7288  1.4438 -0.0831
   22MOL    C6820270   1.126   7.106   3.386 -0.0956  1.0366  0.4734
   22MOL    C6920271   1.186   7.227   3.464  0.2095 -0.2607  0.0376
   22MOL    C7020272   1.260   7.325   3.379  0.3947  0.0331 -0.4868
   22MOL    O7120273   1.203   7.375   3.283  0.2752 -0.0985  0.0422
   22MOL    H7220274   1.110   6.652   2.712  2.2857  1.7441 -0.9320
   22MOL    H7320275   1.105   6.657   3.016  0.6865  0.9332  0.0459
   22MOL    H7420276   1.225   6.562   2.931  0.1841 -0.1972 -0.3072
   22MOL    H7520277   1.189   6.354   2.845 -0.7039 -1.8975 -0.5643
   22MOL    H7620278   1.050   6.171   2.792  0.4502  0.4512  0.0861
   22MOL    H7720279   0.805   6.175   2.827  0.3993 -0.4192  0.1593
   22MOL    H7820280   0.696   6.381   2.908 -0.0217  0.2672 -0.4311
   22MOL    H7920281   0.752   6.635   2.855 -0.7493  1.7285 -0.3007
   22MOL    H8020282   0.894   6.714   2.943 -1.0547  0.1539  1.0060
   22MOL    H8120283   0.768   6.581   3.141 -0.7060  0.8264  0.8842
   22MOL    H8220284   0.542   6.634   3.261 -1.0026  0.5954  0.8598
   22MOL    H8320285   0.465   6.763   3.173  0.0170  1.8154  1.6938
   22MOL    H8420286   0.567   6.848   3.379 -0.1106 -0.9043  0.1563
   22MOL    H8520287   0.671   6.908   3.257  1.2213 -0.8461 -1.5657
   22MOL    H8620288   0.705   6.671   3.440 -1.9215  0.5519  0.5227
   22MOL    H8720289   0.830   6.712   3.308  1.0698  1.0585  0.5416
   22MOL    H8820290   0.759   6.923   3.508  1.3945  1.3151  0.5532
   22MOL    H8920291   0.881   6.792   3.546 -1.2129  1.9502  1.6887
   22MOL    H9020292   1.017   6.845   3.360  0.5352 -0.0916  1.0805
   22MOL    H9120293   0.890   6.956   3.295  3.1544  2.9824 -0.2654
   22MOL    H9220294   1.043   7.016   3.556 -0.1771  1.4929 -0.2730
   22MOL    H9320295   0.936   7.117   3.483 -1.7875  1.0084 -1.5247
   22MOL    H9420296   1.093   7.141   3.288  1.4113 -1.8226 -1.1522
   22MOL    H9520297   1.206   7.038   3.357 -0.2831  0.1270  2.0284
   22MOL    H9620298   1.251   7.184   3.540 -0.1450  3.2764  2.4686
   22MOL    H9720299   1.107   7.282   3.517 -0.5835 -0.5697 -0.8048
   22MOL    N9820300   1.374   7.375   3.416 -0.2010 -0.3717 -0.1912
   22MOL    C9920301   1.458   7.459   3.339 -0.3546  0.4344 -0.1671
   22MOL   C10020302   1.417   7.607   3.356  0.8269 -0.0639  0.1078
   22MOL   C10120303   1.388   7.657   3.487  0.6336 -0.5297  0.4423
   22MOL   C10220304   1.376   0.003   3.502  0.4936  0.1547 -0.1239
   22MOL   C10320305   1.388   0.097   3.397 -0.1587  0.4119 -0.0862
   22MOL   C10420306   1.414   0.048   3.266 -0.1639  0.1162 -0.0417
   22MOL   C10520307   1.418   7.698   3.246  0.2046 -0.1860 -0.4283
   22MOL   C10620308   1.423   7.634   3.101 -0.3198 -0.2566 -0.0759
   22MOL   N10720309   1.418   7.731   2.994  0.0981 -0.6465 -0.1903
   22MOL   C10820310   1.501   7.768   2.893  0.0585  0.0701 -0.4722
   22MOL   O10920311   1.609   7.706   2.875  0.7120  0.8355  0.2603
   22MOL   C11020312   1.445   0.082   2.797  0.4009  0.6515  0.4726
   22MOL   C11120313   1.548   0.188   2.774 -0.2935  0.2525 -0.4095
   22MOL   C11220314   1.517   0.316   2.697 -0.4030 -0.0214  0.3366
   22MOL   C11320315   1.638   0.418   2.716 -0.2863 -0.7977  0.8702
   22MOL   C11420316   1.616   0.560   2.657  0.1421  0.0596 -0.5276
   22MOL   C11520317   1.711   0.657   2.728 -0.8775  0.7943 -0.6764
   22MOL   C11620318   1.692   0.813   2.701 -1.1037 -0.1113  0.5624
   22MOL   C11720319   1.808   0.915   2.743 -0.3267 -0.6766 -0.8280
   22MOL   C11820320   1.772   1.069   2.740 -0.4881  0.3615  0.5642
   22MOL   O11920321   1.702   1.105   2.647  0.2604 -0.3447 -0.0965
   22MOL   H12020322   1.414   7.348   3.505 -2.2954 -1.8859  0.3268
   22MOL   H12120323   1.558   7.451   3.382 -1.1527 -0.8581  1.5041
   22MOL   H12220324   1.467   7.422   3.237  2.3265 -1.5075  0.7177
   22MOL   H12320325   1.381   7.593   3.574  1.3511 -0.3343  0.6458
   22MOL   H12420326   1.361   0.043   3.601  1.0610  1.1183 -0.4218
   22MOL   H12520327   1.391   0.201   3.426  1.3381  0.0966  0.9329
   22MOL   H12620328   1.437   0.127   3.197 -0.6838 -2.7075 -3.5647
   22MOL   H12720329   1.336   7.568   3.087 -0.6580  0.4149 -1.1562
   22MOL   H12820330   1.519   7.586   3.082 -0.4082 -0.3510 -0.2891
   22MOL   H12920331   1.345   0.009   3.011  1.7408  1.3924 -1.1855
   22MOL   H13020332   1.347   0.117   2.832 -0.0834 -1.9244  1.7821
   22MOL   H13120333   1.411   0.041   2.702  1.2708  2.8574 -0.8189
   22MOL   H13220334   1.644   0.149   2.740 -0.9496  0.3832 -2.4442
   22MOL   H13320335   1.562   0.218   2.878 -1.2321 -0.4364 -0.0809
   22MOL   H13420336   1.496   0.302   2.591 -1.7911  1.9279  0.3320
   22MOL   H13520337   1.424   0.362   2.730 -0.0752  2.9486 -2.6022
   22MOL   H13620338   1.641   0.423   2.825 -0.8751 -0.8780  0.8906
   22MOL   H13720339   1.734   0.381   2.679  0.0485  1.8942 -1.0946
   22MOL   H13820340   1.655   0.566   2.556  2.0823 -1.0126  0.1403
   22MOL   H13920341   1.510   0.587   2.656 -0.4255 -2.0760  0.0807
   22MOL   H14020342   1.812   0.633   2.696 -1.0265 -0.3873 -0.3011
   22MOL   H14120343   1.697   0.641   2.835 -3.1050  0.4959 -0.9821
   22MOL   H14220344   1.664   0.835   2.598  0.6358  2.2585  0.5604
   22MOL   H14320345   1.601   0.841   2.755 -0.7295 -0.5540  1.4273
   22MOL   H14420346   1.891   0.883   2.680  1.2730  0.1797  0.7893
   22MOL   H14520347   1.845   0.885   2.842 -1.9267 -1.7407 -0.5243
   22MOL   N14620348   1.814   1.148   2.835 -0.0109 -0.4835  0.4225
   22MOL   C14720349   1.794   1.289   2.834 -0.3034 -0.2374  0.2707
   22MOL   C14820350   1.920   1.368   2.872  0.3800  0.0827 -0.3854
   22MOL   C14920351   1.978   1.341   2.998 -0.2003 -0.8309 -0.5312
   22MOL   C15020352   2.082   1.427   3.041  0.4186  0.0304 -0.2632
   22MOL   C15120353   2.116   1.543   2.974 -0.1475  0.0999 -0.3215
   22MOL   C15220354   2.057   1.572   2.850 -0.0038  0.4411 -0.4808
   22MOL   C15320355   1.967   1.481   2.793  0.2557  0.4858 -0.4257
   22MOL   C15420356   1.905   1.505   2.659 -0.4091 -0.1737 -0.2446
   22MOL   N15520357   1.967   1.618   2.581 -0.6736  0.0049  0.6948
   22MOL   C15620358   1.976   1.621   2.447  0.1313  0.4020 -0.0539
   22MOL   O15720359   1.943   1.525   2.381  0.0937  0.2154  0.2162
   22MOL   C15820360   2.030   1.750   2.398  0.5037 -0.1551 -0.1815
   22MOL   C15920361   2.010   1.772   2.248  0.2269  0.0608 -0.7973
   22MOL   C16020362   1.867   1.820   2.218 -0.4964  0.2139 -0.2353
   22MOL   C16120363   1.828   1.807   2.066 -0.1913  0.5272 -0.5542
   22MOL   C16220364   1.683   1.855   2.043 -0.4632 -0.3806  0.1603
   22MOL   C16320365   1.642   1.879   1.897  0.0328 -1.0736 -0.2987
   22MOL   C16420366   1.492   1.899   1.871  0.7373 -0.1522 -0.0604
   22MOL   C16520367   1.429   2.038   1.922  0.1949  0.0174  0.1613
   22MOL   C16620368   1.490   2.161   1.858  0.5184  0.4471 -0.0676
   22MOL   O16720369   1.574   2.159   1.770 -0.0374 -0.3630 -0.0151
   22MOL   H16820370   1.869   1.108   2.909 -1.1025  1.0179  2.0779
   22MOL   H16920371   1.717   1.316   2.907  1.1887 -1.4192  2.3219
   22MOL   H17020372   1.763   1.325   2.736  1.3773 -0.6885 -0.4360
   22MOL   H17120373   1.940   1.260   3.058  0.9477  0.0177  1.3609
   22MOL   H17220374   2.132   1.406   3.135  0.4600  1.7224  0.1083
   22MOL   H17320375   2.173   1.615   3.030  0.0499 -0.0836 -0.2895
   22MOL   H17420376   2.087   1.666   2.805  1.9742 -0.7679 -1.7505
   22MOL   H17520377   1.800   1.530   2.675  0.1104  2.2396 -0.4006
   22MOL   H17620378   1.906   1.417   2.595 -0.1992 -0.0481 -0.4154
   22MOL   H17720379   2.025   1.688   2.625  1.0380 -0.9294 -0.0262
   22MOL   H17820380   2.134   1.736   2.429  0.5702 -0.3774 -0.5042
   22MOL   H17920381   1.989   1.836   2.451 -2.3539 -1.1545 -0.6827
   22MOL   H18020382   2.035   1.679   2.197  1.3965 -0.2627  0.3405
   22MOL   H18120383   2.086   1.841   2.211  0.5111  0.6005  0.7524
   22MOL   H18220384   1.800   1.761   2.282 -2.0722  1.8931 -0.3132
   22MOL   H18320385   1.852   1.923   2.249  0.8302  0.1986  0.5022
   22MOL   H18420386   1.907   1.853   2.008  0.4225  0.2310  0.0283
   22MOL   H18520387   1.829   1.700   2.043 -0.0086  0.2135  0.8326
   22MOL   H18620388   1.621   1.785   2.099 -1.8934  0.0011 -0.9185
   22MOL   H18720389   1.665   1.948   2.097  0.5190 -0.6363  0.9490
   22MOL   H18820390   1.662   1.786   1.844  0.0611  0.0918 -2.4247
   22MOL   H18920391   1.707   1.952   1.849 -0.9336 -0.7745 -1.1716
   22MOL   H19020392   1.478   1.899   1.763  2.3862 -0.1052 -0.2892
   22MOL   H19120393   1.434   1.822   1.922  2.2696 -1.2979 -0.0433
   22MOL   H19220394   1.457   2.052   2.026 -0.0551  0.4650  0.1718
   22MOL   H19320395   1.321   2.038   1.937  0.1259  0.0042 -0.3241
   22MOL   N19420396   1.442   2.271   1.909  0.3300 -0.1887 -0.0289
   22MOL   C19520397   1.479   2.409   1.874 -0.2855 -0.1481  0.0070
   22MOL   C19620398   1.388   2.451   1.758  0.3529  0.1245  0.3027
   22MOL   C19720399   1.252   2.463   1.778  0.3452  0.2789  0.3384
   22MOL   C19820400   1.157   2.498   1.677 -0.0877  0.5708  0.2602
   22MOL   C19920401   1.204   2.527   1.543 -0.0190  0.1874 -0.8349
   22MOL   C20020402   1.348   2.526   1.524 -0.1119 -0.0779 -0.1632
   22MOL   C20120403   1.439   2.489   1.633 -0.3474  0.2964  0.3407
   22MOL   C20220404   1.586   2.490   1.598 -0.5931  0.2939 -0.8916
   22MOL   N20320405   1.615   2.346   1.571  0.0979  0.0635  0.2685
   22MOL   C20420406   1.690   2.293   1.470 -0.3332 -0.3907 -0.6925
   22MOL   O20520407   1.755   2.360   1.389 -0.0071 -0.5830 -0.0808
   22MOL   C20620408   1.698   2.141   1.467 -0.2772 -0.0101  0.4949
   22MOL   C20720409   1.837   2.099   1.513  0.1530 -0.1970  0.2173
   22MOL   C20820410   1.848   1.945   1.522  0.0986  0.4189  0.5637
   22MOL   C20920411   1.985   1.901   1.560 -0.5878 -0.0779 -0.1751
   22MOL   C21020412   2.004   1.897   1.711  0.0369 -0.1844  0.6609
   22MOL   C21120413   2.154   1.861   1.752 -0.8984  0.1187  0.1491
   22MOL   C21220414   2.174   1.810   1.898  0.4326 -0.0279  0.1776
   22MOL   C21320415   2.313   1.755   1.933  0.0037  0.4988 -0.3181
   22MOL   C21420416   2.421   1.865   1.918  0.3829  0.0298 -0.0644
   22MOL   O21520417   2.440   1.917   1.811  0.3511 -0.3501  0.2755
   22MOL   H21620418   1.376   2.260   1.984  1.0070 -0.8997  0.4724
   22MOL   H21720419   1.467   2.480   1.955  0.1793 -0.5784  0.4523
   22MOL   H21820420   1.584   2.409   1.844 -0.4574  0.0526 -0.6064
   22MOL   H21920421   1.224   2.434   1.878  1.1465 -2.8980 -0.3066
   22MOL   H22020422   1.052   2.511   1.696 -0.3175 -1.1464  0.2592
   22MOL   H22120423   1.141   2.557   1.461 -0.0317  0.3936 -0.7497
   22MOL   H22220424   1.385   2.562   1.429  0.4087 -0.3509 -0.0667
   22MOL   H22320425   1.653   2.526   1.676 -2.0235 -1.8664  1.4191
   22MOL   H22420426   1.623   2.549   1.514  1.4644  0.6667  0.2474
   22MOL   H22520427   1.569   2.285   1.637  0.1883  0.3682  0.6100
   22MOL   H22620428   1.682   2.111   1.364  0.3214  0.3772  0.2880
   22MOL   H22720429   1.619   2.101   1.531 -0.0788 -1.9056 -0.4159
   22MOL   H22820430   1.908   2.120   1.433 -0.1185 -0.7620 -0.1763
   22MOL   H22920431   1.868   2.144   1.607  2.1249  0.2016 -0.6026
   22MOL   H23020432   1.765   1.906   1.580 -0.3890  0.6361  0.0128
   22MOL   H23120433   1.836   1.901   1.423 -1.1787 -0.7135  1.2141
   22MOL   H23220434   1.993   1.796   1.532  3.9420  0.1206 -0.0406
   22MOL   H23320435   2.059   1.956   1.501 -0.1221 -2.1099 -1.5306
   22MOL   H23420436   1.978   1.994   1.754 -0.4555 -0.4500  0.9662
   22MOL   H23520437   1.942   1.819   1.755 -0.5725 -0.1582 -0.1330
   22MOL   H23620438   2.214   1.952   1.750  0.1556 -0.3863  4.4509
   22MOL   H23720439   2.196   1.784   1.686 -1.0502  0.4327 -0.3177
   22MOL   H23820440   2.099   1.734   1.918  1.5389 -0.3250  3.6220
   22MOL   H23920441   2.148   1.894   1.962 -0.6652 -0.9148  0.9063
   22MOL   H24020442   2.336   1.720   2.033  0.0863  0.5312 -0.3252
   22MOL   H24120443   2.340   1.675   1.864 -1.8692 -1.3225  0.9920
   22MOL   N24220444   2.496   1.891   2.031  1.0217 -0.6114 -0.6944
   22MOL   C24320445   2.604   1.987   2.037 -0.6764  0.3256  0.7900
   22MOL   C24420446   2.563   2.117   2.099 -0.4190 -0.2675  0.4965
   22MOL   C24520447   2.587   2.238   2.030  0.1679  0.3382  0.2949
   22MOL   C24620448   2.574   2.368   2.086 -0.2390 -0.0694 -0.3431
   22MOL   C24720449   2.522   2.376   2.218  0.5313  0.1617  0.2761
   22MOL   C24820450   2.498   2.259   2.289  0.0083 -0.2721  0.1171
   22MOL   C24920451   2.520   2.132   2.238  0.0529  0.2401 -0.0469
   22MOL   C25020452   2.497   2.014   2.334  0.7833  0.1290 -0.2009
   22MOL   N25120453   2.617   1.924   2.357  0.4771  0.0586 -0.3108
   22MOL   C25220454   2.627   1.797   2.313  0.4943 -0.0049 -0.0716
   22MOL   O25320455   2.544   1.737   2.244 -0.2583  0.4298  0.1994
   22MOL   C25420456   2.761   1.724   2.351  0.4587 -0.0194  0.4314
   22MOL   C25520457   2.768   1.581   2.292 -0.2158  0.5900  0.1206
   22MOL   C25620458   2.893   1.505   2.331  0.2409 -0.0906 -0.2802
   22MOL   C25720459   2.890   1.359   2.279 -0.3814 -0.0455  0.0420
   22MOL   C25820460   2.991   1.267   2.341  0.0446 -0.1536 -1.0038
   22MOL   C25920461   2.976   1.119   2.306 -0.1237  0.3725  0.0993
   22MOL   C26020462   2.857   1.061   2.380  0.4536  0.2741 -0.2045
   22MOL   C26120463   2.839   0.908   2.371  0.6940  0.7316  0.1870
   22MOL   C26220464   2.704   0.873   2.433  0.6431  0.1781 -0.0228
   22MOL   O26320465   2.674   0.918   2.543  0.0651  0.1297 -0.3792
   22MOL   H26420466   2.492   1.839   2.117  0.0149  2.2807  1.0929
   22MOL   H26520467   2.683   1.949   2.102 -0.1391  0.6555  0.3404
   22MOL   H26620468   2.670   2.009   1.953  0.6343  2.0312  2.2019
   22MOL   H26720469   2.619   2.230   1.927  1.1802 -0.7898  0.6821
   22MOL   H26820470   2.590   2.450   2.018  1.5487 -1.4570 -1.6681
   22MOL   H26920471   2.508   2.472   2.265  1.1257 -0.1696  1.1456
   22MOL   H27020472   2.455   2.265   2.387 -1.3204 -1.9761 -0.3360
   22MOL   H27120473   2.421   1.946   2.296  1.3906 -0.5067 -0.2902
   22MOL   H27220474   2.459   2.049   2.430  1.3054 -1.9793  0.8204
   22MOL   H27320475   2.690   1.962   2.416 -1.7301  1.8878  1.3097
   22MOL   H27420476   2.766   1.731   2.460 -0.5974 -1.2527  0.5690
   22MOL   H27520477   2.851   1.778   2.321  0.2942  1.4065  2.3702
   22MOL   H27620478   2.753   1.590   2.184  0.4527 -1.9282 -0.2015
   22MOL   H27720479   2.680   1.528   2.328 -0.5462 -0.5425 -2.2726
   22MOL   H27820480   2.909   1.516   2.438  0.3389  0.4608 -0.3498
   22MOL   H27920481   2.989   1.544   2.298  0.1574 -0.3107 -0.7889
   22MOL   H28020482   2.794   1.320   2.310 -0.5457  0.8893  0.7580
   22MOL   H28120483   2.894   1.358   2.170  0.5536  1.1923  0.0394
   22MOL   H28220484   3.086   1.307   2.306  0.1112  1.5541  1.0170
   22MOL   H28320485   2.999   1.283   2.449  0.4179  1.9816 -1.3381
   22MOL   H28420486   3.064   1.080   2.356  0.3660 -0.8095 -1.6504
   22MOL   H28520487   2.982   1.091   2.200 -2.6351 -1.0518  0.3022
   22MOL   H28620488   2.856   1.102   2.481 -0.1743  1.9843 -0.8800
   22MOL   H28720489   2.765   1.104   2.339  0.1138  1.2671  1.5172
   22MOL   H28820490   2.836   0.886   2.264 -0.5718 -0.6971  0.5048
   22MOL   H28920491   2.921   0.858   2.424 -0.7823  0.1343  1.9407
   22MOL   N29020492   2.616   0.813   2.350 -0.2962 -0.3370  0.0379
   22MOL   C29120493   2.478   0.790   2.380  0.0715  0.1642  0.2292
   22MOL   C29220494   2.413   0.724   2.264 -0.5785 -0.4052  0.2934
   22MOL   C29320495   2.441   0.584   2.237  0.2866 -0.4176  1.1022
   22MOL   C29420496   2.372   0.513   2.138  0.2939 -0.7882  0.1649
   22MOL   C29520497   2.295   0.581   2.044  0.1969 -0.6527 -0.4347
   22MOL   C29620498   2.285   0.720   2.055  0.0957  0.1280 -0.6921
   22MOL   C29720499   2.338   0.791   2.163 -0.0611 -0.1497  0.5356
   22MOL   C29820500   2.299   0.937   2.174 -0.0487  0.7672 -0.2088
   22MOL   N29920501   2.388   1.015   2.097 -0.1692 -0.0723 -0.1408
   22MOL   C30020502   2.483   1.096   2.147 -0.1678  0.3189  0.1591
   22MOL   O30120503   2.490   1.119   2.270  0.5166 -0.3962  0.5024
   22MOL   C30220504   2.585   1.173   2.061 -0.1040 -0.9544  0.3896
   22MOL   C30320505   2.552   1.321   2.040 -0.5719 -0.6000 -0.6824
   22MOL   C30420506   2.646   1.392   1.949  0.1250 -0.7395 -0.1217
   22MOL   C30520507   2.599   1.528   1.905  0.0249  0.3242 -0.4893
   22MOL   C30620508   2.662   1.589   1.779  0.5749  0.3170 -0.3115
   22MOL   C30720509   2.812   1.620   1.787 -0.2198 -0.3410 -0.0165
   22MOL   C30820510   2.902   1.493   1.753  0.2505  0.0078  0.0122
   22MOL   C30920511   3.023   1.543   1.667 -0.3034 -0.3719  0.2285
   22MOL   C31020512   2.998   1.557   1.513 -0.4075  0.1504  0.4792
   22MOL   O31120513   2.926   1.473   1.460 -0.8020  0.2531 -0.4470
   22MOL   H31220514   2.638   0.773   2.260  1.8626  0.7300  0.0514
   22MOL   H31320515   2.477   0.716   2.460  0.2599 -0.7087 -0.5666
   22MOL   H31420516   2.441   0.884   2.422 -0.5237 -0.0800  0.2560
   22MOL   H31520517   2.516   0.535   2.297  1.9558  1.5558  0.7271
   22MOL   H31620518   2.395   0.408   2.121  1.2718 -0.6722  0.6914
   22MOL   H31720519   2.238   0.535   1.964 -2.0581 -1.2458  1.4449
   22MOL   H31820520   2.223   0.777   1.987  0.5072  1.6740  0.2063
   22MOL   H31920521   2.287   0.985   2.271 -1.3483  1.5104 -0.7206
   22MOL   H32020522   2.198   0.948   2.135 -1.1030  1.5352  2.5573
   22MOL   H32120523   2.385   1.014   1.996 -1.6611 -2.3095 -0.1194
   22MOL   H32220524   2.677   1.150   2.114 -0.2621 -0.8485  0.7167
   22MOL   H32320525   2.592   1.124   1.964 -2.4388 -1.3248  0.3672
   22MOL   H32420526   2.538   1.381   2.131  1.0121 -1.1589 -0.0512
   22MOL   H32520527   2.451   1.332   2.002 -1.2752 -2.6577  0.5131
   22MOL   H32620528   2.672   1.334   1.861  0.7464  1.1891 -1.2409
   22MOL   H32720529   2.738   1.407   2.006  0.1570  0.9854 -0.5859
   22MOL   H32820530   2.497   1.512   1.868  0.6291 -0.2216 -1.9366
   22MOL   H32920531   2.601   1.605   1.982 -0.9990 -1.7736  1.7317
   22MOL   H33020532   2.638   1.520   1.698 -2.0561  0.2720  0.4656
   22MOL   H33120533   2.607   1.679   1.755  0.2797 -0.0122 -0.8803
   22MOL   H33220534   2.838   1.671   1.880  0.3285  0.1368 -0.4240
   22MOL   H33320535   2.828   1.703   1.718  1.7237 -0.6134  0.0555
   22MOL   H33420536   2.932   1.449   1.848  0.9641 -0.4262 -0.4151
   22MOL   H33520537   2.849   1.417   1.695  1.5107  0.1044 -1.2901
   22MOL   H33620538   3.045   1.639   1.711 -0.7417  1.1578 -2.7416
   22MOL   H33720539   3.112   1.485   1.694 -0.5137 -0.1771  1.3345
   22MOL   N33820540   3.052   1.660   1.450  0.4285 -0.0619 -0.3145
   22MOL   C33920541   3.043   1.692   1.314 -0.6689 -0.4770  0.4954
   22MOL   C34020542   3.091   1.577   1.219 -0.1147 -0.2279  0.2215
   22MOL   C34120543   3.224   1.533   1.229  0.2383  0.0294 -0.5969
   22MOL   C34220544   3.280   1.427   1.152 -0.0613  0.0047 -0.0572
   22MOL   C34320545   3.204   1.367   1.056  0.2264 -0.5831  0.5993
   22MOL   C34420546   3.065   1.401   1.046  0.3544 -0.2649  0.5480
   22MOL   C34520547   3.014   1.508   1.123 -0.5190 -0.6103 -0.5054
   22MOL   C34620548   2.865   1.541   1.112 -0.2890  0.2807 -0.5225
   22MOL   N34720549   2.795   1.536   1.241  0.1681 -0.0705  0.3392
   22MOL   C34820550   2.663   1.555   1.249  0.6679 -0.2402  0.3521
   22MOL   O34920551   2.600   1.579   1.149  0.0337 -0.4685 -0.1597
   22MOL   C35020552   2.605   1.552   1.390 -0.2610 -0.1478 -0.4114
   22MOL   C35120553   2.456   1.524   1.401  0.0896 -0.3775 -0.4512
   22MOL   C35220554   2.393   1.534   1.540  0.0595  0.4072  0.1164
   22MOL   C35320555   2.240   1.513   1.520 -0.4599  0.1104 -0.9868
   22MOL   C35420556   2.162   1.500   1.656 -0.3837 -0.1206  0.3771
   22MOL   C35520557   2.181   1.364   1.725 -0.3676 -0.7684  0.6488
   22MOL   C35620558   2.079   1.351   1.844 -0.1921 -0.3340 -0.0576
   22MOL   C35720559   2.101   1.215   1.923  0.1006 -0.3153  0.0334
   22MOL   C35820560   2.030   1.098   1.861  0.1428 -0.6279  0.7329
   22MOL   O35920561   2.017   1.090   1.741 -0.2894  0.1390  0.0603
   22MOL   H36020562   3.091   1.736   1.504  0.0493  0.2404 -0.4686
   22MOL   H36120563   2.943   1.728   1.287 -0.3846 -0.1159 -0.0691
   22MOL   H36220564   3.119   1.769   1.306 -1.1291 -0.1336 -0.6958
   22MOL   H36320565   3.285   1.590   1.297 -0.9935 -0.4185  0.9061
   22MOL   H36420566   3.387   1.414   1.157 -0.1079 -0.9449 -1.1549
   22MOL   H36520567   3.245   1.294   0.987  2.3627  0.4780  0.7158
   22MOL   H36620568   3.001   1.353   0.974  0.3011 -0.0939  0.4794
   22MOL   H36720569   2.822   1.473   1.039 -1.1452  1.2476 -0.9329
   22MOL   H36820570   2.860   1.643   1.074 -3.2579  0.0404 -0.8808
   22MOL   H36920571   2.845   1.510   1.324  0.0244 -1.9134 -0.1211
   22MOL   H37020572   2.629   1.645   1.441  0.1875  0.6796 -2.1251
   22MOL   H37120573   2.670   1.485   1.446  0.0137 -1.0976 -1.8501
   22MOL   H37220574   2.433   1.424   1.363  0.6801 -0.7019  0.0291
   22MOL   H37320575   2.399   1.593   1.340 -2.2949 -1.0874  0.9209
   22MOL   H37420576   2.420   1.453   1.608  1.8577  1.3127  0.5239
   22MOL   H37520577   2.404   1.631   1.589 -2.2200  1.0409 -0.5857
   22MOL   H37620578   2.219   1.431   1.451 -1.5908  2.1755 -3.1448
   22MOL   H37720579   2.209   1.603   1.467  2.1768  1.8915  0.3802
   22MOL   H37820580   2.209   1.576   1.720 -1.3441  0.6701  0.1422
   22MOL   H37920581   2.056   1.517   1.640 -0.0649 -0.1998 -1.9452
   22MOL   H38020582   2.283   1.354   1.761  0.2045  2.2227  0.0111
   22MOL   H38120583   2.161   1.285   1.653 -2.3448  0.8200 -0.6098
   22MOL   H38220584   2.095   1.433   1.914  1.3303  1.8438 -2.8866
   22MOL   H38320585   1.977   1.357   1.806 -0.4141 -2.4863  0.1582
   22MOL   H38420586   2.057   1.229   2.022  1.7442 -0.4406  0.8001
   22MOL   H38520587   2.208   1.194   1.928  0.2860  0.6802  0.3459
   22MOL   N38620588   1.979   1.003   1.942 -0.3150 -0.3942 -1.1641
   22MOL   C38720589   1.934   0.869   1.897  0.5000  1.5351 -0.0868
   22MOL   C38820590   1.779   0.848   1.893 -0.3226  0.6594 -0.1744
   22MOL   C38920591   1.695   0.959   1.919  0.0300 -0.5488  0.8702
   22MOL   C39020592   1.553   0.945   1.922  0.4793  0.2796  0.0673
   22MOL   C39120593   1.492   0.826   1.881 -0.5744 -0.0550  1.1943
   22MOL   C39220594   1.573   0.717   1.851  0.4320 -0.0603  0.9059
   22MOL   C39320595   1.713   0.727   1.862 -0.2082  0.0330 -0.4416
   22MOL   C39420596   1.794   0.595   1.845  0.2455  0.0301 -0.2606
   22MOL   N39520597   1.778   0.489   1.940 -0.0715 -1.0379 -0.0662
   22MOL   C39620598   1.699   0.382   1.940  0.0617  0.3841 -0.0362
   22MOL   O39720599   1.625   0.350   1.854  0.8449  0.2392  0.3213
   22MOL   C39820600   1.707   0.298   2.069  0.7300 -0.4386  0.4480
   22MOL   C39920601   1.820   0.194   2.067 -0.0104 -0.1668 -0.7028
   22MOL   C40020602   1.962   0.251   2.043 -0.4118  0.0086 -0.4770
   22MOL   C40120603   2.068   0.152   2.097 -0.0520 -0.3174 -0.5986
   22MOL   C40220604   2.210   0.203   2.111 -0.6274  0.4899  0.2016
   22MOL   C40320605   2.312   0.088   2.138  0.2941  0.4543  0.3055
   22MOL   C40420606   2.455   0.145   2.169 -0.0370 -0.0228  0.9288
   22MOL   C40520607   2.569   0.036   2.164  0.1051 -0.2780 -0.6101
   22MOL   C40620608   2.664   0.042   2.280  0.0491 -0.6977 -0.4230
   22MOL   O40720609   2.776   0.098   2.266  0.3334  0.5116  0.6359
   22MOL   H40820610   1.987   1.011   2.043 -2.9085 -0.9137 -0.8798
   22MOL   H40920611   1.974   0.858   1.796  1.2656 -1.2893  0.4999
   22MOL   H41020612   1.987   0.797   1.959 -1.4421  0.6368  0.5562
   22MOL   H41120613   1.741   1.053   1.944  0.2751 -0.3197 -0.3963
   22MOL   H41220614   1.492   1.033   1.935  1.4825  1.4580 -2.8791
   22MOL   H41320615   1.387   0.813   1.859 -0.1055 -1.8708 -0.0840
   22MOL   H41420616   1.523   0.626   1.821 -0.0274 -0.1835  2.0323
   22MOL   H41520617   1.899   0.612   1.825 -0.0950  0.7149 -1.4862
   22MOL   H41620618   1.756   0.557   1.750 -0.5540  1.1973 -0.4236
   22MOL   H41720619   1.835   0.498   2.022 -0.3599 -3.2059  0.4159
   22MOL   H41820620   1.716   0.353   2.163 -1.9020  0.9262 -0.0554
   22MOL   H41920621   1.612   0.245   2.081 -0.7028  2.0437  0.3123
   22MOL   H42020622   1.800   0.124   1.986  0.3733  0.5174 -1.4043
   22MOL   H42120623   1.804   0.142   2.161 -0.5783  0.2107 -0.5842
   22MOL   H42220624   1.984   0.334   2.109  1.7308  1.0783 -2.4495
   22MOL   H42320625   1.979   0.293   1.943 -0.4954 -0.4369 -0.6793
   22MOL   H42420626   2.029   0.113   2.191 -0.6678 -0.0735 -0.7510
   22MOL   H42520627   2.073   0.067   2.029 -1.5584 -0.7454 -0.1798
   22MOL   H42620628   2.233   0.261   2.022 -0.2840  0.6096  0.3681
   22MOL   H42720629   2.204   0.276   2.192 -0.1147 -0.6553  1.2939
   22MOL   H42820630   2.325   0.028   2.049 -1.3203 -2.7348  2.1198
   22MOL   H42920631   2.280   0.011   2.209 -0.0178  1.1762  0.9522
   22MOL   H43020632   2.456   0.192   2.267  1.4025 -0.1346  0.9792
   22MOL   H43120633   2.484   0.214   2.089  1.6881 -0.0688  1.4854
   22MOL   H43220634   2.621   0.031   2.068 -0.4289 -0.9397 -0.8661
   22MOL   H43320635   2.530   7.725   2.175 -2.7159  0.7940 -0.2327
   22MOL   N43420636   2.616   7.771   2.389  0.4989 -0.0723  0.3116
   22MOL   C43520637   2.677   0.006   2.525  0.0324 -0.4327 -0.0906
   22MOL   C43620638   2.668   7.680   2.622  0.5431  0.6786 -0.2300
   22MOL   C43720639   2.780   7.590   2.655 -0.2708 -0.9212 -0.8807
   22MOL   C43820640   2.777   7.480   2.736 -0.0415 -0.2384 -0.6613
   22MOL   C43920641   2.650   7.451   2.803 -0.0285 -0.0896 -0.0312
   22MOL   C44020642   2.539   7.525   2.767  0.4184  0.0216  0.2063
   22MOL   C44120643   2.543   7.637   2.678 -0.4366 -0.4680 -0.2169
   22MOL   C44220644   2.421   7.722   2.651  0.3014  0.7256 -0.9731
   22MOL   N44320645   2.306   7.647   2.614 -0.1165  0.4426  0.3500
   22MOL   C44420646   2.269   7.637   2.487 -0.0028 -0.5581 -0.0901
   22MOL   O44520647   2.344   7.659   2.391  0.7918  0.3304  0.6694
   22MOL   C44620648   2.125   7.598   2.459  0.0103 -0.3249 -0.4503
   22MOL   C44720649   2.038   7.723   2.431  0.0377 -0.2799  0.1959
   22MOL   C44820650   2.006   0.024   2.558 -0.5667  0.4120  0.1439
   22MOL   C44920651   1.954   0.163   2.534  0.4375 -1.1014  0.1688
   22MOL   C45020652   2.041   0.266   2.463 -0.2382 -0.0662  0.2789
   22MOL   C45120653   1.977   0.401   2.446 -0.2591  0.8506 -0.5063
   22MOL   C45220654   2.070   0.493   2.375  0.2910  0.1664  0.4644
   22MOL   C45320655   2.013   0.638   2.347 -0.3387  0.8696  0.2426
   22MOL   C45420656   1.884   0.641   2.276  0.0020  1.1994  0.1202
   22MOL   O45520657   1.876   0.596   2.161  0.3547  0.1010 -0.4899
   22MOL   H45620658   2.525   7.728   2.390  0.6998 -0.5322  2.8730
   22MOL   H45720659   2.628   0.093   2.570  1.9708  1.9077 -2.3505
   22MOL   H45820660   2.783   0.029   2.517  0.0377 -0.3660  0.1498
   22MOL   H45920661   2.879   7.620   2.624  1.0333 -1.4642  2.5132
   22MOL   H46020662   2.862   7.414   2.746  0.8864  1.2550  1.7612
   22MOL   H46120663   2.636   7.356   2.852  2.6996  0.3112  1.6089
   22MOL   H46220664   2.443   7.496   2.807  1.0246  2.0155  3.2966
   22MOL   H46320665   2.429   0.034   2.614 -0.7561  0.6588 -1.3911
   22MOL   H46420666   2.392   7.751   2.752  1.9392  2.3838 -0.9565
   22MOL   H46520667   2.241   7.621   2.687  0.8330 -0.6957  0.8031
   22MOL   H46620668   2.087   7.536   2.540 -0.1054  0.3655  0.0311
   22MOL   H46720669   2.115   7.528   2.376 -0.7637 -0.0985 -0.5569
   22MOL   H46820670   1.949   7.690   2.379  1.6012 -0.3779 -2.5026
   22MOL   H46920671   2.099   7.781   2.361 -1.0498  0.7093  0.0596
   22MOL   H47020672   1.936   7.758   2.620 -0.3154 -0.8615 -0.6897
   22MOL   H47120673   2.093   0.019   2.623  1.2154  3.0678 -1.9423
   22MOL   H47220674   1.858   0.159   2.482 -0.1547  0.4760  1.1028
   22MOL   H47320675   1.926   0.201   2.632  0.4823 -1.6751  0.4045
   22MOL   H47420676   2.136   0.277   2.514 -0.3586  0.4655  0.3838
   22MOL   H47520677   2.071   0.227   2.365  0.5485 -0.0586  0.5219
   22MOL   H47620678   1.954   0.446   2.543  0.8199 -1.2508  0.7643
   22MOL   H47720679   1.877   0.397   2.403 -0.1665 -2.1777 -0.6061
   22MOL   H47820680   2.167   0.501   2.423  1.3714  2.8641 -2.0325
   22MOL   H47920681   2.111   0.458   2.281  1.5046 -1.1592  1.4806
   22MOL   H48020682   2.005   0.677   2.449  0.3744  4.2787 -0.9353
   22MOL   H48120683   2.076   0.704   2.287 -1.5391 -0.4381 -2.5360
   22MOL   N48220684   1.777   0.692   2.340 -0.4767  0.4368 -0.1126
   22MOL   C48320685   1.647   0.692   2.277 -0.7460  0.3133  0.2940
   22MOL   C48420686   1.545   0.776   2.360 -0.9324 -0.1377  0.4050
   22MOL   C48520687   1.442   0.712   2.426 -0.4803  0.3990 -0.0213
   22MOL   C48620688   1.350   0.790   2.504 -0.2305  0.1829  0.2368
   22MOL   C48720689   1.357   0.931   2.502 -0.8171 -0.0983  0.2010
   22MOL   C48820690   1.459   1.001   2.432  0.2665  0.3548  0.2902
   22MOL   C48920691   1.551   0.918   2.359  0.8960 -0.2396 -0.1793
   22MOL   C49020692   1.658   0.999   2.282 -0.2378  0.2624  0.5826
   22MOL   N49120693   1.763   1.057   2.368 -0.0981 -0.9243  0.3112
   22MOL   C49220694   1.886   1.082   2.322  0.2778  0.1558  0.4531
   22MOL   O49320695   1.926   1.054   2.207  0.3879  0.3614 -0.5011
   22MOL   C49420696   1.966   1.151   2.428  0.3466 -0.1636 -0.3707
   22MOL   C49520697   2.086   1.234   2.354 -0.6162  0.1428  0.0218
   22MOL   C49620698   2.188   1.294   2.441  0.8328 -0.0751  0.0033
   22MOL   C49720699   2.278   1.388   2.367  0.0322 -0.5335  0.5748
   22MOL   C49820700   2.386   1.450   2.460  0.5047 -0.1505 -0.2539
   22MOL   C49920701   2.341   1.544   2.577 -0.8495  0.9798  0.6885
   22MOL   C50020702   2.442   1.664   2.588 -1.0674  0.1128  0.5882
   22MOL   C50120703   2.429   1.732   2.724  0.2837  0.5243  0.0269
   22MOL   C50220704   2.498   1.865   2.728  0.4121 -0.1582  0.2076
   22MOL   O50320705   2.441   1.966   2.701  0.5136  0.1219  0.3018
   22MOL   H50420706   1.781   0.739   2.429 -2.6454  0.7038 -0.1372
   22MOL   H50520707   1.662   0.732   2.176 -0.4891 -1.5691 -0.4476
   22MOL   H50620708   1.629   0.584   2.276  2.3576 -0.2619  1.8452
   22MOL   H50720709   1.434   0.605   2.411  2.4800  0.0582  0.6647
   22MOL   H50820710   1.268   0.744   2.557  0.0318 -1.7227 -0.9622
   22MOL   H50920711   1.287   0.990   2.560  0.0880 -0.1754  1.3858
   22MOL   H51020712   1.459   1.108   2.420  1.0310  0.0189 -3.1391
   22MOL   H51120713   1.612   1.079   2.223  0.2651  0.4737  0.4711
   22MOL   H51220714   1.701   0.941   2.201  0.4216  2.0734 -0.4037
   22MOL   H51320715   1.738   1.074   2.464  1.4800  0.2653  0.5384
   22MOL   H51420716   2.007   1.075   2.494 -1.2992 -0.6406  0.1101
   22MOL   H51520717   1.905   1.217   2.489 -0.4888  0.2255 -1.6177
   22MOL   H51620718   2.033   1.307   2.293 -1.8323 -0.3181  0.5142
   22MOL   H51720719   2.139   1.161   2.294  2.7076  0.3181  2.6153
   22MOL   H51820720   2.145   1.341   2.529 -0.8633 -1.7402  0.0961
   22MOL   H51920721   2.244   1.211   2.483  2.7667  1.2884  0.2013
   22MOL   H52020722   2.338   1.337   2.291  2.6882  0.8574  1.6673
   22MOL   H52120723   2.225   1.466   2.313  0.1633 -1.5179 -1.0055
   22MOL   H52220724   2.453   1.372   2.495 -2.7097 -1.8298  2.4122
   22MOL   H52320725   2.441   1.511   2.388  0.7549 -1.2069 -0.9592
   22MOL   H52420726   2.359   1.486   2.668  0.7454  1.2400  0.5451
   22MOL   H52520727   2.241   1.587   2.574 -1.3073  0.0859  2.3582
   22MOL   H52620728   2.544   1.633   2.565 -0.9440  1.1883 -0.3608
   22MOL   H52720729   2.438   1.733   2.503 -1.5903  1.2244  1.5053
   22MOL   H52820730   2.463   1.674   2.810  0.6793 -0.1467 -0.5877
   22MOL   H52920731   2.325   1.748   2.753 -0.3398  0.6569 -2.2089
   22MOL   N53020732   2.622   1.859   2.762 -0.2708 -0.4687  0.5683
   22MOL   C53120733   2.714   1.976   2.782  0.1001 -0.1722 -0.3263
   22MOL   C53220734   2.762   2.045   2.660 -0.3875  1.1712  0.3082
   22MOL   C53320735   2.846   1.972   2.564  0.5665 -1.0930  0.0730
   22MOL   C53420736   2.907   2.033   2.454 -0.0966 -0.3638  0.4115
   22MOL   C53520737   2.861   2.161   2.417  1.2170  0.0741 -0.4291
   22MOL   C53620738   2.774   2.233   2.501  0.0152  0.2880 -0.2276
   22MOL   C53720739   2.724   2.178   2.618 -0.2127 -0.2658  0.1544
   22MOL   C53820740   2.621   2.251   2.701 -0.0773  0.4775 -0.4424
   22MOL   N53920741   2.609   2.392   2.672  0.2511 -0.5073 -0.0405
   22MOL   C54020742   2.496   2.456   2.628 -0.1051 -0.4374 -0.2214
   22MOL   O54120743   2.384   2.401   2.617 -0.0816 -0.7003  0.2175
   22MOL   C54220744   2.512   2.605   2.599 -0.4721 -0.6469 -0.1060
   22MOL   C54320745   2.382   2.686   2.629 -0.5522 -0.3770 -0.6570
   22MOL   C54420746   2.350   2.706   2.775  1.2497 -0.6301 -0.2750
   22MOL   C54520747   2.221   2.783   2.791  0.2280 -0.3853  0.3513
   22MOL   C54620748   2.178   2.813   2.937  0.0766  0.7040  0.2398
   22MOL   C54720749   2.043   2.878   2.934 -0.3115  0.6916  0.9980
   22MOL   C54820750   2.022   2.960   3.062  0.7383 -0.3932 -0.0046
   22MOL   C54920751   1.876   3.012   3.060  0.3531  0.2968  0.2289
   22MOL   C55020752   1.766   2.914   3.098 -0.2958 -0.0707  0.5114
   22MOL   O55120753   1.766   2.880   3.212  0.2290  0.2885  0.4748
   22MOL   H55220754   2.646   1.771   2.805  0.8315  0.0437  1.0215
   22MOL   H55320755   2.808   1.943   2.827 -1.0590 -1.7957  0.9658
   22MOL   H55420756   2.659   2.038   2.852 -0.4708  0.3183 -1.2018
   22MOL   H55520757   2.875   1.872   2.590 -2.7441 -1.7154  1.5641
   22MOL   H55620758   2.981   1.978   2.397 -2.9737 -2.6474 -1.2261
   22MOL   H55720759   2.876   2.216   2.325 -0.7701 -2.2132 -2.1857
   22MOL   H55820760   2.747   2.334   2.472 -0.5683  0.2972  0.3394
   22MOL   H55920761   2.660   2.266   2.802 -0.7765 -1.0922  0.0778
   22MOL   H56020762   2.527   2.196   2.696 -1.3296  2.4225  0.8891
   22MOL   H56120763   2.700   2.436   2.679 -1.3584  2.8579  0.8400
   22MOL   H56220764   2.530   2.611   2.492 -2.3911 -2.7661 -0.5799
   22MOL   H56320765   2.604   2.643   2.644 -1.1807 -0.5951  1.3528
   22MOL   H56420766   2.291   2.657   2.576 -0.6834 -1.5652  0.1825
   22MOL   H56520767   2.408   2.785   2.594  1.5447 -0.4473  0.6022
   22MOL   H56620768   2.325   2.606   2.810 -1.7660 -0.6549 -2.3008
   22MOL   H56720769   2.432   2.753   2.829  1.3478  0.3068 -1.2328
   22MOL   H56820770   2.233   2.875   2.735  2.9005 -1.2391 -0.5426
   22MOL   H56920771   2.144   2.723   2.741  0.4375  0.0833 -0.5409
   22MOL   H57020772   2.179   2.725   3.002  1.5077  1.5000  1.3413
   22MOL   H57120773   2.249   2.882   2.982  0.4001  0.5399 -0.0146
   22MOL   H57220774   1.962   2.806   2.923 -1.3709  1.9877  0.0723
   22MOL   H57320775   2.022   2.952   2.857 -2.7767 -0.1548  0.8260
   22MOL   H57420776   2.046   2.907   3.154 -0.6229  0.9764  1.1620
   22MOL   H57520777   2.078   3.053   3.052 -2.6436  1.8088  0.5799
   22MOL   H57620778   1.862   3.048   2.958  1.2790 -1.6801 -0.6301
   22MOL   H57720779   1.869   3.096   3.128 -0.7792 -0.2660  0.8227
   22MOL   N57820780   1.672   2.885   3.006 -0.5772  0.3338  0.3011
   22MOL   C57920781   1.561   2.798   3.029 -0.0503  0.8654 -0.3171
   22MOL   C58020782   1.441   2.853   2.955 -0.3813  0.3370 -0.4702
   22MOL   C58120783   1.365   2.954   3.016  0.3232 -0.2334  0.6166
   22MOL   C58220784   1.252   3.001   2.945  0.3409 -0.4990  0.1290
   22MOL   C58320785   1.222   2.965   2.814  0.5448  0.1891 -0.3566
   22MOL   C58420786   1.300   2.865   2.753 -0.1667  0.6541 -0.5780
   22MOL   C58520787   1.407   2.804   2.826 -0.2365  0.4609  0.1920
   22MOL   C58620788   1.477   2.678   2.779  0.2158  1.0907 -0.0017
   22MOL   N58720789   1.604   2.705   2.725  0.5874  0.4303  0.3757
   22MOL   C58820790   1.688   2.605   2.688  0.1320  0.2506 -0.9482
   22MOL   O58920791   1.646   2.496   2.649 -0.1896  0.3625 -0.7969
   22MOL   C59020792   1.840   2.629   2.685 -0.7947 -0.7385  0.4739
   22MOL   C59120793   1.924   2.508   2.726  0.2674  0.3593 -0.0389
   22MOL   C59220794   1.934   2.501   2.877 -0.1710 -0.6454  0.5682
   22MOL   C59320795   2.000   2.372   2.926 -0.7801  0.2248  0.2071
   22MOL   C59420796   1.998   2.352   3.080  0.1040  0.6443 -0.1405
   22MOL   C59520797   2.039   2.204   3.113 -0.1471 -0.9647  0.0068
   22MOL   C59620798   2.033   2.185   3.260  0.6530 -0.4795  0.9212
   22MOL   C59720799   2.158   2.239   3.326  0.2856 -0.1311 -0.1146
   22MOL   C59820800   2.163   2.206   3.475  0.2277 -0.1719 -0.0836
   22MOL   O59920801   2.185   2.095   3.515 -0.4766 -0.2584 -0.0122
   22MOL   H60020802   1.676   2.934   2.918 -2.2433 -0.3719 -0.1812
   22MOL   H60120803   1.540   2.783   3.135 -0.4930  2.1971 -0.2002
   22MOL   H60220804   1.596   2.701   2.995  1.3030  1.3558 -0.3376
   22MOL   H60320805   1.371   2.989   3.118  0.2843 -1.9380  1.2177
   22MOL   H60420806   1.182   3.069   2.993  0.5738 -1.3792  1.7617
   22MOL   H60520807   1.145   3.015   2.757  0.3253  0.7525  0.4402
   22MOL   H60620808   1.278   2.837   2.651 -1.4051  1.6950 -0.6047
   22MOL   H60720809   1.414   2.649   2.695 -0.1896  1.1933  0.2643
   22MOL   H60820810   1.473   2.613   2.866 -1.7738  1.9744  0.5890
   22MOL   H60920811   1.635   2.797   2.753  2.0492 -0.4333  1.7268
   22MOL   H61020812   1.860   2.722   2.738  1.3416  0.0638 -1.6729
   22MOL   H61120813   1.867   2.647   2.581 -0.0756 -1.0300  0.6060
   22MOL   H61220814   2.022   2.516   2.680  0.9294 -0.1706  1.2588
   22MOL   H61320815   1.890   2.410   2.693  0.3916 -0.3331  1.8379
   22MOL   H61420816   1.995   2.589   2.895 -0.8741  0.0516 -0.4058
   22MOL   H61520817   1.840   2.522   2.928 -0.2950  0.5838 -0.1431
   22MOL   H61620818   1.972   2.281   2.872 -1.8310  1.6835 -1.7401
   22MOL   H61720819   2.107   2.387   2.914 -1.0072  0.7152 -1.3355
   22MOL   H61820820   2.056   2.429   3.131  1.1996 -0.1595 -0.1591
   22MOL   H61920821   1.893   2.363   3.108  0.2662 -0.9450  1.1427
   22MOL   H62020822   2.141   2.185   3.078 -0.3522  0.7468 -1.6068
   22MOL   H62120823   1.974   2.127   3.074  0.5051 -1.5339  0.0274
   22MOL   H62220824   1.940   2.229   3.294  0.5735  1.0815 -1.2339
   22MOL   H62320825   2.031   2.080   3.291  2.3575 -0.5025  0.9998
   22MOL   H62420826   2.247   2.186   3.291 -2.0070 -4.1057 -0.1927
   22MOL   H62520827   2.174   2.343   3.297 -0.5908 -0.5468 -2.1772
   22MOL   N62620828   2.150   2.309   3.556  0.3788 -0.3953  0.2025
   22MOL   C62720829   2.153   2.305   3.702 -0.3183 -0.0075 -0.1730
   22MOL   C62820830   2.286   2.257   3.755 -0.9410 -0.0471 -0.6358
   22MOL   C62920831   2.400   2.334   3.739 -0.4744  0.3043  0.0820
   22MOL   C63020832   2.523   2.291   3.790 -0.2511 -0.4553 -0.1588
   22MOL   C63120833   2.530   2.176   3.867  0.3368 -0.1246  0.0548
   22MOL   C63220834   2.423   2.091   3.875 -0.0160 -0.4648  0.1204
   22MOL   C63320835   2.295   2.131   3.822  0.2510  0.1847 -0.2394
   22MOL   C63420836   2.173   2.037   3.832  0.0599  0.4015 -0.1137
   22MOL   N63520837   2.208   1.900   3.878 -0.0455 -0.2618 -1.0149
   22MOL   C63620838   2.171   1.824   3.980  0.2402 -0.1485 -0.3987
   22MOL   O63720839   2.075   1.863   4.044 -0.3273 -0.2629  0.0092
   22MOL   C63820840   2.260   1.703   4.012  0.4664 -0.3213 -0.2234
   22MOL   C63920841   2.234   1.626   4.139  0.1191  0.1077  0.2596
   22MOL   C64020842   2.305   1.491   4.144 -0.7809  0.1519  0.3345
   22MOL   C64120843   2.234   1.377   4.063  0.1440  1.4168  0.2398
   22MOL   C64220844   2.107   1.300   4.126 -0.8090  0.2863 -0.3616
   22MOL   C64320845   2.066   1.172   4.053  0.5633  0.2343  0.1756
   22MOL   C64420846   2.015   1.198   3.906 -0.2744 -0.4871  0.2395
   22MOL   C64520847   1.950   1.079   3.837  0.3046  0.3533  0.2606
   22MOL   C64620848   2.049   0.978   3.797  0.2673 -0.1246 -0.4639
   22MOL   O64720849   2.018   0.867   3.764  0.0516 -0.3362 -0.2964
   22MOL   H64820850   2.107   2.391   3.516 -0.5114 -0.2235  1.4748
   22MOL   H64920851   2.067   2.255   3.745 -1.1071 -0.2059 -1.9377
   22MOL   H65020852   2.125   2.407   3.727 -0.4370 -0.1304  0.1838
   22MOL   H65120853   2.393   2.432   3.694 -1.0077  0.0638 -0.3765
   22MOL   H65220854   2.615   2.348   3.791 -0.9146  0.6248 -0.2350
   22MOL   H65320855   2.620   2.146   3.919  1.0212  0.4419 -0.7774
   22MOL   H65420856   2.431   1.999   3.931  0.5701  0.9444  2.4558
   22MOL   H65520857   2.115   2.024   3.740  1.9819 -0.9453 -1.1724
   22MOL   H65620858   2.096   2.074   3.899  2.3086  0.3773  2.5430
   22MOL   H65720859   2.267   1.846   3.817 -1.0713 -0.7501 -1.5864
   22MOL   H65820860   2.367   1.722   4.012  1.0334 -3.2070 -0.4434
   22MOL   H65920861   2.229   1.637   3.931 -0.0023 -1.6013  0.9734
   22MOL   H66020862   2.129   1.599   4.144 -0.0508  0.8474  0.7820
   22MOL   H66120863   2.264   1.693   4.220  1.1394  2.0337 -1.6403
   22MOL   H66220864   2.407   1.497   4.107 -0.4289 -1.8934  0.8692
   22MOL   H66320865   2.307   1.469   4.251  0.6175  0.6691  0.4244
   22MOL   H66420866   2.200   1.408   3.964  1.6592  3.0563  0.2061
   22MOL   H66520867   2.304   1.302   4.028  0.0567  1.3218  0.2688
   22MOL   H66620868   2.118   1.268   4.229 -1.7437 -0.4208 -0.4755
   22MOL   H66720869   2.021   1.365   4.138 -1.7413 -1.1063  0.6434
   22MOL   H66820870   1.984   1.124   4.107 -0.4191  1.1896 -0.4362
   22MOL   H66920871   2.141   1.093   4.048  0.5512  0.2842 -0.7381
   22MOL   H67020872   1.938   1.275   3.921  0.3298  0.2982 -0.5903
   22MOL   H67120873   2.083   1.246   3.836 -0.8666 -0.7763 -0.5406
   22MOL   H67220874   1.901   1.123   3.750  1.7451 -0.9223 -1.2264
   22MOL   H67320875   1.872   1.033   3.898  1.4722  1.0114  2.2604
   22MOL   N67420876   2.177   1.017   3.776 -0.0579  0.3813 -0.6029
   22MOL   C67520877   2.276   0.922   3.722 -0.4471  0.5388 -0.7054
   22MOL   C67620878   2.285   0.923   3.566  0.0926 -0.4778  0.3645
   22MOL   C67720879   2.211   1.019   3.499  0.1681  0.2121  0.3515
   22MOL   C67820880   2.236   1.038   3.360 -0.7460  0.7719 -0.4362
   22MOL   C67920881   2.315   0.952   3.285  0.1602 -0.5392  0.0530
   22MOL   C68020882   2.388   0.858   3.356  0.1788  0.1082  0.4906
   22MOL   C68120883   2.373   0.839   3.496 -0.0589  0.3947  0.0555
   22MOL   C68220884   2.453   0.740   3.578 -0.8262 -0.2059 -0.0923
   22MOL   N68320885   2.576   0.800   3.626 -0.1869 -0.2907 -0.3871
   22MOL   C68420886   2.645   0.759   3.733 -0.5644 -0.0022 -0.5579
   22MOL   O68520887   2.600   0.676   3.813  0.4224 -0.2965  0.6095
   22MOL   C68620888   2.783   0.822   3.752  0.2848  0.3598 -0.2299
   22MOL   C68720889   2.836   0.844   3.897  0.0698 -0.0260  0.1549
   22MOL   C68820890   2.762   0.961   3.964  0.3602 -0.3835  0.1797
   22MOL   C68920891   2.797   0.985   4.107  0.0661 -0.2108  0.0584
   22MOL   C69020892   2.735   1.097   4.186  0.4276 -0.0487  0.5630
   22MOL   C69120893   2.814   1.228   4.198  0.7789 -0.6935  0.4180
   22MOL   C69220894   2.791   1.315   4.322  0.4817 -0.7863  0.3270
   22MOL   C69320895   2.662   1.399   4.291  0.8203 -0.9564 -0.0065
   22MOL   C69420896   2.674   1.541   4.341 -0.1486  0.1969  0.5693
   22MOL   O69520897   2.757   1.613   4.292 -0.1103  0.1264 -0.4906
   22MOL   H69620898   2.212   1.109   3.799 -1.4612  0.7136  0.2935
   22MOL   H69720899   2.252   0.821   3.754  0.3495 -0.1969 -2.3759
   22MOL   H69820900   2.373   0.946   3.765 -1.1031  0.5866  0.7903
   22MOL   H69920901   2.141   1.090   3.541 -3.2861 -2.5146 -0.5874
   22MOL   H70020902   2.184   1.115   3.304 -1.0597  1.3926  0.6913
   22MOL   H70120903   2.338   0.958   3.179 -1.7556 -0.4414 -0.3780
   22MOL   H70220904   2.454   0.796   3.298 -1.7324 -1.7775  0.2872
   22MOL   H70320905   2.493   0.666   3.509  0.2277 -1.7091  2.0813
   22MOL   H70420906   2.391   0.688   3.651 -0.2694 -0.9333 -0.1326
   22MOL   H70520907   2.608   0.871   3.562  0.1498  1.0536  1.2765
   22MOL   H70620908   2.772   0.923   3.710  1.4715 -0.3158 -2.2398
   22MOL   H70720909   2.851   0.759   3.694 -1.1990 -0.4579 -1.1019
   22MOL   H70820910   2.943   0.862   3.894  0.1965 -0.8978 -0.4224
   22MOL   H70920911   2.818   0.755   3.957  1.4803 -0.9874 -0.8372
   22MOL   H71020912   2.784   1.054   3.912  1.4278  0.2135  1.6380
   22MOL   H71120913   2.654   0.955   3.959  0.3545 -1.1901  1.2434
   22MOL   H71220914   2.777   0.896   4.166  0.1435  0.9305  1.8416
   22MOL   H71320915   2.906   0.997   4.108  0.2187 -1.6606  2.2212
   22MOL   H71420916   2.632   1.111   4.153  0.3231  0.1233  0.9675
   22MOL   H71520917   2.729   1.050   4.284  0.8674 -0.5282  0.3605
   22MOL   H71620918   2.803   1.290   4.109 -1.3632  0.5284  1.4856
   22MOL   H71720919   2.917   1.193   4.202  0.2343 -2.2925  0.6544
   22MOL   H71820920   2.877   1.378   4.345 -0.3193  0.6274 -0.4066
   22MOL   H71920921   2.773   1.251   4.408 -1.9080  0.5332  0.8371
   22MOL   H72020922   2.580   1.342   4.335  1.2978 -1.3146  0.4276
   22MOL   H72120923   2.641   1.412   4.185  0.9870  1.5616  0.2379
   22MOL   N72220924   2.594   1.578   4.443  0.4850  0.1013  0.7475
   22MOL   C72320925   2.584   1.718   4.502  0.4577  0.5520 -0.3086
   22MOL   C72420926   2.476   1.800   4.441 -0.2562 -0.6898 -0.0266
   22MOL   C72520927   2.493   1.841   4.309  0.5021 -0.0438 -0.0289
   22MOL   C72620928   2.398   1.924   4.242 -0.0707 -0.6681 -0.2499
   22MOL   C72720929   2.282   1.965   4.306  0.1914  0.4958 -0.1055
   22MOL   C72820930   2.272   1.928   4.443 -0.0307 -0.4381 -0.3710
   22MOL   C72920931   2.366   1.852   4.515 -0.7023  0.0561 -0.1978
   22MOL   C73020932   2.345   1.825   4.661 -0.2904 -0.2959  0.0462
   22MOL   N73120933   2.263   1.915   4.738 -0.3955 -0.1694  0.1802
   22MOL   C73220934   2.282   1.934   4.872 -0.0449  0.8031  0.9434
   22MOL   O73320935   2.384   1.914   4.940  0.1355  0.4067 -0.0777
   22MOL   C73420936   2.157   1.985   4.939 -0.6603 -0.3308 -0.5689
   22MOL   C73520937   2.133   1.915   5.074 -0.4921 -1.2429 -0.1994
   22MOL   C73620938   2.009   1.966   5.148  0.0062  0.1617  0.5516
   22MOL   C73720939   2.001   1.907   5.286  0.4378  0.7930 -0.5456
   22MOL   C73820940   1.901   1.985   5.376  0.2742 -0.1438 -0.5085
   22MOL   C73920941   1.878   1.922   5.511 -0.3520  0.4165  0.2295
   22MOL   C74020942   1.801   2.021   5.608  0.0779 -0.1168 -0.0857
   22MOL   C74120943   1.815   1.991   5.758 -0.8303  0.1445 -0.0995
   22MOL   C74220944   1.715   2.077   5.846 -0.8203 -0.1071 -0.4047
   22MOL   O74320945   1.666   2.186   5.813 -0.3769  0.2711 -0.1237
   22MOL   H74420946   2.534   1.505   4.477 -1.3894  1.5755  0.6557
   22MOL   H74520947   2.674   1.775   4.479  1.0714  0.4402  1.6823
   22MOL   H74620948   2.574   1.698   4.609 -1.2793 -0.6834 -0.6670
   22MOL   H74720949   2.576   1.794   4.257  1.2226 -0.1507  1.1967
   22MOL   H74820950   2.410   1.968   4.144  0.9327 -1.1459 -0.3494
   22MOL   H74920951   2.208   2.025   4.254  0.3317  1.3677  0.6817
   22MOL   H75020952   2.189   1.980   4.489  0.2900 -0.9170  0.7621
   22MOL   H75120953   2.442   1.809   4.708 -1.0341  1.6999  2.3566
   22MOL   H75220954   2.292   1.730   4.671  0.2169 -0.4687  1.1912
   22MOL   H75320955   2.178   1.958   4.707 -1.0208 -1.5295 -0.0395
   22MOL   H75420956   2.073   1.979   4.870 -0.5437  0.8476 -0.8176
   22MOL   H75520957   2.187   2.089   4.953  1.5559 -0.8862 -0.9265
   22MOL   H75620958   2.219   1.946   5.134  0.6029  1.6113 -3.0519
   22MOL   H75720959   2.124   1.806   5.074  3.8097 -1.7025  1.1962
   22MOL   H75820960   2.001   2.075   5.154 -1.1992  0.2534 -2.0877
   22MOL   H75920961   1.919   1.935   5.095 -1.0545  3.1103  0.5525
   22MOL   H76020962   1.972   1.802   5.284  1.1013  0.6278 -1.5029
   22MOL   H76120963   2.104   1.907   5.324  0.7845 -0.6821 -1.4418
   22MOL   H76220964   1.924   2.092   5.372 -1.9337  0.3616 -0.3294
   22MOL   H76320965   1.806   1.980   5.322 -0.7796  0.4553  1.2625
   22MOL   H76420966   1.975   1.893   5.551 -0.9693  0.7058  1.9420
   22MOL   H76520967   1.836   1.821   5.502  2.0587 -0.4281 -2.9889
   22MOL   H76620968   1.838   2.124   5.605 -1.6659  0.5105 -1.1368
   22MOL   H76720969   1.697   2.033   5.577  0.6275 -1.9326 -2.7567
   22MOL   H76820970   1.786   1.887   5.774  0.1135 -0.2779 -1.0991
   22MOL   H76920971   1.917   2.007   5.790 -0.6843  0.3589 -0.6682
   22MOL   N77020972   1.702   2.027   5.971 -0.2991  0.2541 -0.0639
   22MOL   C77120973   1.617   2.073   6.080 -0.4807 -0.4891 -0.3254
   22MOL   C77220974   1.482   1.990   6.091 -0.0039 -0.2483  0.1803
   22MOL   C77320975   1.404   1.977   5.973  0.1255 -0.3965 -0.3552
   22MOL   C77420976   1.289   1.897   5.977  0.2957 -0.1998  0.3208
   22MOL   C77520977   1.246   1.834   6.090  0.5548  0.3437 -0.2479
   22MOL   C77620978   1.315   1.854   6.208 -0.0182 -0.3608  0.6556
   22MOL   C77720979   1.440   1.927   6.213  0.0272  0.4297  0.2808
   22MOL   C77820980   1.506   1.946   6.350 -0.5346  0.3655  0.8666
   22MOL   N77920981   1.648   1.900   6.354  0.2009 -0.1983  0.1359
   22MOL   C78020982   1.724   1.900   6.464  0.4770  0.1515 -0.4140
   22MOL   O78120983   1.672   1.937   6.568 -0.0406 -0.5059  0.1326
   22MOL   C78220984   1.871   1.878   6.441 -0.3364  0.0632  0.0256
   22MOL   C78320985   1.966   1.909   6.560 -0.2224  0.4298  0.4389
   22MOL   C78420986   1.971   2.057   6.605 -0.9513  0.3462 -0.0254
   22MOL   C78520987   2.096   2.084   6.690 -0.1011 -0.7517 -0.0645
   22MOL   C78620988   2.112   2.237   6.717  0.1250  0.4208  0.7361
   22MOL   C78720989   2.249   2.258   6.785  0.0482  0.6745  0.1298
   22MOL   C78820990   2.265   2.403   6.830 -0.0555 -0.1347  0.0520
   22MOL   C78920991   2.394   2.422   6.902  0.3737  0.0369 -0.3871
   22MOL   C79020992   2.409   2.567   6.948 -0.6523 -0.8433  0.8048
   22MOL   O79120993   2.384   2.601   7.062 -0.8167 -0.1188  0.0044
   22MOL   H79220994   1.740   1.934   5.980 -0.9530  0.0206  0.3572
   22MOL   H79320995   1.677   2.060   6.170 -1.3407 -0.5354  0.2462
   22MOL   H79420996   1.606   2.179   6.054  2.8159 -0.0184 -0.0366
   22MOL   H79520997   1.435   2.026   5.881  0.9144 -0.1009  0.0618
   22MOL   H79620998   1.240   1.883   5.882 -0.6449 -1.1178  0.9389
   22MOL   H79720999   1.155   1.776   6.087  0.7219  0.0652  0.0528
   22MOL   H79821000   1.293   1.801   6.300  2.8783 -1.0731  1.0013
   22MOL   H79921001   1.444   1.887   6.417 -2.4263 -0.5125 -1.6074
   22MOL   H80021002   1.496   2.054   6.362 -1.1013  0.2236  1.6680
   22MOL   H80121003   1.692   1.863   6.270 -0.2829  1.4693 -0.8864
   22MOL   H80221004   1.896   1.941   6.355  1.0226  0.1159  0.4590
   22MOL   H80321005   1.871   1.774   6.410 -0.1569 -0.0631  0.4499
   22MOL   H80421006   2.065   1.880   6.525 -0.6916 -0.2023 -0.3594
   22MOL   H80521007   1.948   1.838   6.640 -0.6214 -0.0858 -0.1097
   22MOL   H80621008   1.881   2.082   6.660 -0.4598  0.9018  0.5296
   22MOL   H80721009   1.955   2.125   6.521  2.1124  2.3507  0.9555
   22MOL   H80821010   2.107   2.030   6.784  3.1931  1.8364  1.1503
   22MOL   H80921011   2.176   2.054   6.623 -1.7023 -0.5033 -2.1439
   22MOL   H81021012   2.111   2.293   6.624  0.1993  1.0927  1.1342
   22MOL   H81121013   2.035   2.281   6.781  1.6460  1.6081  1.8047
   22MOL   H81221014   2.327   2.227   6.715 -0.6302  0.9568 -0.7585
   22MOL   H81321015   2.257   2.190   6.870  0.6672 -0.2826 -0.6756
   22MOL   H81421016   2.187   2.416   6.906  0.5441  1.1646  0.4722
   22MOL   H81521017   2.264   2.466   6.741 -0.9381 -1.2146 -0.7274
   22MOL   H81621018   2.467   2.389   6.828  1.3042  0.2010  0.4496
   22MOL   H81721019   2.411   2.355   6.986  1.4388  0.7418 -0.0407
   22MOL   N81821020   2.476   2.651   6.858 -0.2016  0.3288 -0.4071
   22MOL   C81921021   2.494   2.793   6.882 -0.4177 -0.3324  0.2065
   22MOL   C82021022   2.409   2.882   6.786  0.1486 -0.0337  0.2460
   22MOL   C82121023   2.305   2.952   6.847 -0.0839  0.2741  0.2425
   22MOL   C82221024   2.213   3.026   6.779 -0.2402  0.1725  0.0597
   22MOL   C82321025   2.241   3.051   6.640  0.4530  0.0201  0.1294
   22MOL   C82421026   2.349   2.990   6.571  0.3618 -0.6881  0.1494
   22MOL   C82521027   2.426   2.893   6.646  0.2672  0.2723  0.4960
   22MOL   C82621028   2.532   2.814   6.560  0.7048  0.5031 -0.2844
   22MOL   N82721029   2.469   2.720   6.467 -0.0214  0.5565  0.2551
   22MOL   C82821030   2.439   2.589   6.491  0.7160 -0.6014  0.6393
   22MOL   O82921031   2.478   2.525   6.586  0.3738 -0.6361  0.1683
   22MOL   C83021032   2.342   2.518   6.398  0.0499  0.2393 -0.6157
   22MOL   C83121033   2.349   2.366   6.405 -0.0601  0.2188 -0.7708
   22MOL   C83221034   2.264   2.297   6.297  0.3082 -0.6858  0.3702
   22MOL   C83321035   2.251   2.148   6.298 -0.2388 -0.5325  0.6321
   22MOL   C83421036   2.155   2.112   6.190  0.1054  0.1163  0.1343
   22MOL   C83521037   2.149   1.969   6.169  0.7741 -0.9076 -0.7565
   22MOL   C83621038   2.072   1.942   6.038  0.1684  0.2604  0.0610
   22MOL   C83721039   2.043   1.800   6.020  0.3840 -0.2953 -0.6917
   22MOL   C83821040   1.933   1.743   6.106 -0.4396  0.0186  0.2986
   22MOL   O83921041   1.836   1.809   6.147 -0.0410  0.5458 -0.4218
   22MOL   H84021042   2.495   2.624   6.763 -1.5135 -1.0597 -0.2973
   22MOL   H84121043   2.472   2.822   6.984 -1.2391 -0.4196  0.0588
   22MOL   H84221044   2.598   2.825   6.881 -0.3537 -0.5390 -0.3871
   22MOL   H84321045   2.283   2.930   6.951  0.8097 -1.3199  0.1098
   22MOL   H84421046   2.133   3.066   6.840 -2.3204 -3.2713 -0.2108
   22MOL   H84521047   2.181   3.118   6.581 -1.5807 -1.4241  0.4825
   22MOL   H84621048   2.360   3.007   6.465  1.7042 -0.5255  0.3047
   22MOL   H84721049   2.598   2.753   6.622  1.5454  0.4096 -1.2606
   22MOL   H84821050   2.599   2.885   6.512  0.8117 -1.1036 -2.5803
   22MOL   H84921051   2.441   2.756   6.376 -0.8529 -2.6683 -0.8462
   22MOL   H85021052   2.368   2.542   6.295 -2.5366 -1.6079 -1.7797
   22MOL   H85121053   2.241   2.551   6.421  0.1778  0.3203 -0.1779
   22MOL   H85221054   2.328   2.329   6.505 -0.4161  1.7641 -0.2663
   22MOL   H85321055   2.449   2.329   6.383 -0.6216 -2.1655  0.5598
   22MOL   H85421056   2.300   2.332   6.200 -0.3766 -1.1918 -0.0752
   22MOL   H85521057   2.164   2.342   6.295  0.8012  0.4060 -0.2221
   22MOL   H85621058   2.346   2.094   6.300 -0.4588 -0.9668 -0.6335
   22MOL   H85721059   2.207   2.126   6.395 -1.8038 -0.4888 -0.0523
   22MOL   H85821060   2.054   2.144   6.213  0.0579  0.8781 -1.0964
   22MOL   H85921061   2.177   2.169   6.100 -0.4133 -0.2914 -0.2526
   22MOL   H86021062   2.091   1.922   6.248  0.8759 -0.2036 -0.2560
   22MOL   H86121063   2.240   1.910   6.177  1.4085  0.0728 -0.5209
   22MOL   H86221064   2.128   1.980   5.951  1.1650 -1.2292  0.0365
   22MOL   H86321065   1.989   2.011   6.025  0.6223  1.1002  1.4726
   22MOL   H86421066   2.006   1.783   5.919 -0.0836  1.5273 -0.8445
   22MOL   H86521067   2.135   1.743   6.036  1.2435  1.2595  0.0058
   22MOL   N86621068   1.940   1.612   6.119  0.1845  0.1091 -0.2740
   22MOL   C86721069   1.847   1.533   6.196 -0.1296 -0.6362  0.5544
   22MOL   C86821070   1.713   1.505   6.122  0.0963 -0.2932  0.5276
   22MOL   C86921071   1.611   1.600   6.123 -0.1345 -0.1426 -0.2326
   22MOL   C87021072   1.489   1.589   6.054  0.7460 -0.0006 -0.0196
   22MOL   C87121073   1.478   1.474   5.976  0.6067  0.4506 -0.3060
   22MOL   C87221074   1.575   1.375   5.966  0.2449 -0.4657  0.1643
   22MOL   C87321075   1.694   1.383   6.048 -0.7770 -0.4011 -0.6265
   22MOL   C87421076   1.790   1.260   6.056  0.3652  0.0161 -0.1696
   22MOL   N87521077   1.766   1.174   6.172 -0.2628 -0.3795 -0.5321
   22MOL   C87621078   1.704   1.060   6.155 -0.0872  0.4280  0.1190
   22MOL   O87721079   1.625   1.039   6.064 -0.1481  0.0814 -0.0890
   22MOL   C87821080   1.714   0.957   6.270  0.4234  0.7382  0.0702
   22MOL   C87921081   1.682   1.021   6.410 -0.7078  0.1542  0.1659
   22MOL   C88021082   1.685   0.917   6.519 -0.7247 -0.4380 -0.5403
   22MOL   C88121083   1.647   0.966   6.653  0.8694  0.3930  0.2382
   22MOL   C88221084   1.658   0.857   6.762  0.3946 -0.2069 -0.0601
   22MOL   C88321085   1.549   0.749   6.759  0.0078 -0.0668 -0.3783
   22MOL   C88421086   1.536   0.684   6.893 -0.4990  0.0269 -0.3492
   22MOL   C88521087   1.432   0.568   6.910  0.6982  0.2735  0.1995
   22MOL   C88621088   1.288   0.617   6.886 -0.0906 -0.0866 -0.5426
   22MOL   O88721089   1.248   0.728   6.930  0.0491 -0.0138  0.2020
   22MOL   H88821090   2.012   1.556   6.076  0.4100 -1.0494  1.5542
   22MOL   H88921091   1.896   1.444   6.238  2.6300 -1.0981 -3.3825
   22MOL   H89021092   1.814   1.584   6.287 -1.6157 -2.2514  0.9647
   22MOL   H89121093   1.622   1.682   6.192  1.0732  0.6057 -1.2872
   22MOL   H89221094   1.416   1.668   6.059  1.7794  0.9670  0.0308
   22MOL   H89321095   1.389   1.466   5.915 -0.6001  2.7565  1.0777
   22MOL   H89421096   1.551   1.294   5.899 -0.7982  0.5084 -0.6602
   22MOL   H89521097   1.892   1.299   6.066  0.3709 -0.7184  3.2000
   22MOL   H89621098   1.792   1.208   5.960 -0.2793  0.1435 -0.2518
   22MOL   H89721099   1.822   1.193   6.254 -0.0398  0.5718 -0.8920
   22MOL   H89821100   1.802   0.895   6.253  1.7430  2.6490 -0.2638
   22MOL   H89921101   1.638   0.883   6.243  2.5521 -1.2183 -0.6505
   22MOL   H90021102   1.585   1.070   6.413 -0.8699 -0.2204  1.3217
   22MOL   H90121103   1.752   1.099   6.441  0.2714 -0.9966  0.9196
   22MOL   H90221104   1.628   0.828   6.492 -0.2874 -0.9922  0.3273
   22MOL   H90321105   1.788   0.884   6.528 -0.6115  0.2067  0.5162
   22MOL   H90421106   1.712   1.050   6.678 -1.1907  2.2970 -0.6796
   22MOL   H90521107   1.545   1.005   6.653 -0.2019 -2.2798  0.4169
   22MOL   H90621108   1.757   0.812   6.761  0.6177  0.2817 -0.1084
   22MOL   H90721109   1.637   0.925   6.845  0.5041 -2.2062  1.6579
   22MOL   H90821110   1.579   0.683   6.678  2.5001  1.3131 -0.6172
   22MOL   H90921111   1.461   0.801   6.721 -0.4876 -0.0586  0.7394
   22MOL   H91021112   1.632   0.634   6.906  0.0001  0.7571 -1.1737
   22MOL   H91121113   1.518   0.764   6.964  0.9647 -0.7602  0.9381
   22MOL   H91221114   1.451   0.492   6.834  0.1923  0.4618 -0.1200
   22MOL   H91321115   1.435   0.520   7.007 -0.6392 -0.4320 -0.0977
   22MOL   N91421116   1.202   0.529   6.839  0.2670 -0.4902 -0.2189
   22MOL   C91521117   1.062   0.533   6.870  0.3221  0.4395 -0.4145
   22MOL   C91621118   1.029   0.457   6.997  0.0795 -0.3998  0.2424
   22MOL   C91721119   1.124   0.419   7.091  0.0453  0.6769  0.4335
   22MOL   C91821120   1.087   0.346   7.209  0.1307  0.3293 -0.1970
   22MOL   C91921121   0.957   0.317   7.235 -0.2410 -0.0589  0.4120
   22MOL   C92021122   0.857   0.360   7.147 -0.5807  0.0643 -0.0332
   22MOL   C92121123   0.890   0.437   7.031  0.2996  0.4599 -0.2051
   22MOL   C92221124   0.778   0.491   6.945  0.3065  0.4071  0.5048
   22MOL   N92321125   0.740   0.629   6.961 -0.2184 -0.1396 -0.3085
   22MOL   C92421126   0.677   0.714   6.883 -0.1218  0.1159 -0.6792
   22MOL   O92521127   0.629   0.682   6.774 -0.3796 -0.2887 -0.3679
   22MOL   C92621128   0.676   0.862   6.929 -0.2565  0.3448  0.2514
   22MOL   C92721129   0.532   0.918   6.923  0.2505  0.4779 -0.0132
   22MOL   C92821130   0.512   1.052   6.991 -0.2121  0.5303 -0.0693
   22MOL   C92921131   0.507   1.048   7.141 -0.1171  0.5334 -0.5840
   22MOL   C93021132   0.503   1.190   7.196 -0.4031  0.1957 -0.3612
   22MOL   C93121133   0.453   1.196   7.342 -0.6618  0.2234 -0.0140
   22MOL   C93221134   0.531   1.102   7.441 -0.0583 -0.6403 -0.4555
   22MOL   C93321135   0.687   1.107   7.427  0.7206 -0.7778 -0.5715
   22MOL   C93421136   0.746   1.244   7.461  0.0416  0.4374 -0.7919
   22MOL   O93521137   0.710   1.310   7.556  0.0586  0.1312 -0.4807
   22MOL   H93621138   1.239   0.441   6.806  0.9935 -0.7893  1.3828
   22MOL   H93721139   1.032   0.637   6.885  1.4738  0.9987 -1.8877
   22MOL   H93821140   1.015   0.508   6.775  0.2243  1.9421 -0.7753
   22MOL   H93921141   1.228   0.447   7.080 -0.0620  0.2318 -1.9874
   22MOL   H94021142   1.158   0.306   7.281 -0.5031 -0.3953  0.0329
   22MOL   H94121143   0.928   0.268   7.327 -1.6601 -0.9997 -0.5308
   22MOL   H94221144   0.754   0.339   7.171 -0.7131 -0.0379 -0.6714
   22MOL   H94321145   0.694   0.426   6.968 -0.1011  0.7786  0.0600
   22MOL   H94421146   0.811   0.490   6.841  0.5945  0.7975  0.5885
   22MOL   H94521147   0.772   0.669   7.048 -3.1037 -2.1951  1.8057
   22MOL   H94621148   0.745   0.916   6.865  1.8759 -2.3230  0.1804
   22MOL   H94721149   0.714   0.867   7.031 -0.9795 -0.0101  0.5412
   22MOL   H94821150   0.474   0.838   6.969 -0.9377  2.2552  1.6660
   22MOL   H94921151   0.512   0.939   6.817  0.4827  1.8255  0.2092
   22MOL   H95021152   0.592   1.113   6.950 -1.1286  2.0334  0.3292
   22MOL   H95121153   0.416   1.096   6.966 -0.7414 -0.6676 -0.1772
   22MOL   H95221154   0.409   1.013   7.172  0.5590 -1.7854 -0.9934
   22MOL   H95321155   0.594   0.998   7.181 -0.5996  1.7895  2.1291
   22MOL   H95421156   0.439   1.257   7.138  0.1293  2.5713  1.7279
   22MOL   H95521157   0.606   1.221   7.182 -0.2954 -0.5945 -1.4251
   22MOL   H95621158   0.459   1.298   7.380  1.7984 -0.3612  1.2672
   22MOL   H95721159   0.346   1.181   7.350 -0.7535  1.2345  0.8244
   22MOL   H95821160   0.490   1.004   7.419  3.3313 -2.1210 -0.4510
   22MOL   H95921161   0.497   1.118   7.544 -0.6448 -2.1493 -0.4132
   22MOL   H96021162   0.700   1.088   7.321  3.9176  1.5012 -0.6572
   22MOL   H96121163   0.735   1.042   7.501  0.4983  0.0523  0.3223
   22MOL   H96221164   0.831   1.276   7.401  1.0443 -0.0480  0.3370
   23MOL     N121165   7.504   4.944   7.365  0.1702 -0.3143  0.1511
   23MOL     C221166   7.363   4.904   7.364 -0.1385 -0.2385 -0.3373
   23MOL     C321167   7.292   4.942   7.489 -0.3566 -0.4522  0.0036
   23MOL     C421168   7.269   4.847   7.585  0.4975  1.3758  0.3073
   23MOL     C521169   7.210   4.882   7.707  0.0894 -0.2316  0.4647
   23MOL     C621170   7.182   5.021   7.731  0.0399 -0.2674 -0.4443
   23MOL     C721171   7.196   5.116   7.636 -0.3524 -0.2740  0.0609
   23MOL     C821172   7.260   5.083   7.514  0.3973 -0.0252 -0.1957
   23MOL     C921173   7.277   5.194   7.408 -0.0679 -0.3615  0.2926
   23MOL    N1021174   7.318   5.324   7.476 -0.2491 -0.3282 -0.6579
   23MOL    C1121175   7.278   5.448   7.452  0.6024  0.3869 -0.2851
   23MOL    O1221176   7.194   5.475   7.367 -0.0796 -0.0563 -0.0523
   23MOL    C1321177   7.331   5.557   7.546 -0.2744 -0.3956 -0.6115
   23MOL    C1421178   7.255   5.690   7.553  0.1472 -0.6915 -0.5182
   23MOL    C1521179   7.141   5.695   7.656 -0.1449 -0.3725 -0.1894
   23MOL    C1621180   7.090   5.840   7.675 -0.7043  0.2379  0.5937
   23MOL    C1721181   7.169   5.925   7.771  0.2512  0.0307 -0.3381
   23MOL    C1821182   7.127   6.066   0.002 -0.0742  0.0359  0.6099
   23MOL    C1921183   7.214   6.140   0.115 -0.1961 -0.4837  0.4775
   23MOL    C2021184   7.369   6.143   0.121 -0.5430  0.3033  0.0502
   23MOL    C2121185   7.437   6.021   0.167 -0.1124  0.8968  0.2212
   23MOL    O2221186   7.479   5.939   0.085  0.5885  0.0731 -0.4945
   23MOL    H2321187   7.566   4.866   7.378  1.1534  0.4076 -0.1574
   23MOL    H2421188   7.311   4.962   7.289  0.2474 -0.6083 -0.8934
   23MOL    H2521189   7.363   4.801   7.330 -0.9227 -0.1817 -0.5020
   23MOL    H2621190   7.292   4.741   7.582  1.6257  1.6444 -1.5505
   23MOL    H2721191   7.195   4.807   7.783 -1.1402  0.6260  1.0888
   23MOL    H2821192   7.152   5.057   0.038  0.3124  0.2786 -0.5643
   23MOL    H2921193   7.167   5.218   7.657  1.5237  0.6233 -1.5632
   23MOL    H3021194   7.180   5.211   7.363 -0.7591 -0.6200  1.6445
   23MOL    H3121195   7.346   5.167   7.328 -0.1480  0.2188  0.0306
   23MOL    H3221196   7.380   5.297   7.551  0.0581 -1.2211 -1.2402
   23MOL    H3321197   7.436   5.566   7.520  0.0283 -0.2093  0.6380
   23MOL    H3421198   7.327   5.506   7.643  1.5344  1.6433  0.5747
   23MOL    H3521199   7.214   5.718   7.456  1.6042  0.3993 -0.8429
   23MOL    H3621200   7.335   5.763   7.570  0.6886 -1.3544 -0.1957
   23MOL    H3721201   7.065   5.635   7.606 -0.4770  1.0881 -1.4551
   23MOL    H3821202   7.165   5.641   7.748  1.8158 -2.4186 -1.8206
   23MOL    H3921203   7.078   5.889   7.578  2.9073 -0.8445 -0.4691
   23MOL    H4021204   6.992   5.818   7.718 -1.2201  1.6900  0.2057
   23MOL    H4121205   7.182   5.883   0.081  2.2509 -0.4784 -0.7795
   23MOL    H4221206   7.274   5.936   7.741  0.6805 -1.1662  0.7000
   23MOL    H4321207   7.022   6.059   0.033  0.0724 -3.2439  0.5473
   23MOL    H4421208   7.136   6.133   7.707  1.6253 -1.2033 -0.1981
   23MOL    H4521209   7.182   6.244   0.124 -3.3110 -1.4199  1.1070
   23MOL    H4621210   7.179   6.098   0.210 -2.1361  0.1784  0.0701
   23MOL    H4721211   7.405   6.224   0.184 -1.6725  1.8957 -1.2909
   23MOL    H4821212   7.396   6.155   0.016  0.7518  1.5774  0.5163
   23MOL    H4921213   7.518   5.018   7.432 -0.5612 -1.3994  1.5244
   23MOL    N5021214   7.460   5.999   0.297 -0.9174  0.6555  0.1029
   23MOL    C5121215   7.538   5.887   0.363 -0.2856  0.3860 -0.1523
   23MOL    C5221216   7.520   5.875   0.514 -0.1786 -0.2245 -0.2356
   23MOL    C5321217   7.458   5.976   0.586 -0.2039 -1.0195  0.0369
   23MOL    C5421218   7.455   5.979   0.728 -0.1536  0.5845  0.8522
   23MOL    C5521219   7.515   5.871   0.794  0.3118 -0.8746  0.5126
   23MOL    C5621220   7.572   5.766   0.722  0.6983  0.4020 -0.4303
   23MOL    C5721221   7.587   5.766   0.582 -0.1922 -0.3150 -0.0044
   23MOL    C5821222   7.669   5.659   0.510 -0.2722  0.2880 -0.5927
   23MOL    N5921223   7.684   5.541   0.591 -0.5162  0.8805 -0.1464
   23MOL    C6021224   0.009   5.474   0.610  0.5206  0.7565  0.5222
   23MOL    O6121225   0.115   5.503   0.558 -0.5667 -0.0227  0.0059
   23MOL    C6221226   7.778   5.345   0.686 -0.3933 -0.4580 -0.1722
   23MOL    C6321227   0.019   5.219   0.601 -0.0548 -0.6564 -0.5720
   23MOL    C6421228   7.704   5.169   0.496 -0.0941 -0.2279  0.2101
   23MOL    C6521229   7.717   5.016   0.457 -0.4847  0.0626 -0.2830
   23MOL    C6621230   7.596   4.950   0.378 -0.0210  0.3791  0.4919
   23MOL    C6721231   7.584   4.986   0.231  0.2615  0.8707 -0.3444
   23MOL    C6821232   7.488   4.900   0.142  0.4635  0.0932  0.0898
   23MOL    C6921233   7.543   4.753   0.117 -0.5324 -0.3732  0.8932
   23MOL    C7021234   7.447   4.647   0.167  0.1334  0.1003  0.3645
   23MOL    O7121235   7.331   4.646   0.131  0.3041 -0.9832 -0.3279
   23MOL    H7221236   7.431   6.065   0.368 -1.5909  0.1317  0.3251
   23MOL    H7321237   7.645   5.898   0.345 -0.4077  0.7554 -0.7119
   23MOL    H7421238   7.500   5.798   0.313  0.6076  1.6344 -3.1919
   23MOL    H7521239   7.405   6.056   0.535  1.0243 -0.3797 -0.2618
   23MOL    H7621240   7.395   6.056   0.774 -0.1979  0.4413  1.0345
   23MOL    H7721241   7.515   5.864   0.902  1.4627  1.0710  0.6629
   23MOL    H7821242   7.616   5.688   0.783 -2.7427  0.0771  1.7481
   23MOL    H7921243   7.761   5.691   0.462  0.1582  0.8559  0.6075
   23MOL    H8021244   7.598   5.632   0.431  2.1989  0.7406 -3.0479
   23MOL    H8121245   7.605   5.496   0.636  0.1996  1.7278  2.0060
   23MOL    H8221246   7.678   5.343   0.729 -1.4193 -1.7178 -2.4752
   23MOL    H8321247   0.053   5.353   0.773 -1.6503 -0.0736  0.7528
   23MOL    H8421248   0.017   5.145   0.680 -2.6358 -0.7645 -0.6913
   23MOL    H8521249   0.123   5.214   0.567  0.7788  1.4130  1.5228
   23MOL    H8621250   7.601   5.187   0.527  0.1807  1.0291  0.4162
   23MOL    H8721251   7.720   5.234   0.410 -1.8185  0.1875  0.1732
   23MOL    H8821252   0.019   5.005   0.400 -1.3600  1.1949 -1.9658
   23MOL    H8921253   7.726   4.958   0.549  0.6778  1.6050  0.6029
   23MOL    H9021254   7.613   4.842   0.379 -0.0053  0.3591 -0.6464
   23MOL    H9121255   7.502   4.966   0.429 -0.8307 -1.9896 -0.1888
   23MOL    H9221256   7.683   4.986   0.187  0.9996  1.8457  1.2947
   23MOL    H9321257   7.555   5.090   0.220 -1.7913  0.5894  1.9125
   23MOL    H9421258   7.484   4.941   0.041  3.3537 -0.1356 -0.1770
   23MOL    H9521259   7.392   4.901   0.194  0.4308  0.3247  0.0278
   23MOL    H9621260   7.632   4.746   0.181 -1.0564 -0.2788  1.6376
   23MOL    H9721261   7.573   4.730   0.015  0.7205 -1.2066  1.4394
   23MOL    N9821262   7.498   4.553   0.249  0.2794  0.4094  0.0960
   23MOL    C9921263   7.410   4.436   0.295 -0.2116  0.4450 -0.5017
   23MOL   C10021264   7.400   4.329   0.191  0.0533  0.0586 -0.2248
   23MOL   C10121265   7.523   4.285   0.139 -0.1062  0.0926  0.4944
   23MOL   C10221266   7.534   4.181   0.042 -0.1705  0.1520 -0.1012
   23MOL   C10321267   7.409   4.124   7.790 -0.2315  0.0121 -0.2294
   23MOL   C10421268   7.287   4.176   0.043  0.0956  0.1303  0.6969
   23MOL   C10521269   7.276   4.282   0.139  0.8059 -0.3278  0.3836
   23MOL   C10621270   7.137   4.334   0.182 -0.1070  0.7205  0.3581
   23MOL   N10721271   7.110   4.476   0.172 -0.3650  0.6079  0.1267
   23MOL   C10821272   7.035   4.541   0.265  0.8241 -0.2393  0.0661
   23MOL   O10921273   6.959   4.488   0.348 -0.1476 -0.5620 -0.2302
   23MOL   C11021274   7.036   4.703   0.258 -0.0662  0.6292 -0.3498
   23MOL   C11121275   7.095   4.771   0.382  0.5480 -0.3330 -0.5933
   23MOL   C11221276   7.047   4.915   0.400 -0.2897  0.2813 -0.0579
   23MOL   C11321277   7.127   4.978   0.518 -0.0596 -0.2100 -0.3158
   23MOL   C11421278   7.082   4.930   0.660  0.2763 -0.3892  0.0582
   23MOL   C11521279   7.128   5.021   0.775 -0.1486  0.1935  0.3188
   23MOL   C11621280   7.279   5.046   0.791 -0.3046  0.0412  0.3918
   23MOL   C11721281   7.371   4.917   0.818 -0.7817 -0.3736 -0.0894
   23MOL   C11821282   7.522   4.952   0.831  0.1215  0.1815  0.5812
   23MOL   O11921283   7.581   5.030   0.756 -0.2661 -0.0683 -0.7444
   23MOL   H12021284   7.594   4.552   0.278 -0.1929  2.3886  1.8184
   23MOL   H12121285   7.465   4.384   0.373  1.9623  0.8547 -1.6937
   23MOL   H12221286   7.321   4.476   0.342 -1.3180 -1.3000 -1.0554
   23MOL   H12321287   7.611   4.328   0.183  1.0277 -0.9275 -0.7477
   23MOL   H12421288   7.626   4.142   0.003 -0.1439 -0.8937  0.9739
   23MOL   H12521289   7.400   4.052   7.710 -0.8863 -0.3314  0.1470
   23MOL   H12621290   7.202   4.115   0.015  0.4788 -1.1925  2.3572
   23MOL   H12721291   7.130   4.296   0.284  1.0458 -0.5771 -0.0317
   23MOL   H12821292   7.065   4.298   0.107 -1.4846  2.1576  0.9572
   23MOL   H12921293   7.175   4.530   0.116  0.3626 -2.0215 -1.6680
   23MOL   H13021294   6.936   4.739   0.233 -0.3686  1.8929  2.3957
   23MOL   H13121295   7.090   4.739   0.171 -0.5008 -0.2677 -0.9924
   23MOL   H13221296   7.201   4.754   0.396  0.0487 -3.1081  0.2321
   23MOL   H13321297   7.050   4.713   0.463 -2.2122 -1.2878 -2.7108
   23MOL   H13421298   7.066   4.977   0.312  2.0580  0.3419  0.4470
   23MOL   H13521299   6.939   4.915   0.411 -0.2590  1.3735  0.3281
   23MOL   H13621300   7.235   4.965   0.515 -0.0693 -1.3274  2.6938
   23MOL   H13721301   7.095   5.082   0.521 -1.5308 -0.7111  2.1040
   23MOL   H13821302   6.974   4.924   0.667  0.3586 -1.1455  0.7485
   23MOL   H13921303   7.121   4.828   0.659  1.7933  0.1751 -1.3137
   23MOL   H14021304   7.090   4.984   0.869 -0.0158 -0.9203 -0.0646
   23MOL   H14121305   7.088   5.120   0.754 -0.8101 -0.3505 -1.0310
   23MOL   H14221306   7.313   5.102   0.704 -0.1815 -0.3841  0.1679
   23MOL   H14321307   7.284   5.116   0.875 -1.0579 -1.9703  2.1517
   23MOL   H14421308   7.373   4.843   0.738 -0.2469  1.5879 -1.9370
   23MOL   H14521309   7.336   4.860   0.905  2.2729 -0.2920  1.2619
   23MOL   N14621310   7.587   4.895   0.933 -0.1285 -0.0094  0.1868
   23MOL   C14721311   7.715   4.916   0.986  0.4150 -0.0878  0.0120
   23MOL   C14821312   7.709   4.980   1.124 -1.0161 -0.1293  0.5001
   23MOL   C14921313   7.711   4.908   1.243 -0.7416  0.5273 -0.1913
   23MOL   C15021314   7.720   4.969   1.371 -0.2734 -0.3311  0.2957
   23MOL   C15121315   7.739   5.108   1.378 -0.3189 -0.0512 -0.0880
   23MOL   C15221316   7.742   5.182   1.261 -1.0357 -0.0843  0.0203
   23MOL   C15321317   7.726   5.120   1.134 -1.1298 -0.5065  0.1086
   23MOL   C15421318   7.731   5.207   1.013 -0.2804 -0.1244  0.6015
   23MOL   N15521319   7.693   5.345   1.032  0.1036  0.2522 -0.2954
   23MOL   C15621320   7.766   5.458   1.027 -0.5198  0.0640 -1.3203
   23MOL   O15721321   0.096   5.455   1.016  0.3596 -0.2317 -0.2823
   23MOL   C15821322   7.689   5.595   1.050  0.2652 -0.3194  0.7229
   23MOL   C15921323   7.674   5.612   1.202 -0.2512 -0.4992  0.7591
   23MOL   C16021324   7.642   5.754   1.248  0.4407 -0.1018 -0.0516
   23MOL   C16121325   7.501   5.801   1.202 -0.1011  0.6456  0.9212
   23MOL   C16221326   7.471   5.945   1.258 -0.0520 -0.8295  0.1753
   23MOL   C16321327   7.323   5.981   1.282  0.2414 -0.4742 -0.1104
   23MOL   C16421328   7.296   6.130   1.319  0.0984  0.2080  0.5009
   23MOL   C16521329   7.156   6.161   1.346  0.2711  0.0744 -0.0072
   23MOL   C16621330   7.111   6.120   1.487 -1.1027  0.5873 -0.3055
   23MOL   O16721331   7.065   6.013   1.512  0.1955  0.7567  0.6045
   23MOL   H16821332   7.535   4.819   0.976  0.4073 -0.8440 -0.6318
   23MOL   H16921333   7.766   4.968   0.905 -1.5795  0.8377 -0.6736
   23MOL   H17021334   7.760   4.817   0.999 -1.8344 -0.9209  1.5962
   23MOL   H17121335   7.707   4.801   1.229 -0.8071  0.3949  0.7861
   23MOL   H17221336   7.706   4.912   1.462 -0.1136 -0.2970  0.3416
   23MOL   H17321337   7.738   5.151   1.477  2.6752  1.1580 -0.5178
   23MOL   H17421338   7.752   5.289   1.267 -0.0699 -0.2672  2.0903
   23MOL   H17521339   7.676   5.178   0.923 -1.1554  1.7369  0.5209
   23MOL   H17621340   0.047   5.214   0.986  0.1477  1.2043  2.5479
   23MOL   H17721341   7.596   5.349   1.059 -0.0210 -1.2388 -0.4699
   23MOL   H17821342   7.603   5.624   0.990  0.5857  0.7085  0.7412
   23MOL   H17921343   7.759   5.670   1.011 -1.3300  0.7908 -0.0675
   23MOL   H18021344   7.766   5.577   1.249  1.5860  2.4443 -0.4906
   23MOL   H18121345   7.590   5.549   1.231 -1.3695  0.1800 -0.9578
   23MOL   H18221346   7.635   5.766   1.356 -2.2807 -0.2690 -0.1797
   23MOL   H18321347   7.725   5.818   1.220  1.1163 -0.2431  1.5507
   23MOL   H18421348   7.492   5.807   1.093  1.1493 -0.2849  0.7675
   23MOL   H18521349   7.425   5.727   1.226  1.3323 -2.3733 -3.1933
   23MOL   H18621350   7.535   5.974   1.341 -0.6203  2.2437 -0.3903
   23MOL   H18721351   7.510   6.013   1.182  0.3336  0.4409  1.4801
   23MOL   H18821352   7.264   5.909   1.338  2.1206 -1.7861  0.2317
   23MOL   H18921353   7.271   5.977   1.187 -1.2518  0.7927  0.6357
   23MOL   H19021354   7.358   6.150   1.407  1.8743  1.8783 -1.0790
   23MOL   H19121355   7.331   6.197   1.241  0.1914 -0.9959 -0.5002
   23MOL   H19221356   7.090   6.103   1.282 -0.3898  0.9389 -0.1139
   23MOL   H19321357   7.128   6.265   1.328  0.3912 -0.2034 -1.9693
   23MOL   N19421358   7.126   6.210   1.587  0.1554  0.6000  0.0641
   23MOL   C19521359   7.084   6.202   1.728  0.0823 -0.4660  0.2333
   23MOL   C19621360   6.940   6.249   1.746 -0.6264 -0.0547  1.0804
   23MOL   C19721361   6.909   6.384   1.721  0.0110  0.2832 -0.3843
   23MOL   C19821362   6.783   6.435   1.741  0.1432 -0.1649  0.5249
   23MOL   C19921363   6.690   6.349   1.797  0.5743 -0.0526 -1.2650
   23MOL   C20021364   6.712   6.214   1.834  0.2651  0.5846 -0.2378
   23MOL   C20121365   6.837   6.163   1.805 -1.0858 -0.3223  0.2289
   23MOL   C20221366   6.869   6.021   1.841 -0.3755  0.4984 -0.3853
   23MOL   N20321367   6.907   5.943   1.727 -0.1680 -0.3947 -0.3510
   23MOL   C20421368   6.905   5.807   1.716  0.3565 -0.1584  0.3863
   23MOL   O20521369   6.920   5.733   1.811  0.1343  0.6122 -0.6267
   23MOL   C20621370   6.879   5.745   1.582  0.0910 -0.3165 -0.4167
   23MOL   C20721371   6.963   5.614   1.570 -0.5442  0.4751 -0.2366
   23MOL   C20821372   6.999   5.582   1.427  0.1382 -0.7005  0.4832
   23MOL   C20921373   7.105   5.670   1.361 -0.7001  0.4750 -0.2430
   23MOL   C21021374   7.108   5.668   1.207 -0.0632 -0.0784  0.2689
   23MOL   C21121375   7.158   5.531   1.143 -0.0037  0.7588  0.4513
   23MOL   C21221376   7.214   5.560   1.009 -0.4393  0.0415  0.6391
   23MOL   C21321377   7.266   5.437   0.927 -0.0581  0.3459  0.3147
   23MOL   C21421378   7.342   5.483   0.808 -0.7192  0.1746 -0.3607
   23MOL   O21521379   7.467   5.471   0.806 -0.1957 -0.1834  0.5613
   23MOL   H21621380   7.183   6.290   1.562  0.9294  0.3864  1.1169
   23MOL   H21721381   7.102   6.102   1.768  0.2611 -0.4019  0.3149
   23MOL   H21821382   7.142   6.266   1.795 -2.4120  0.3409  1.6692
   23MOL   H21921383   6.993   6.442   1.686  3.0320 -2.6859  1.5747
   23MOL   H22021384   6.758   6.538   1.717 -2.5443 -1.0427 -0.6767
   23MOL   H22121385   6.594   6.393   1.822  1.9325  2.3328 -0.1147
   23MOL   H22221386   6.637   6.158   1.889  1.4197 -1.1281 -0.3648
   23MOL   H22321387   6.777   5.974   1.876  1.4347 -1.5125  1.8589
   23MOL   H22421388   6.933   6.015   1.929 -2.3287  1.9647  1.2019
   23MOL   H22521389   6.920   5.996   1.643 -0.8275  0.4941  0.0995
   23MOL   H22621390   6.910   5.819   1.508  0.5802 -0.8791 -0.7791
   23MOL   H22721391   6.770   5.738   1.586 -0.0889  2.0138 -0.3635
   23MOL   H22821392   7.057   5.631   1.622 -0.7635 -0.2845  0.4144
   23MOL   H22921393   6.907   5.528   1.607 -1.0826  0.9320  0.0213
   23MOL   H23021394   7.031   5.478   1.416  0.5462 -0.6831  1.4400
   23MOL   H23121395   6.901   5.588   1.379  0.4389  2.9784  0.1968
   23MOL   H23221396   7.083   5.775   1.383  1.4686  0.5304  1.7694
   23MOL   H23321397   7.202   5.671   1.411 -0.8482 -0.8957  0.0899
   23MOL   H23421398   7.007   5.689   1.173  0.4336  2.7517  0.4724
   23MOL   H23521399   7.157   5.761   1.178  1.1815 -0.4603  1.0762
   23MOL   H23621400   7.095   5.442   1.140  1.5323 -0.3720  1.3156
   23MOL   H23721401   7.243   5.501   1.203  0.0474 -0.3844 -0.1744
   23MOL   H23821402   7.294   5.633   1.018  1.4170 -1.6823 -1.4335
   23MOL   H23921403   7.129   5.611   0.962  1.4159  0.9005 -1.8984
   23MOL   H24021404   7.327   5.372   0.991 -1.0772 -1.5758 -0.6237
   23MOL   H24121405   7.183   5.373   0.898  0.4118  0.4033 -1.2022
   23MOL   N24221406   7.271   5.517   0.706 -0.1160  0.0611  0.0246
   23MOL   C24321407   7.317   5.560   0.579  0.5710 -0.1909  0.5715
   23MOL   C24421408   7.298   5.460   0.468 -0.3602  0.2153 -0.1719
   23MOL   C24521409   7.314   5.324   0.499 -0.1425 -0.2002  0.5144
   23MOL   C24621410   7.330   5.239   0.389  0.0753  0.7242  0.5039
   23MOL   C24721411   7.325   5.282   0.253 -0.1060  0.1312  0.4626
   23MOL   C24821412   7.302   5.419   0.228  0.3849 -0.5094 -1.1913
   23MOL   C24921413   7.289   5.512   0.333 -0.7421  0.4691  0.1251
   23MOL   C25021414   7.265   5.654   0.294 -0.1027  0.3918 -0.6672
   23MOL   N25121415   7.122   5.684   0.293 -0.0935 -0.3381 -0.7420
   23MOL   C25221416   7.069   5.802   0.326 -0.5365 -0.2994  0.4960
   23MOL   O25321417   7.146   5.894   0.359 -0.2602 -0.6219 -0.1000
   23MOL   C25421418   6.916   5.807   0.331 -0.1863  0.1282 -0.6940
   23MOL   C25521419   6.850   5.948   0.306 -0.0573  0.8190 -0.3152
   23MOL   C25621420   6.696   5.930   0.293  0.3924  0.4482 -0.2146
   23MOL   C25721421   6.618   6.056   0.256 -0.5029  0.0521 -0.1316
   23MOL   C25821422   6.478   6.030   0.195 -0.4272 -0.2025  0.0976
   23MOL   C25921423   6.482   6.036   0.039 -0.1524 -0.4888  0.4943
   23MOL   C26021424   6.581   5.943   7.759  0.3529  0.0340 -0.1980
   23MOL   C26121425   6.549   5.917   7.611  0.6192  0.2891 -0.0054
   23MOL   C26221426   6.643   5.813   7.546  0.2756 -0.3902 -0.2354
   23MOL   O26321427   6.724   5.748   7.613 -0.3598  0.3761  0.1979
   23MOL   H26421428   7.171   5.506   0.697 -0.0419 -0.0026 -0.7328
   23MOL   H26521429   7.259   5.650   0.558  0.2116 -0.4562  0.4178
   23MOL   H26621430   7.423   5.583   0.590  0.3248 -0.0677  2.8496
   23MOL   H26721431   7.329   5.288   0.600  2.4750  0.1215  0.2880
   23MOL   H26821432   7.349   5.133   0.402 -1.3650  0.2028 -1.3705
   23MOL   H26921433   7.312   5.221   0.165  1.5633  1.4828 -0.7590
   23MOL   H27021434   7.285   5.445   0.125 -0.0433 -0.3503 -1.0792
   23MOL   H27121435   7.297   5.670   0.191  2.1635  0.6684  0.0350
   23MOL   H27221436   7.307   5.725   0.366 -0.0912 -0.8298  0.5570
   23MOL   H27321437   7.062   5.602   0.294 -1.2018  0.4653 -0.9546
   23MOL   H27421438   6.884   5.751   0.419  2.6455 -1.6956 -0.7450
   23MOL   H27521439   6.894   5.734   0.253 -0.2643 -0.9867  0.3649
   23MOL   H27621440   6.900   5.998   0.223  0.5724  0.2508 -0.2822
   23MOL   H27721441   6.875   5.998   0.400  1.9965  2.7917 -1.8540
   23MOL   H27821442   6.647   5.893   0.383  1.9938 -0.6371  0.2430
   23MOL   H27921443   6.657   5.854   0.226 -3.7274  1.1479  1.2313
   23MOL   H28021444   6.591   6.117   0.342 -1.0336  0.9446 -0.9177
   23MOL   H28121445   6.677   6.119   0.189 -0.6138 -0.5297 -0.7804
   23MOL   H28221446   6.422   5.947   0.237 -0.7411  1.3560  2.8543
   23MOL   H28321447   6.419   6.119   0.218 -0.5790 -0.5011  0.8912
   23MOL   H28421448   6.502   6.140   0.013  0.3849 -0.0344  2.6586
   23MOL   H28521449   6.383   5.998   0.014  0.6919 -0.1487 -3.7990
   23MOL   H28621450   6.685   5.974   7.766  0.9049 -1.5198 -1.4103
   23MOL   H28721451   6.578   5.847   0.020  0.5592 -1.3816 -2.8280
   23MOL   H28821452   6.447   5.881   7.599  0.7203  0.4790 -1.4654
   23MOL   H28921453   6.550   6.010   7.553  0.9005 -0.6329 -1.4928
   23MOL   N29021454   6.623   5.797   7.416  0.3054 -0.2619 -1.2178
   23MOL   C29121455   6.691   5.702   7.338 -0.7171 -1.1562  0.3534
   23MOL   C29221456   6.826   5.761   7.271 -0.2080  1.2926 -0.1698
   23MOL   C29321457   6.864   5.894   7.288  0.4196 -0.2721 -0.2809
   23MOL   C29421458   6.985   5.939   7.230 -0.5367  0.2540 -0.7451
   23MOL   C29521459   7.056   5.860   7.141  0.0360 -0.0158 -0.5002
   23MOL   C29621460   7.012   5.732   7.123  0.8749  0.7531 -0.1100
   23MOL   C29721461   6.901   5.678   7.188 -0.4076 -0.1068 -0.4741
   23MOL   C29821462   6.873   5.529   7.165  0.3207  0.5464  0.4490
   23MOL   N29921463   6.911   5.455   7.281  0.4032  0.1763  0.5071
   23MOL   C30021464   6.844   5.363   7.348  0.4143  0.0375 -0.7369
   23MOL   O30121465   6.727   5.332   7.317 -0.0428 -1.0743 -0.1557
   23MOL   C30221466   6.910   5.303   7.475  0.1999  0.3140  0.4567
   23MOL   C30321467   6.844   5.354   7.604  0.2464 -0.5667  0.2677
   23MOL   C30421468   6.921   5.330   7.735 -0.1003 -0.2751  0.0486
   23MOL   C30521469   6.847   5.367   0.070 -0.0653  0.4647 -0.1015
   23MOL   C30621470   6.920   5.337   0.206 -0.4724 -0.2605 -0.1372
   23MOL   C30721471   6.856   5.383   0.344 -0.3756  0.4477  0.5456
   23MOL   C30821472   6.936   5.323   0.466  0.3442 -0.2456  0.0063
   23MOL   C30921473   6.867   5.354   0.604 -0.1758 -0.5572  0.2892
   23MOL   C31021474   6.903   5.488   0.666  0.6767  0.8165  0.3501
   23MOL   O31121475   7.020   5.527   0.657  0.3048  0.0243  0.2203
   23MOL   H31221476   6.569   5.865   7.366 -0.9884 -0.2242  0.2071
   23MOL   H31321477   6.733   5.614   7.387  2.6330  0.2219  0.0883
   23MOL   H31421478   6.621   5.685   7.257  2.8646 -0.0301 -3.1370
   23MOL   H31521479   6.814   5.960   7.357 -0.6304  0.0970 -1.3744
   23MOL   H31621480   7.006   6.043   7.250  0.8731 -0.4581  1.6746
   23MOL   H31721481   7.142   5.891   7.084  0.5996  0.3323  0.5212
   23MOL   H31821482   7.073   5.662   7.068  1.1447  1.9630 -1.3910
   23MOL   H31921483   6.934   5.495   7.081 -1.3002 -1.6824  0.1395
   23MOL   H32021484   6.772   5.512   7.129  0.7840  1.0861 -1.1501
   23MOL   H32121485   7.007   5.471   7.310  1.7701 -2.0638 -2.4943
   23MOL   H32221486   6.908   5.195   7.470  0.8122  0.3266 -0.1062
   23MOL   H32321487   7.014   5.332   7.490 -0.1502  1.2403  1.1813
   23MOL   H32421488   6.749   5.303   7.624  0.8776 -1.2239  1.6812
   23MOL   H32521489   6.809   5.457   7.604  0.2607 -0.5581  0.6553
   23MOL   H32621490   7.002   5.402   7.728 -1.0400  0.6879 -1.2565
   23MOL   H32721491   6.966   5.232   7.746  2.0589  0.6355 -0.5083
   23MOL   H32821492   6.830   5.474   0.061  0.8236  0.4798 -1.7285
   23MOL   H32921493   6.752   5.313   0.073  0.8315 -1.1221  0.3981
   23MOL   H33021494   6.935   5.229   0.211 -0.1962 -0.1840  0.6432
   23MOL   H33121495   7.017   5.384   0.192 -0.7163 -0.5202 -3.1438
   23MOL   H33221496   6.754   5.346   0.356 -1.1841  2.6777  0.8365
   23MOL   H33321497   6.843   5.491   0.339  0.2929  0.4252 -2.2539
   23MOL   H33421498   6.934   5.215   0.453 -0.7900 -0.0263 -1.8101
   23MOL   H33521499   7.036   5.368   0.465  0.1236  0.2598 -1.5347
   23MOL   H33621500   6.760   5.343   0.586 -0.1874 -1.4633  0.8800
   23MOL   H33721501   6.887   5.275   0.677  0.7673 -1.0880 -0.5409
   23MOL   N33821502   6.816   5.557   0.739  0.2956  0.1557 -0.0450
   23MOL   C33921503   6.831   5.695   0.778  0.5930  0.0460 -0.7424
   23MOL   C34021504   6.782   5.723   0.920 -0.3252  0.4231 -0.1422
   23MOL   C34121505   6.761   5.612   1.012  0.1671 -0.4374  0.1880
   23MOL   C34221506   6.712   5.636   1.141  0.2536 -0.5339  0.2156
   23MOL   C34321507   6.691   5.766   1.185  0.0712 -0.0721 -0.2355
   23MOL   C34421508   6.710   5.874   1.093  0.6973 -0.8533  0.5276
   23MOL   C34521509   6.748   5.852   0.963  0.2478 -0.3719  0.5830
   23MOL   C34621510   6.773   5.975   0.879 -0.0159  0.1303  0.4370
   23MOL   N34721511   6.670   6.013   0.787 -0.2698  0.4821  0.2710
   23MOL   C34821512   6.662   6.138   0.732 -0.8860  1.1890  0.2592
   23MOL   O34921513   6.752   6.220   0.743  0.2788  0.2841  0.1834
   23MOL   C35021514   6.534   6.159   0.652  0.4309 -0.1785  0.4000
   23MOL   C35121515   6.491   6.309   0.641 -0.0980  0.0958 -0.1508
   23MOL   C35221516   6.426   6.356   0.768 -0.5977  0.4730 -0.0795
   23MOL   C35321517   6.430   6.505   0.770 -0.1087 -0.8633  0.4805
   23MOL   C35421518   6.345   6.564   0.881  0.5802 -0.3330  0.7064
   23MOL   C35521519   6.369   6.720   0.898 -0.1270 -0.1278  0.1308
   23MOL   C35621520   6.297   6.787   1.017  0.5762 -0.4218 -0.0085
   23MOL   C35721521   6.297   6.936   0.998  0.2319 -0.2327  0.5028
   23MOL   C35821522   6.422   7.007   1.059 -0.4253 -0.1106 -0.2437
   23MOL   O35921523   6.529   6.949   1.080 -0.3392  0.1208  0.5284
   23MOL   H36021524   6.725   5.516   0.755  0.4322 -0.4966 -0.8662
   23MOL   H36121525   6.933   5.732   0.766  1.2612 -2.1208 -2.0805
   23MOL   H36221526   6.780   5.756   0.703 -0.8026  1.0585  0.9993
   23MOL   H36321527   6.771   5.510   0.977 -4.1053 -1.1905  0.9021
   23MOL   H36421528   6.695   5.550   1.204 -1.4124 -0.3296  0.0502
   23MOL   H36521529   6.676   5.799   1.287 -0.2310  0.5884 -0.4870
   23MOL   H36621530   6.682   5.974   1.123 -0.9906 -0.8740 -0.9425
   23MOL   H36721531   6.863   5.962   0.818 -1.3458  0.6500 -1.6894
   23MOL   H36821532   6.801   6.057   0.946 -1.3572 -1.1063  2.5359
   23MOL   H36921533   6.593   5.952   0.761  0.7340  0.0665 -1.8131
   23MOL   H37021534   6.449   6.109   0.699  1.5885 -3.1688 -0.5635
   23MOL   H37121535   6.540   6.118   0.551 -0.5282  0.0029  0.2711
   23MOL   H37221536   6.428   6.316   0.553 -0.3245 -1.5250 -0.1226
   23MOL   H37321537   6.567   6.383   0.615  1.4829 -0.5480  2.4391
   23MOL   H37421538   6.323   6.320   0.778 -0.4613  0.1661  0.2651
   23MOL   H37521539   6.481   6.320   0.855 -1.4999  1.8991  1.0958
   23MOL   H37621540   6.389   6.552   0.681 -1.2422  2.1704  2.5168
   23MOL   H37721541   6.529   6.541   0.798  0.1529  0.0079 -1.4534
   23MOL   H37821542   6.240   6.534   0.874  0.6910 -0.8191  1.0563
   23MOL   H37921543   6.382   6.509   0.968  0.2960 -4.0270 -1.4138
   23MOL   H38021544   6.350   6.771   0.803  1.0967 -1.3114 -0.7632
   23MOL   H38121545   6.477   6.729   0.902  0.1111 -0.4390 -3.7142
   23MOL   H38221546   6.192   6.759   1.006  1.1633 -1.4871 -3.4541
   23MOL   H38321547   6.323   6.747   1.115 -0.0165 -2.3904 -0.6345
   23MOL   H38421548   6.219   6.992   1.050  0.8733 -0.1461  1.4015
   23MOL   H38521549   6.277   6.958   0.894  1.7021 -1.5701 -0.0782
   23MOL   N38621550   6.412   7.143   1.083  0.1166  0.0468 -0.0416
   23MOL   C38721551   6.518   7.227   1.125  0.0786 -0.2294 -0.0952
   23MOL   C38821552   6.489   7.379   1.139  0.5544  0.4677 -0.1468
   23MOL   C38921553   6.562   7.476   1.069  0.1150 -0.2413 -0.5880
   23MOL   C39021554   6.524   7.610   1.067  0.4591 -0.0516 -0.4580
   23MOL   C39121555   6.421   7.654   1.150 -0.0704  0.5839  0.8062
   23MOL   C39221556   6.340   7.562   1.218  1.0575  0.3739 -0.0776
   23MOL   C39321557   6.372   7.423   1.216 -0.4549 -0.4937  0.8647
   23MOL   C39421558   6.282   7.322   1.294  0.2098 -0.5569  0.0162
   23MOL   N39521559   6.149   7.299   1.230 -0.4586 -0.2308  0.2645
   23MOL   C39621560   6.070   7.197   1.257 -0.7684 -0.2482  0.5442
   23MOL   O39721561   6.097   7.119   1.349 -0.6007  0.9186 -0.0806
   23MOL   C39821562   5.958   7.178   1.161  0.2988  0.0060  0.1093
   23MOL   C39921563   5.872   7.050   1.176  0.1393 -0.2558  0.7467
   23MOL   C40021564   5.795   7.028   1.047  0.3107  0.0869 -0.4026
   23MOL   C40121565   5.701   6.906   1.058 -0.1933 -0.0112  0.5309
   23MOL   C40221566   5.580   6.944   1.148  0.8939  0.4649  0.2165
   23MOL   C40321567   5.481   6.827   1.146  0.3294 -0.5994 -0.5422
   23MOL   C40421568   5.344   6.856   1.222 -1.0141 -0.9733 -0.0486
   23MOL   C40521569   5.247   6.735   1.202  0.4093 -0.2558 -0.3486
   23MOL   C40621570   5.222   6.676   1.064 -0.1901  0.0363 -0.2345
   23MOL   O40721571   5.303   6.598   1.014  0.1316 -0.3728 -0.3976
   23MOL   H40821572   6.330   7.196   1.059  1.0482  1.1054 -0.9923
   23MOL   H40921573   6.551   7.184   1.219  1.5156  0.3708 -0.3083
   23MOL   H41021574   6.611   7.209   1.071  1.4399  0.7726  1.8338
   23MOL   H41121575   6.643   7.441   1.008  1.5065  0.3081  0.9169
   23MOL   H41221576   6.586   7.681   1.014  1.0016 -0.8122 -0.8534
   23MOL   H41321577   6.377   7.751   1.162  1.6973  1.4818  0.2134
   23MOL   H41421578   6.255   7.600   1.274  0.6643  1.8219 -1.6161
   23MOL   H41521579   6.274   7.364   1.394  0.5646 -2.3611  0.8264
   23MOL   H41621580   6.338   7.229   1.310 -0.5539 -1.4266 -2.1499
   23MOL   H41721581   6.108   7.377   1.181  0.5359 -0.4469 -0.9270
   23MOL   H41821582   5.907   7.274   1.166  0.8216  0.2006  2.8028
   23MOL   H41921583   6.014   7.186   1.069  0.8496  1.5551  0.5573
   23MOL   H42021584   5.805   7.064   1.261  0.4581 -0.4823  1.0405
   23MOL   H42121585   5.937   6.967   1.205  1.3519  0.6996  0.8160
   23MOL   H42221586   5.866   7.016   0.964  0.7320 -1.8559  0.2235
   23MOL   H42321587   5.725   7.108   1.024 -2.6583 -1.8542  1.6934
   23MOL   H42421588   5.662   6.892   0.957  1.0797  0.1802  0.0061
   23MOL   H42521589   5.756   6.817   1.088 -1.3400 -1.4040 -1.3577
   23MOL   H42621590   5.617   6.950   1.250 -0.8127  2.8664  0.7440
   23MOL   H42721591   5.534   7.034   1.107 -0.6089 -0.1356  0.5324
   23MOL   H42821592   5.526   6.731   1.173  2.0774  0.6286  1.0440
   23MOL   H42921593   5.457   6.810   1.041 -1.3438 -1.1299 -0.0867
   23MOL   H43021594   5.308   6.956   1.198  0.9063 -0.0567  0.7460
   23MOL   H43121595   5.363   6.876   1.328  0.5162  0.0602 -0.4986
   23MOL   H43221596   5.153   6.755   1.254 -1.4067 -1.1237 -3.2086
   23MOL   H43321597   5.300   6.659   1.259  1.7227  0.5800 -0.4344
   23MOL   N43421598   5.105   6.706   1.003  0.3164  0.6228  0.0733
   23MOL   C43521599   5.078   6.681   0.865 -0.9464  0.0759 -0.3556
   23MOL   C43621600   4.936   6.731   0.816 -0.0948 -0.0417 -0.3672
   23MOL   C43721601   4.844   6.798   0.900 -0.5000  0.4825  0.2319
   23MOL   C43821602   4.712   6.820   0.859  0.2509  0.0023 -0.3793
   23MOL   C43921603   4.679   6.815   0.721  0.3213  0.0109 -0.2681
   23MOL   C44021604   4.766   6.756   0.635 -0.5412  0.9131 -0.0237
   23MOL   C44121605   4.893   6.710   0.681  0.0225  0.1297 -0.0207
   23MOL   C44221606   4.966   6.640   0.574  0.1002  0.7411  0.1347
   23MOL   N44321607   5.016   6.732   0.470  0.0266 -0.5124  0.3315
   23MOL   C44421608   5.108   6.829   0.484 -0.2783  0.3739 -0.0871
   23MOL   O44521609   5.159   6.865   0.586  0.2430  0.1842 -0.6097
   23MOL   C44621610   5.158   6.893   0.353  0.1685  0.2910 -0.0516
   23MOL   C44721611   5.143   7.039   0.343  0.3870  0.5405  0.1665
   23MOL   C44821612   5.208   7.126   0.451 -1.0871  0.6289  0.5214
   23MOL   C44921613   5.188   7.279   0.436 -0.2045  0.6108  0.5680
   23MOL   C45021614   5.220   7.352   0.559  0.2700  0.9578 -0.9764
   23MOL   C45121615   5.243   7.501   0.537  0.0620 -0.0413  0.4420
   23MOL   C45221616   5.301   7.583   0.656  0.1277  0.0758 -0.5740
   23MOL   C45321617   5.210   7.597   0.779 -0.0638  0.2184  0.0838
   23MOL   C45421618   5.276   7.688   0.884  0.8006 -0.4606 -0.1852
   23MOL   O45521619   5.397   7.691   0.906  0.2314 -0.6798  0.0217
   23MOL   H45621620   5.039   6.760   1.058  0.1252  0.4184  0.0474
   23MOL   H45721621   5.078   6.573   0.850 -0.2686  0.0798 -0.3557
   23MOL   H45821622   5.161   6.719   0.806 -0.8382 -1.2194 -1.0453
   23MOL   H45921623   4.882   6.824   0.998 -0.3121  0.2351  0.2270
   23MOL   H46021624   4.636   6.860   0.925 -0.5207 -0.7187 -0.8206
   23MOL   H46121625   4.587   6.849   0.675  0.3077  0.6406  0.2213
   23MOL   H46221626   4.743   6.734   0.531  3.0848  0.3589 -0.7761
   23MOL   H46321627   4.909   6.560   0.527  1.1941  0.5785 -0.9501
   23MOL   H46421628   5.055   6.598   0.622 -0.4006  0.5171  0.8665
   23MOL   H46521629   4.983   6.716   0.376 -0.7023 -1.5745  0.7603
   23MOL   H46621630   5.097   6.852   0.272  0.1799 -1.1542  0.6440
   23MOL   H46721631   5.264   6.872   0.344  0.6447  2.7057 -0.2920
   23MOL   H46821632   5.035   7.053   0.342  0.0696 -1.3737 -3.3421
   23MOL   H46921633   5.162   7.071   0.240 -2.0219  0.9423 -0.1935
   23MOL   H47021634   5.168   7.089   0.545 -0.0356  1.5697  1.3542
   23MOL   H47121635   5.314   7.100   0.451 -1.2424 -0.0288 -0.1078
   23MOL   H47221636   5.244   7.313   0.349 -0.5480 -0.3593 -0.0324
   23MOL   H47321637   5.082   7.302   0.423 -0.3417 -0.2520  0.1974
   23MOL   H47421638   5.134   7.340   0.626  2.7772 -3.6899  1.6604
   23MOL   H47521639   5.307   7.306   0.606  0.2064 -0.3381 -2.1167
   23MOL   H47621640   5.160   7.543   0.481  0.8140 -0.3416 -0.9166
   23MOL   H47721641   5.321   7.512   0.462 -1.7281 -2.1640 -1.8050
   23MOL   H47821642   5.389   7.523   0.682 -0.5152 -0.3804  0.6021
   23MOL   H47921643   5.346   7.676   0.620  1.2095 -0.0144  0.5000
   23MOL   H48021644   5.114   7.641   0.752 -0.4667  0.2466  1.5241
   23MOL   H48121645   5.181   7.498   0.815  3.4528 -1.8312 -2.3368
   23MOL   N48221646   5.195   7.764   0.956 -0.5173 -0.0710 -0.6132
   23MOL   C48321647   5.234   0.070   1.056 -0.5051  0.5719  0.3401
   23MOL   C48421648   5.258   0.215   1.005  0.0222  0.3456 -0.8704
   23MOL   C48521649   5.252   0.241   0.868 -0.3503 -0.2132 -0.1954
   23MOL   C48621650   5.276   0.367   0.818  0.2650  0.5683  0.2664
   23MOL   C48721651   5.304   0.471   0.908 -0.1356 -0.3696  0.4713
   23MOL   C48821652   5.311   0.448   1.044  0.2342 -0.6244 -0.1006
   23MOL   C48921653   5.288   0.320   1.097 -0.0800  0.0596 -0.0582
   23MOL   C49021654   5.281   0.292   1.249 -0.3997 -0.0421 -0.1303
   23MOL   N49121655   5.280   0.416   1.324 -0.3409 -0.4534  0.3435
   23MOL   C49221656   5.368   0.461   1.413 -0.1550 -0.5538 -0.3421
   23MOL   O49321657   5.451   0.387   1.472  0.0961  0.1125 -0.0691
   23MOL   C49421658   5.350   0.603   1.450 -0.2879  0.2193 -0.5770
   23MOL   C49521659   5.473   0.685   1.427  0.0455 -0.1136  0.0477
   23MOL   C49621660   5.569   0.685   1.542 -0.7228 -0.1956  0.2270
   23MOL   C49721661   5.654   0.810   1.542  1.1519 -0.1823  0.0063
   23MOL   C49821662   5.749   0.814   1.663 -0.7759 -0.5848 -0.4295
   23MOL   C49921663   5.798   0.959   1.684  0.0271  0.1086  0.3134
   23MOL   C50021664   5.920   0.971   1.777  0.5097 -0.2858 -0.4226
   23MOL   C50121665   5.987   1.114   1.765  0.3028  0.0012 -0.2344
   23MOL   C50221666   6.101   1.133   1.662 -0.2578 -0.6662 -0.5673
   23MOL   O50321667   6.193   1.050   1.657  0.4734  0.1190 -0.1146
   23MOL   H50421668   5.095   7.761   0.944 -0.8077  2.3600  0.7507
   23MOL   H50521669   5.156   0.080   1.131  1.1417  1.7090  1.9474
   23MOL   H50621670   5.319   0.034   1.114 -0.7884  1.2634  1.1873
   23MOL   H50721671   5.228   0.172   0.788  1.8868 -1.4945  0.2178
   23MOL   H50821672   5.259   0.397   0.716 -0.2080  0.5175  0.3309
   23MOL   H50921673   5.314   0.566   0.858 -2.0428  0.3131  1.3468
   23MOL   H51021674   5.348   0.523   1.112  2.7927 -2.6081  0.7707
   23MOL   H51121675   5.376   0.241   1.270 -0.5762 -1.3158 -2.3134
   23MOL   H51221676   5.209   0.218   1.283 -0.4120  0.8551  1.8719
   23MOL   H51321677   5.222   0.488   1.284  0.1836 -0.9797 -1.4140
   23MOL   H51421678   5.324   0.603   1.556 -0.2690  0.2067 -0.5722
   23MOL   H51521679   5.269   0.648   1.393 -0.7327  0.7311  0.4442
   23MOL   H51621680   5.444   0.788   1.403 -0.3638  0.4472  2.8080
   23MOL   H51721681   5.514   0.653   1.331  0.6529  1.7884 -0.3444
   23MOL   H51821682   5.520   0.681   1.639 -0.6123 -1.1405  0.2493
   23MOL   H51921683   5.645   0.607   1.541 -1.0873 -0.5859  2.2921
   23MOL   H52021684   5.717   0.812   1.453 -2.1099 -0.6401 -2.3761
   23MOL   H52121685   5.596   0.902   1.549  0.6984 -0.6903  3.7602
   23MOL   H52221686   5.695   0.779   1.752 -0.6130  0.2253 -0.0054
   23MOL   H52321687   5.831   0.743   1.650 -1.0709 -1.2231  1.0417
   23MOL   H52421688   5.724   1.021   1.736  0.3186  0.0247  0.8331
   23MOL   H52521689   5.812   1.016   1.593 -2.4521  0.2893 -0.0032
   23MOL   H52621690   5.890   0.954   1.880  0.5515  1.6258 -0.0686
   23MOL   H52721691   5.998   0.897   1.758  0.9565 -0.3580  1.6493
   23MOL   H52821692   6.037   1.141   1.858  0.5460 -0.6676 -0.1685
   23MOL   H52921693   5.920   1.199   1.753  2.9638  2.5593  2.2414
   23MOL   N53021694   6.095   1.238   1.582  0.3398  0.3318  0.9150
   23MOL   C53121695   6.204   1.298   1.513  0.4587  0.7842 -0.6804
   23MOL   C53221696   6.186   1.444   1.494 -0.0038  0.0861  0.1728
   23MOL   C53321697   6.263   1.531   1.581  0.2179 -0.0794  0.0349
   23MOL   C53421698   6.244   1.671   1.575 -0.5204  0.0154 -0.0986
   23MOL   C53521699   6.156   1.733   1.487 -0.7084 -0.1970  0.5838
   23MOL   C53621700   6.097   1.645   1.387 -0.1837 -0.2020 -0.1382
   23MOL   C53721701   6.107   1.506   1.390 -0.1195 -0.2523  0.1636
   23MOL   C53821702   6.050   1.428   1.281  0.3443  0.4509 -0.0479
   23MOL   N53921703   6.156   1.376   1.194  0.3547  0.4922  0.0753
   23MOL   C54021704   6.148   1.265   1.112  0.1667 -0.9348  0.3499
   23MOL   O54121705   6.041   1.210   1.093  0.0305  0.6406 -0.7197
   23MOL   C54221706   6.279   1.206   1.044 -0.1583  0.4359  0.2004
   23MOL   C54321707   6.301   1.055   1.076 -0.5306  0.2819 -0.0852
   23MOL   C54421708   6.357   1.004   1.214 -0.1131  0.1975  0.1125
   23MOL   C54521709   6.498   1.064   1.247 -0.3721  0.2371  0.3899
   23MOL   C54621710   6.523   1.089   1.394 -0.0599 -0.7624 -0.1487
   23MOL   C54721711   6.593   0.970   1.468  0.3971  0.1505  0.1874
   23MOL   C54821712   6.619   0.998   1.613  0.3276  0.8182 -0.3041
   23MOL   C54921713   6.724   0.907   1.680  0.2238 -0.2021  0.2489
   23MOL   C55021714   6.870   0.953   1.668  0.7123  0.8950 -0.0915
   23MOL   O55121715   6.915   1.018   1.578 -0.1620 -0.2517 -0.0858
   23MOL   H55221716   6.007   1.286   1.568  1.4842  2.6701  1.4886
   23MOL   H55321717   6.214   1.248   1.417 -2.3607  0.2738 -0.7622
   23MOL   H55421718   6.294   1.288   1.573  0.3730  2.4764 -0.2476
   23MOL   H55521719   6.328   1.489   1.656  1.0300 -1.4961 -1.4164
   23MOL   H55621720   6.299   1.734   1.644  0.1128 -1.1922  0.5378
   23MOL   H55721721   6.139   1.839   1.494  2.6659  0.4792 -0.2792
   23MOL   H55821722   6.045   1.693   1.305  0.8629 -0.2606 -0.8543
   23MOL   H55921723   5.975   1.489   1.230 -1.4509 -0.2995  1.6452
   23MOL   H56021724   6.004   1.342   1.329 -0.1539  0.8868  0.2635
   23MOL   H56121725   6.247   1.418   1.200 -0.8519  2.9308  2.3508
   23MOL   H56221726   6.373   1.257   1.066 -0.4673  1.2719 -0.3785
   23MOL   H56321727   6.259   1.204   0.937 -2.7580 -0.5990  0.6775
   23MOL   H56421728   6.372   1.018   1.002 -0.0557  1.0137 -0.0037
   23MOL   H56521729   6.201   1.011   1.075 -1.9357  3.3733 -0.4710
   23MOL   H56621730   6.294   1.027   1.300 -2.5422 -0.5317 -1.4080
   23MOL   H56721731   6.355   0.895   1.217  1.0136  0.1870  0.8832
   23MOL   H56821732   6.577   1.018   1.188 -0.3765  0.5895  0.1079
   23MOL   H56921733   6.503   1.163   1.204 -4.6907 -0.2876 -1.5288
   23MOL   H57021734   6.578   1.183   1.399 -0.5014 -0.4998 -0.1313
   23MOL   H57121735   6.438   1.105   1.461 -0.8044 -0.2799 -1.1990
   23MOL   H57221736   6.686   0.952   1.415 -0.5230  1.0111 -1.7641
   23MOL   H57321737   6.538   0.878   1.449 -0.4424  0.5193  0.7875
   23MOL   H57421738   6.657   1.099   1.632 -1.8951  2.0644 -2.1888
   23MOL   H57521739   6.527   0.986   1.670  0.6173  0.2941  0.0598
   23MOL   H57621740   6.712   0.805   1.643  0.4545  0.5762 -2.1097
   23MOL   H57721741   6.708   0.903   1.787  0.9377 -0.6208  0.3406
   23MOL   N57821742   6.951   0.918   1.765 -0.3484  0.5670  0.3765
   23MOL   C57921743   7.090   0.954   1.770  0.2178 -0.8986 -0.9498
   23MOL   C58021744   7.111   1.023   1.899  0.0323 -0.0696  0.4259
   23MOL   C58121745   7.105   0.942   2.015 -0.0816 -0.0174 -0.1485
   23MOL   C58221746   7.138   0.991   2.140 -0.1780  0.6375  0.6804
   23MOL   C58321747   7.166   1.128   2.147  0.3233 -0.2195  0.0707
   23MOL   C58421748   7.154   1.218   2.041 -0.3370 -0.2284 -0.2714
   23MOL   C58521749   7.129   1.168   1.911 -0.1051 -0.0058  0.0527
   23MOL   C58621750   7.127   1.264   1.795  0.0115  0.5437  0.0175
   23MOL   N58721751   7.252   1.276   1.714  0.3838 -0.3891  0.0158
   23MOL   C58821752   7.351   1.361   1.732  0.0801  0.2353  0.2575
   23MOL   O58921753   7.352   1.453   1.815  0.0791 -0.9186 -0.3986
   23MOL   C59021754   7.474   1.357   1.636  0.2972  0.1544 -0.6250
   23MOL   C59121755   7.600   1.287   1.705  0.0757  0.2659  0.3830
   23MOL   C59221756   7.574   1.136   1.740 -0.0810  0.6801  0.2548
   23MOL   C59321757   7.556   1.117   1.885  1.0937  0.2791  0.6857
   23MOL   C59421758   7.552   0.967   1.915 -0.5239  0.6963  0.3460
   23MOL   C59521759   7.535   0.944   2.064  0.4146 -0.2852 -0.9320
   23MOL   C59621760   7.664   0.966   2.153  0.1735  0.2183  0.7957
   23MOL   C59721761   7.784   0.872   2.148  0.6409 -0.1570 -0.2436
   23MOL   C59821762   7.765   0.751   2.237  0.6964 -0.0956 -0.5698
   23MOL   O59921763   7.776   0.765   2.359  0.0777 -0.2545 -0.2024
   23MOL   H60021764   6.916   0.847   1.828 -0.6087 -0.1001 -0.5096
   23MOL   H60121765   7.130   1.021   1.693 -0.1944  1.4566  0.8232
   23MOL   H60221766   7.147   0.861   1.773 -1.9148 -2.1820  1.4551
   23MOL   H60321767   7.099   0.835   2.004  4.0815 -0.4341  0.7078
   23MOL   H60421768   7.145   0.928   2.228 -0.3815  0.1740  0.3647
   23MOL   H60521769   7.196   1.159   2.245  0.3289 -0.6131  0.1946
   23MOL   H60621770   7.185   1.319   2.061  2.5642 -1.4044  1.4102
   23MOL   H60721771   7.114   1.363   1.839  0.0974 -0.2427  1.8104
   23MOL   H60821772   7.041   1.234   1.735 -1.2556 -0.2571  2.1775
   23MOL   H60921773   7.253   1.224   1.628  1.9413 -1.7130  0.8149
   23MOL   H61021774   7.507   1.460   1.624  2.4910 -0.3635  0.6288
   23MOL   H61121775   7.454   1.312   1.539  0.3478 -0.1556 -0.4929
   23MOL   H61221776   7.621   1.338   1.799  2.1757 -1.1375  0.7007
   23MOL   H61321777   7.687   1.294   1.641 -0.1548  2.8819  0.3025
   23MOL   H61421778   7.488   1.096   1.686 -1.8923  2.3674  1.8036
   23MOL   H61521779   7.660   1.077   1.710  0.0980 -0.4925  2.9512
   23MOL   H61621780   7.633   1.174   1.938  1.1605 -1.2152  2.2553
   23MOL   H61721781   7.463   1.163   1.919 -0.4723 -0.9712 -1.7727
   23MOL   H61821782   7.470   0.927   1.856 -1.2065 -1.4978  2.7168
   23MOL   H61921783   7.637   0.916   1.869 -2.2813 -0.4104 -1.7130
   23MOL   H62021784   7.508   0.839   2.077 -1.1912 -0.2622 -3.7010
   23MOL   H62121785   7.454   1.005   2.106  0.2471 -0.1129 -1.5076
   23MOL   H62221786   7.694   1.063   2.112  0.7284 -0.6427 -0.8909
   23MOL   H62321787   7.630   0.981   2.255 -3.2689 -0.7032 -0.1259
   23MOL   H62421788   0.007   0.837   2.046 -1.1042 -1.7714  0.0494
   23MOL   H62521789   0.086   0.920   2.179  0.2704  0.1644  0.3719
   23MOL   N62621790   7.727   0.636   2.170  0.7539  0.1026  0.6516
   23MOL   C62721791   7.692   0.514   2.239 -0.4028  0.6180  0.9476
   23MOL   C62821792   7.659   0.409   2.137 -0.1874  0.7410  0.0842
   23MOL   C62921793   7.753   0.307   2.112 -0.0444  0.5386 -0.1119
   23MOL   C63021794   7.729   0.196   2.027 -0.4402  0.4529 -0.1892
   23MOL   C63121795   7.606   0.193   1.956  0.0173 -0.4294 -0.4895
   23MOL   C63221796   7.510   0.300   1.973 -0.0636 -0.9360  0.2795
   23MOL   C63321797   7.531   0.399   2.067  0.0741 -0.3666  0.4034
   23MOL   C63421798   7.416   0.504   2.097 -0.0389 -0.4143 -0.3391
   23MOL   N63521799   7.284   0.486   2.038 -0.3743 -0.1279 -0.1837
   23MOL   C63621800   7.250   0.541   1.923 -0.2185 -0.2226 -0.1327
   23MOL   O63721801   7.326   0.607   1.865 -0.2465 -0.2481 -0.0197
   23MOL   C63821802   7.113   0.503   1.871 -0.2565  0.3798  0.0706
   23MOL   C63921803   7.103   0.458   1.721  0.2213  0.3333 -0.2041
   23MOL   C64021804   7.086   0.582   1.629 -0.1972  0.5356 -0.1783
   23MOL   C64121805   7.128   0.550   1.477 -0.3142  0.6185  0.3213
   23MOL   C64221806   7.117   0.664   1.382  0.3746 -0.2353  0.3156
   23MOL   C64321807   6.974   0.701   1.327  0.5323  0.6451  0.2050
   23MOL   C64421808   6.959   0.840   1.259  0.0164  0.2690 -0.5447
   23MOL   C64521809   7.028   0.839   1.124  0.0460 -0.5352 -0.0544
   23MOL   C64621810   6.984   0.957   1.028 -0.2079 -0.8309  0.0060
   23MOL   O64721811   6.884   1.028   1.046  0.0950  0.2455  0.6867
   23MOL   H64821812   7.735   0.641   2.069  3.6087  1.0669  0.8670
   23MOL   H64921813   7.604   0.530   2.300 -1.4858  0.8307 -0.6306
   23MOL   H65021814   7.766   0.482   2.312  0.4774 -0.1071 -0.2262
   23MOL   H65121815   0.058   0.312   2.162 -0.9574  0.3354  1.6996
   23MOL   H65221816   0.015   0.121   2.008 -1.0760 -0.2989  0.2224
   23MOL   H65321817   7.585   0.115   1.884  1.1579  0.8892 -2.3014
   23MOL   H65421818   7.419   0.297   1.916  0.8928 -1.3392 -1.2544
   23MOL   H65521819   7.454   0.599   2.059  1.8478 -0.4027  1.4392
   23MOL   H65621820   7.396   0.513   2.204  0.3412  0.1431 -0.3128
   23MOL   H65721821   7.218   0.437   2.096 -0.1766  0.3238  0.4158
   23MOL   H65821822   7.042   0.585   1.878 -0.8070 -0.0358 -0.5922
   23MOL   H65921823   7.096   0.416   1.936 -0.7414  0.4009 -0.0235
   23MOL   H66021824   7.024   0.385   1.710  0.3202  0.3663 -1.1330
   23MOL   H66121825   7.193   0.402   1.699  0.3114  0.6042 -0.5318
   23MOL   H66221826   6.979   0.601   1.621 -0.2967 -0.1910 -0.5497
   23MOL   H66321827   7.140   0.671   1.663  1.4406 -0.0570 -1.1695
   23MOL   H66421828   7.235   0.527   1.476 -0.5640 -0.5539  0.4283
   23MOL   H66521829   7.078   0.459   1.445 -0.7714  0.7548  0.6478
   23MOL   H66621830   7.150   0.760   1.422 -1.0417  1.3797 -2.2864
   23MOL   H66721831   7.181   0.637   1.298 -0.8692 -2.0629 -0.0757
   23MOL   H66821832   6.915   0.710   1.418  2.3841  0.6983  1.4265
   23MOL   H66921833   6.931   0.624   1.263 -0.6263  2.3802 -1.1425
   23MOL   H67021834   6.852   0.852   1.239 -0.1805 -0.1260  0.2592
   23MOL   H67121835   6.989   0.927   1.317  0.3927  0.8433 -1.5833
   23MOL   H67221836   7.014   0.742   1.076 -1.8923 -0.6057  0.5900
   23MOL   H67321837   7.135   0.845   1.141 -0.5106  0.5185  3.3080
   23MOL   N67421838   7.061   0.977   0.920  0.6575  0.7296  0.5151
   23MOL   C67521839   7.044   1.072   0.812  0.1190 -0.0805  0.0629
   23MOL   C67621840   7.155   1.048   0.706 -0.0471 -0.8191  0.9535
   23MOL   C67721841   7.141   0.955   0.598  0.7722 -1.2855  0.1428
   23MOL   C67821842   7.249   0.928   0.513  0.3381 -0.2467 -0.1377
   23MOL   C67921843   7.368   0.989   0.532  0.1312 -0.3008  0.4068
   23MOL   C68021844   7.385   1.080   0.639  0.3847 -0.5905  0.0344
   23MOL   C68121845   7.279   1.116   0.720 -0.0191 -0.8558  0.2339
   23MOL   C68221846   7.308   1.210   0.835 -0.0657 -0.0609 -0.2195
   23MOL   N68321847   7.302   1.141   0.966  0.7659 -0.3681  0.3910
   23MOL   C68421848   7.290   1.209   1.079 -0.4811 -0.8212  0.1104
   23MOL   O68521849   7.296   1.333   1.076 -0.0921 -0.4136  0.0986
   23MOL   C68621850   7.269   1.137   1.213  0.4182 -0.9865  0.6398
   23MOL   C68721851   7.400   1.090   1.284  0.3530 -0.1202 -0.2691
   23MOL   C68821852   7.375   0.992   1.402 -0.4449 -0.0084  0.3634
   23MOL   C68921853   7.505   0.917   1.442  0.3605 -0.1487  0.0767
   23MOL   C69021854   7.484   0.823   1.567  0.2641  0.1958 -0.5365
   23MOL   C69121855   7.615   0.772   1.623  0.7353 -0.2233 -0.3412
   23MOL   C69221856   7.597   0.662   1.734  0.4925 -0.2965 -0.2435
   23MOL   C69321857   7.720   0.609   1.810  0.0345  0.1239 -0.8083
   23MOL   C69421858   0.035   0.543   1.720 -0.0271 -0.0556  0.4450
   23MOL   O69521859   7.780   0.478   1.623 -0.6730 -0.5291 -0.3942
   23MOL   H69621860   7.124   0.899   0.904 -0.6406 -0.4931  1.2330
   23MOL   H69721861   7.035   1.174   0.849 -1.1466 -0.8422  1.9254
   23MOL   H69821862   6.954   1.049   0.755 -1.1599  0.7107  1.7089
   23MOL   H69921863   7.045   0.913   0.570 -0.3582  0.3118  1.5232
   23MOL   H70021864   7.242   0.862   0.428  1.3973  0.6849 -0.9693
   23MOL   H70121865   7.450   0.971   0.465 -2.9797 -0.4221 -3.5697
   23MOL   H70221866   7.481   1.123   0.664  0.6545 -1.7582  1.0670
   23MOL   H70321867   7.248   1.301   0.829 -0.3937 -0.1848  1.1548
   23MOL   H70421868   7.409   1.253   0.837 -1.6195  3.7670  3.1969
   23MOL   H70521869   7.307   1.041   0.980 -0.8026 -0.3108  1.5039
   23MOL   H70621870   7.190   1.064   1.191 -1.5353  1.3182 -0.2945
   23MOL   H70721871   7.220   1.203   1.284 -0.3137  0.1042 -0.8361
   23MOL   H70821872   7.424   1.188   1.327 -2.6543  0.5503 -0.0515
   23MOL   H70921873   7.482   1.062   1.218  0.8907  0.6988  0.0360
   23MOL   H71021874   7.340   1.043   1.492  0.7178  1.6013 -0.0762
   23MOL   H71121875   7.299   0.917   1.375 -0.8856  0.5760 -0.0487
   23MOL   H71221876   7.549   0.862   1.360  0.4259 -0.2343  0.1684
   23MOL   H71321877   7.581   0.992   1.467 -0.3058  0.0721  1.5154
   23MOL   H71421878   7.428   0.870   1.648 -1.3207 -2.2972 -0.0975
   23MOL   H71521879   7.418   0.741   1.536  1.3189 -1.3757  1.3259
   23MOL   H71621880   7.681   0.852   1.654  0.4979 -1.0481  2.3646
   23MOL   H71721881   7.668   0.723   1.541 -0.5435  0.5558 -1.6655
   23MOL   H71821882   7.542   0.581   1.686 -0.2627  0.8649 -1.3709
   23MOL   H71921883   7.533   0.710   1.809  0.4364 -0.9077  0.1039
   23MOL   H72021884   7.695   0.529   1.880  0.5775  1.7537  1.3136
   23MOL   H72121885   7.768   0.680   1.877 -0.2435  0.6831 -1.1962
   23MOL   N72221886   0.158   0.548   1.765 -0.6890  0.6557 -0.3585
   23MOL   C72321887   0.271   0.469   1.718 -0.0083  0.2569  0.4974
   23MOL   C72421888   0.291   0.337   1.802 -0.9165  0.0984  0.9243
   23MOL   C72521889   0.315   0.216   1.730 -0.1409  0.1674 -0.0788
   23MOL   C72621890   0.323   0.094   1.804 -0.1125 -0.2817  0.2234
   23MOL   C72721891   0.318   0.098   1.945  0.3685 -0.3505  0.1397
   23MOL   C72821892   0.295   0.211   2.016  0.4906 -0.0203  0.3676
   23MOL   C72921893   0.281   0.332   1.942 -0.6199  0.5187  0.0463
   23MOL   C73021894   0.279   0.466   2.024  0.2505 -0.3891  0.1347
   23MOL   N73121895   0.381   0.560   1.982 -0.2364 -0.2027  0.0608
   23MOL   C73221896   0.359   0.692   1.983 -0.8929 -0.6489  0.0694
   23MOL   O73321897   0.243   0.738   2.002 -0.7142 -0.0302 -0.0010
   23MOL   C73421898   0.487   0.777   1.965 -0.5057 -0.4823  0.0120
   23MOL   C73521899   0.505   0.874   2.087 -0.0945  0.9725 -0.3935
   23MOL   C73621900   0.558   0.802   2.215  0.0507 -0.2791  0.5184
   23MOL   C73721901   0.451   0.726   2.294  0.3373 -0.1057  0.6463
   23MOL   C73821902   0.503   0.686   2.435  0.0229  0.0740  0.1727
   23MOL   C73921903   0.628   0.586   2.443  0.0152  0.7942  0.0120
   23MOL   C74021904   0.613   0.446   2.382  0.1444  0.0405 -0.9387
   23MOL   C74121905   0.515   0.348   2.448  0.4775  0.3253  0.5817
   23MOL   C74221906   0.506   0.212   2.367 -0.0689  0.3031  0.5747
   23MOL   O74321907   0.582   0.184   2.268  0.1337  0.3697 -0.4965
   23MOL   H74421908   0.183   0.610   1.841 -0.8765 -0.4566  0.6354
   23MOL   H74521909   0.362   0.528   1.731  0.2861 -0.2979  1.0227
   23MOL   H74621910   0.249   0.436   1.617 -1.9348 -2.8032  1.8250
   23MOL   H74721911   0.315   0.212   1.622 -1.0214  1.9957 -0.1539
   23MOL   H74821912   0.339   0.005   1.746  0.1181  0.1110 -0.3220
   23MOL   H74921913   0.332   0.002   1.994  0.6668 -0.5656 -0.3590
   23MOL   H75021914   0.308   0.192   2.122  1.6582 -0.9701  0.0750
   23MOL   H75121915   0.288   0.435   2.128 -1.7925  0.9300  0.7475
   23MOL   H75221916   0.178   0.506   2.012  1.0362  1.2962 -1.1580
   23MOL   H75321917   0.478   0.532   1.972 -0.3593 -0.2205 -1.1063
   23MOL   H75421918   0.477   0.837   1.874  2.8929 -1.0754 -0.8364
   23MOL   H75521919   0.580   0.722   1.951  0.0505  0.2997  0.5822
   23MOL   H75621920   0.410   0.920   2.113 -0.6638 -1.0601  1.2128
   23MOL   H75721921   0.578   0.952   2.063  1.1574 -0.0450  0.0701
   23MOL   H75821922   0.651   0.747   2.197 -0.0105 -0.6560  1.3604
   23MOL   H75921923   0.585   0.886   2.279 -2.7921  2.7665 -2.0478
   23MOL   H76021924   0.365   0.791   2.298  0.4111  0.1450 -1.1925
   23MOL   H76121925   0.410   0.632   2.256  2.0323  0.1225 -1.9238
   23MOL   H76221926   0.514   0.772   2.502 -0.1141  0.0466  0.2317
   23MOL   H76321927   0.423   0.622   2.474  1.0004 -1.5204 -0.3870
   23MOL   H76421928   0.658   0.584   2.548 -1.4455  0.0128  0.4283
   23MOL   H76521929   0.706   0.647   2.398 -1.8060  3.4181  0.2731
   23MOL   H76621930   0.588   0.462   2.277  0.4880 -0.8685 -1.1670
   23MOL   H76721931   0.712   0.401   2.383 -0.6362 -1.7243 -0.1206
   23MOL   H76821932   0.544   0.333   2.552  0.8518 -0.9962  0.2963
   23MOL   H76921933   0.412   0.385   2.455 -0.1812 -1.2979 -0.1964
   23MOL   N77021934   0.409   0.128   2.401  0.2948 -0.4828 -0.2378
   23MOL   C77121935   0.394   7.787   2.341 -0.4110  0.1620 -0.6931
   23MOL   C77221936   0.312   7.681   2.418 -0.2397  0.2365  0.1988
   23MOL   C77321937   0.369   7.559   2.460  0.4484  0.0785  0.2791
   23MOL   C77421938   0.294   7.470   2.538  0.4078  0.2348 -0.6028
   23MOL   C77521939   0.164   7.500   2.585 -0.1976 -0.4661  0.7877
   23MOL   C77621940   0.099   7.614   2.537 -0.5997 -0.4626 -0.1248
   23MOL   C77721941   0.174   7.698   2.448 -0.0129 -0.1361 -0.1205
   23MOL   C77821942   0.093   0.030   2.390  0.2736  0.6229 -1.0246
   23MOL   N77921943   0.059   0.128   2.492  0.2608 -0.3410 -0.2233
   23MOL   C78021944   0.092   0.257   2.498  0.1672  0.5398 -0.3067
   23MOL   O78121945   0.164   0.310   2.412  0.1986 -0.0818  0.3498
   23MOL   C78221946   0.033   0.340   2.610  0.1968 -0.5535  1.3421
   23MOL   C78321947   0.116   0.463   2.636  0.7829  0.3249  0.4917
   23MOL   C78421948   0.079   0.540   2.765  0.2281 -0.4778  0.0664
   23MOL   C78521949   0.128   0.691   2.764  1.1391 -0.4485 -0.1219
   23MOL   C78621950   0.281   0.703   2.750 -0.5226 -0.0378 -0.7370
   23MOL   C78721951   0.362   0.639   2.858 -1.1158 -0.3137 -0.0233
   23MOL   C78821952   0.509   0.647   2.842 -0.6568 -0.2711 -0.0261
   23MOL   C78921953   0.569   0.755   2.923 -0.0537 -0.8864  0.5483
   23MOL   C79021954   0.569   0.726   3.076 -0.0872 -0.2732  0.0559
   23MOL   O79121955   0.583   0.617   3.131 -0.3816  0.4831 -0.0523
   23MOL   H79221956   0.349   0.160   2.476  0.8313  1.5535 -0.6578
   23MOL   H79321957   0.352   7.789   2.241 -0.3549  0.4396 -0.7107
   23MOL   H79421958   0.498   7.756   2.335 -0.2497  0.7987 -1.1449
   23MOL   H79521959   0.469   7.524   2.438 -0.2304 -0.3381 -2.3264
   23MOL   H79621960   0.326   7.370   2.562  1.1500  0.7923  0.7693
   23MOL   H79721961   0.112   7.418   2.632 -0.5750  0.8507  2.7471
   23MOL   H79821962   7.784   7.619   2.561 -0.2646  0.7382  1.1119
   23MOL   H79921963   0.008   7.776   2.338 -0.0740 -1.1391  0.9493
   23MOL   H80021964   0.137   0.083   2.306 -0.5975  2.0959 -0.5608
   23MOL   H80121965   7.780   0.087   2.554  0.6311 -2.1415 -0.9596
   23MOL   H80221966   0.053   0.276   2.696  2.3833 -1.9431 -0.1409
   23MOL   H80321967   7.716   0.359   2.605  0.0058 -2.0600 -1.6612
   23MOL   H80421968   0.098   0.517   2.544  0.4785  1.3979  1.1743
   23MOL   H80521969   0.224   0.451   2.644  1.0111  2.3188  0.7008
   23MOL   H80621970   0.132   0.491   2.847  0.1560  1.1031  1.0800
   23MOL   H80721971   7.761   0.531   2.774  0.4744 -2.7352  1.1884
   23MOL   H80821972   0.075   0.730   2.677  0.6527  1.9644  1.2110
   23MOL   H80921973   0.092   0.739   2.855 -1.5016  0.6023 -1.6584
   23MOL   H81021974   0.313   0.654   2.658 -1.5935 -1.4995 -0.3328
   23MOL   H81121975   0.309   0.808   2.738  1.0907 -0.7122 -3.2855
   23MOL   H81221976   0.342   0.533   2.877 -0.1050 -0.5910 -0.4427
   23MOL   H81321977   0.333   0.703   2.941  1.5166 -1.2230  1.6934
   23MOL   H81421978   0.544   0.658   2.739 -1.4961 -2.0768 -0.5156
   23MOL   H81521979   0.551   0.554   2.880  1.9659  1.0882  0.5068
   23MOL   H81621980   0.529   0.852   2.894 -0.9567 -2.0064 -2.1686
   23MOL   H81721981   0.671   0.757   2.887 -0.9852 -1.0240 -2.2530
   23MOL   N81821982   0.563   0.836   3.150  0.8171  0.2825 -0.7314
   23MOL   C81921983   0.587   0.850   3.295 -0.2452 -0.0716  0.1261
   23MOL   C82021984   0.447   0.876   3.354  0.2681 -0.0580 -0.4612
   23MOL   C82121985   0.330   0.883   3.276  0.2142  0.1387 -0.0972
   23MOL   C82221986   0.203   0.902   3.337 -0.1567 -0.5855  0.0262
   23MOL   C82321987   0.194   0.916   3.481 -0.6328 -0.6860 -0.3844
   23MOL   C82421988   0.311   0.917   3.554 -0.3101 -0.1820  0.6817
   23MOL   C82521989   0.439   0.901   3.492  0.3101  0.0875  0.1528
   23MOL   C82621990   0.560   0.898   3.577 -0.3645  0.0601  0.2619
   23MOL   N82721991   0.565   0.784   3.673  0.1331 -0.0492 -0.1096
   23MOL   C82821992   0.678   0.760   3.743 -0.0902  0.2700  0.4723
   23MOL   O82921993   0.771   0.844   3.744  0.4322 -0.2478  0.2870
   23MOL   C83021994   0.690   0.623   3.821  0.4220  0.2382  0.1634
   23MOL   C83121995   0.785   0.529   3.746  0.7869  0.1743 -0.3378
   23MOL   C83221996   0.779   0.390   3.796  0.0868 -0.1203  0.2748
   23MOL   C83321997   0.865   0.307   3.705 -0.0805  0.5860 -0.3959
   23MOL   C83421998   0.867   0.154   3.743  0.3731  1.0718 -0.3894
   23MOL   C83521999   0.939   0.062   3.641 -0.4867  0.8935 -0.3679
   23MOL   C83622000   0.927   7.703   3.670  0.7402  0.7597  0.1410
   23MOL   C83722001   1.001   7.609   3.571  1.3241  0.0184 -0.0755
   23MOL   C83822002   0.947   7.625   3.432  0.3797 -1.0921 -0.8405
   23MOL   O83922003   0.825   7.622   3.412  0.1367 -0.2582  0.6298
   23MOL   H84022004   0.543   0.919   3.097  0.4112  0.1338 -0.8069
   23MOL   H84122005   0.614   0.760   3.350 -1.2104 -0.0258  0.6856
   23MOL   H84222006   0.654   0.934   3.318  1.4047 -1.7177  1.4944
   23MOL   H84322007   0.337   0.858   3.171  0.3822 -2.6750  0.5374
   23MOL   H84422008   0.117   0.917   3.272 -0.0639 -0.4594 -0.0691
   23MOL   H84522009   0.097   0.927   3.527 -0.2774  0.7603  0.0515
   23MOL   H84622010   0.295   0.937   3.659  0.1955 -1.9741  1.1188
   23MOL   H84722011   0.574   0.981   3.646  2.8834 -0.1336 -0.1037
   23MOL   H84822012   0.656   0.892   3.525  0.1081  0.1810  1.1132
   23MOL   H84922013   0.487   0.722   3.659  0.0689  0.2755 -1.2014
   23MOL   H85022014   0.590   0.581   3.837 -0.0581 -0.0477 -3.2984
   23MOL   H85122015   0.736   0.649   3.916  1.0964  0.0608 -0.1130
   23MOL   H85222016   0.884   0.574   3.758  0.5114  0.3514  1.2905
   23MOL   H85322017   0.767   0.552   3.641  1.3565 -1.9087 -0.9027
   23MOL   H85422018   0.677   0.354   3.780 -0.4701  1.7055 -0.3809
   23MOL   H85522019   0.808   0.388   3.901 -0.8516 -1.1832  0.5306
   23MOL   H85622020   0.830   0.310   3.602 -0.6796  0.9468 -0.1857
   23MOL   H85722021   0.965   0.348   3.720 -0.0033  0.3432 -0.2322
   23MOL   H85822022   0.887   0.137   3.849  0.8307 -0.8356 -0.7672
   23MOL   H85922023   0.761   0.131   3.727  0.2794  0.2988  1.1925
   23MOL   H86022024   1.045   0.089   3.647  0.0959 -0.7965 -2.4692
   23MOL   H86122025   0.907   0.086   3.540 -2.6155 -0.0295  0.0632
   23MOL   H86222026   0.821   7.684   3.657  1.1698 -1.4888 -0.2982
   23MOL   H86322027   0.942   7.675   3.774  0.1485 -0.0329  0.0157
   23MOL   H86422028   1.108   7.598   3.592  0.5133 -1.8493  3.5515
   23MOL   H86522029   0.969   7.508   3.597  2.0846 -0.0848  0.4831
   23MOL   N86622030   1.030   7.648   3.327 -0.0189 -0.4492  0.1978
   23MOL   C86722031   0.994   7.669   3.187  0.2895  0.0587 -0.8337
   23MOL   C86822032   1.048   0.018   3.131 -0.2461 -0.1557 -0.1832
   23MOL   C86922033   1.091   0.119   3.218  0.9168  0.5282  0.4742
   23MOL   C87022034   1.147   0.236   3.165  0.3239  0.4323 -0.5024
   23MOL   C87122035   1.153   0.256   3.023 -0.0332 -0.0486  0.4179
   23MOL   C87222036   1.110   0.155   2.934 -0.4596 -0.1471  0.4908
   23MOL   C87322037   1.057   0.039   2.987  0.7273  0.1925 -0.4610
   23MOL   C87422038   1.030   7.711   2.894  1.4182  0.3486 -0.1396
   23MOL   N87522039   1.020   7.740   2.749 -0.1479 -0.2750  0.5198
   23MOL   C87622040   1.117   7.715   2.661 -0.6261 -0.3002 -0.2164
   23MOL   O87722041   1.218   7.651   2.686  0.6945  0.6527 -0.5504
   23MOL   C87822042   1.111   7.778   2.528  0.1197 -0.8438  0.2234
   23MOL   C87922043   1.157   0.138   2.533 -0.0994  0.1466  0.0493
   23MOL   C88022044   1.126   0.226   2.410 -0.4413 -0.4448 -0.4237
   23MOL   C88122045   1.194   0.363   2.423 -0.1403  0.8808  0.8984
   23MOL   C88222046   1.170   0.444   2.306  0.1709  0.5213 -0.0813
   23MOL   C88322047   1.225   0.400   2.166 -0.8176 -0.0054 -0.2864
   23MOL   C88422048   1.201   0.494   2.055  0.0358  0.4591  0.3554
   23MOL   C88522049   1.241   0.443   1.912 -0.2037  0.4550  0.0351
   23MOL   C88622050   1.236   0.549   1.806  0.2638 -0.2640  0.3232
   23MOL   O88722051   1.197   0.660   1.836 -0.1408 -0.2184  1.0791
   23MOL   H88822052   1.127   7.624   3.339 -0.0587 -0.3208  0.7778
   23MOL   H88922053   1.042   7.585   3.136  1.2220  1.2945 -1.9944
   23MOL   H89022054   0.888   7.663   3.162  0.4114 -1.3836 -1.0506
   23MOL   H89122055   1.098   0.101   3.324 -0.0976 -2.4493  0.0804
   23MOL   H89222056   1.180   0.321   3.222  0.4994 -0.4904  0.8138
   23MOL   H89322057   1.197   0.350   2.993 -0.3441 -0.3233 -0.9129
   23MOL   H89422058   1.107   0.181   2.829 -0.5563  0.6792  0.6872
   23MOL   H89522059   0.934   7.665   2.916  2.4369 -1.2273  1.0878
   23MOL   H89622060   1.105   7.634   2.910  0.6687  0.2315  3.2104
   23MOL   H89722061   0.931   7.773   2.715 -0.4531 -2.4043 -0.8558
   23MOL   H89822062   1.009   7.781   2.491  0.5186 -1.4515 -0.9562
   23MOL   H89922063   1.180   7.720   2.467  1.0944 -1.5028  1.9470
   23MOL   H90022064   1.261   0.152   2.562 -0.5820  2.4138  0.7861
   23MOL   H90122065   1.097   0.184   2.612  1.3754  2.0691  0.0980
   23MOL   H90222066   1.161   0.176   2.320 -1.0887  0.6785 -1.3166
   23MOL   H90322067   1.018   0.236   2.397 -0.5958  0.1654  1.2130
   23MOL   H90422068   1.162   0.407   2.518 -0.7012 -0.1508  1.1971
   23MOL   H90522069   1.302   0.351   2.432  0.1804  0.5889 -2.6164
   23MOL   H90622070   1.063   0.445   2.282  0.5403  2.6241 -1.8267
   23MOL   H90722071   1.187   0.551   2.319 -1.8367  0.6768  1.5135
   23MOL   H90822072   1.186   0.301   2.141 -0.4090 -0.6783  1.6335
   23MOL   H90922073   1.333   0.389   2.173 -0.9575 -1.4925 -0.1513
   23MOL   H91022074   1.096   0.521   2.058  0.2883  1.4231  1.2014
   23MOL   H91122075   1.264   0.578   2.087 -0.2609  0.6598  0.4178
   23MOL   H91222076   1.341   0.402   1.924 -1.5128 -2.8602  0.3376
   23MOL   H91322077   1.182   0.354   1.886  0.0874  0.1760  0.3234
   23MOL   N91422078   1.285   0.516   1.684 -0.1992 -0.7472  0.4087
   23MOL   C91522079   1.267   0.603   1.563  0.0597 -0.1609 -0.4539
   23MOL   C91622080   1.367   0.588   1.447 -0.2604  0.3032  0.1017
   23MOL   C91722081   1.498   0.553   1.480  0.2280 -0.3562  0.5204
   23MOL   C91822082   1.598   0.546   1.383 -0.2553  0.0890 -0.4295
   23MOL   C91922083   1.567   0.581   1.249  0.1025  0.0891  0.0419
   23MOL   C92022084   1.431   0.625   1.214 -0.3960 -0.6219  0.9800
   23MOL   C92122085   1.334   0.631   1.314  0.2637 -0.0620  0.1945
   23MOL   C92222086   1.193   0.679   1.279 -0.0375  0.0619  0.1275
   23MOL   N92322087   1.101   0.566   1.287 -0.0449  0.8409 -0.9483
   23MOL   C92422088   0.975   0.581   1.339 -0.1198 -0.3330  0.0714
   23MOL   O92522089   0.945   0.682   1.410  0.2146 -0.0418  0.5635
   23MOL   C92622090   0.877   0.467   1.337 -0.1618  0.3942 -0.1345
   23MOL   C92722091   0.905   0.360   1.447 -0.1620  0.0548 -0.1904
   23MOL   C92822092   0.779   0.275   1.487 -0.3468  0.2256 -0.0923
   23MOL   C92922093   0.811   0.159   1.588  0.2923 -0.8451 -0.4606
   23MOL   C93022094   0.696   0.051   1.599  0.2014 -0.7436  0.5639
   23MOL   C93122095   0.748   7.720   1.672 -0.4657 -0.5206 -0.2135
   23MOL   C93222096   0.834   7.730   1.798 -0.1525  0.0797 -0.8294
   23MOL   C93322097   0.773   0.020   1.912 -0.7506  0.0576  0.7467
   23MOL   C93422098   0.849   0.044   2.043  0.0823  0.7796  0.2073
   23MOL   O93522099   0.945   7.765   2.084  0.1670 -0.2832  1.0474
   23MOL   H93622100   1.308   0.421   1.662 -0.5467 -0.6325 -0.4817
   23MOL   H93722101   1.172   0.559   1.534  1.0652 -1.6856 -1.4820
   23MOL   H93822102   1.246   0.705   1.595  0.0340 -1.0606  2.5873
   23MOL   H93922103   1.514   0.523   1.583 -0.7483  1.6848  1.2881
   23MOL   H94022104   1.695   0.506   1.409  0.2486  0.0092 -2.3241
   23MOL   H94122105   1.648   0.590   1.178  1.0286  0.8175  1.1809
   23MOL   H94222106   1.408   0.641   1.110  1.6957  0.4280  0.6489
   23MOL   H94322107   1.176   0.707   1.175  0.7551 -0.4024 -0.1306
   23MOL   H94422108   1.162   0.762   1.342  0.7543  0.1891  0.3618
   23MOL   H94522109   1.114   0.489   1.224  0.3818 -1.7071  2.1483
   23MOL   H94622110   0.876   0.417   1.240 -0.6280 -1.2097  0.6815
   23MOL   H94722111   0.780   0.511   1.360 -0.4841 -0.1343 -0.4736
   23MOL   H94822112   0.946   0.402   1.539  0.2729  2.0173 -1.2659
   23MOL   H94922113   0.977   0.285   1.413 -0.7769 -0.8801  0.5124
   23MOL   H95022114   0.701   0.327   1.543 -0.1861  1.3847 -0.9319
   23MOL   H95122115   0.737   0.227   1.399  0.2128  0.1699 -0.3312
   23MOL   H95222116   0.901   0.104   1.559 -0.1816 -1.7034 -0.3151
   23MOL   H95322117   0.833   0.205   1.685 -2.2881  0.3666 -0.4027
   23MOL   H95422118   0.669   0.026   1.497  0.8416  0.8578 -0.0201
   23MOL   H95522119   0.605   0.090   1.645  0.4859 -2.3667  2.5653
   23MOL   H95622120   0.659   7.661   1.697 -1.9271  1.8520  0.2967
   23MOL   H95722121   0.784   7.654   1.593  0.5485  0.3792 -0.5100
   23MOL   H95822122   0.923   7.788   1.773  0.1184  0.7338  1.4991
   23MOL   H95922123   0.855   7.633   1.843 -4.2389 -0.8190 -0.6347
   23MOL   H96022124   0.683   7.751   1.927  0.0317 -1.7734 -1.3724
   23MOL   H96122125   0.736   0.116   1.875 -1.2767 -0.5821 -0.4311
   23MOL   H96222126   0.822   0.138   2.091 -0.3955  1.3157 -1.0964
   24MOL     N122127   6.739   3.879   3.229  0.1015  0.3746  0.5920
   24MOL     C222128   6.762   3.832   3.366 -0.6579  0.5916 -0.5747
   24MOL     C322129   6.637   3.772   3.414 -0.0420 -0.5695 -0.3524
   24MOL     C422130   6.640   3.632   3.439 -0.3985 -0.0699  0.5292
   24MOL     C522131   6.516   3.566   3.460 -0.5303 -0.8051  0.2884
   24MOL     C622132   6.394   3.644   3.477  0.1000 -0.1875 -0.1496
   24MOL     C722133   6.397   3.780   3.455  0.2601 -0.2956 -0.4767
   24MOL     C822134   6.520   3.846   3.429  0.1968 -0.0274 -0.5759
   24MOL     C922135   6.512   4.002   3.424  0.1299 -0.4150  0.2807
   24MOL    N1022136   6.408   4.043   3.331 -0.0665 -0.4274  0.3462
   24MOL    C1122137   6.304   4.125   3.349 -0.1156 -0.3226 -0.0919
   24MOL    O1222138   6.297   4.193   3.450 -0.4133 -0.6968  0.3908
   24MOL    C1322139   6.213   4.142   3.231 -0.3140  0.1402  0.0988
   24MOL    C1422140   6.079   4.067   3.240  1.0729  0.1919  0.1734
   24MOL    C1522141   6.034   4.027   3.095  0.1138 -0.0733  0.7316
   24MOL    C1622142   6.002   4.147   3.003  0.0481  0.2759  0.1502
   24MOL    C1722143   5.871   4.212   3.026 -0.9134  0.2344  0.4512
   24MOL    C1822144   5.857   4.338   2.946  0.0579  0.4011  0.6288
   24MOL    C1922145   5.737   4.420   2.993 -0.6068 -0.0179 -0.1150
   24MOL    C2022146   5.712   4.551   2.909  0.2668 -0.4071  0.1903
   24MOL    C2122147   5.634   4.662   2.979  0.9160 -0.5738  0.1789
   24MOL    O2222148   5.627   4.663   3.099  0.4975  0.1451  0.0936
   24MOL    H2322149   6.646   3.875   3.190  1.0052 -0.4012 -1.5186
   24MOL    H2422150   6.847   3.763   3.369  0.4528  1.9699  0.0400
   24MOL    H2522151   6.785   3.909   3.439 -0.5051  0.3321 -0.3464
   24MOL    H2622152   6.733   3.578   3.434 -0.5715 -0.2043 -1.5767
   24MOL    H2722153   6.508   3.458   3.468 -0.3568 -0.7978  0.5493
   24MOL    H2822154   6.299   3.593   3.483  1.0822 -1.9586  0.3925
   24MOL    H2922155   6.306   3.837   3.457  0.5732  0.2110 -0.8551
   24MOL    H3022156   6.599   4.051   3.379 -0.3632  1.9126  1.7368
   24MOL    H3122157   6.494   4.041   3.524 -1.5930  0.7147 -0.4407
   24MOL    H3222158   6.419   4.001   3.240 -0.3497  1.7568 -0.7133
   24MOL    H3322159   6.279   4.113   3.149  0.2631 -2.8680  1.5496
   24MOL    H3422160   6.189   4.248   3.223 -3.1135 -0.5510 -1.3407
   24MOL    H3522161   6.004   4.132   3.284 -0.0854  1.0706 -2.9808
   24MOL    H3622162   6.083   3.977   3.302  0.1672 -0.2992 -0.4610
   24MOL    H3722163   6.107   3.959   3.050 -0.4008 -0.1467  0.0058
   24MOL    H3822164   5.943   3.967   3.097  0.7714 -1.1483 -0.8015
   24MOL    H3922165   6.080   4.222   3.014 -0.5514  1.0160 -0.5317
   24MOL    H4022166   6.018   4.116   2.899 -2.8524  1.1809 -0.6157
   24MOL    H4122167   5.796   4.142   2.989 -0.3788 -1.0175  1.7320
   24MOL    H4222168   5.859   4.232   3.132 -0.4165  0.5269  0.4563
   24MOL    H4322169   5.867   4.324   2.838  0.8407  1.0527  0.6092
   24MOL    H4422170   5.942   4.400   2.975  2.0952 -1.0569 -1.9786
   24MOL    H4522171   5.649   4.356   2.990  0.2224 -1.2454  1.2309
   24MOL    H4622172   5.735   4.440   3.100 -1.1006  0.6478 -0.2425
   24MOL    H4722173   5.640   4.522   2.832  1.7269 -1.3286 -0.8335
   24MOL    H4822174   5.796   4.594   2.854 -1.6435  2.5188 -0.5954
   24MOL    H4922175   6.777   3.972   3.216  1.7855 -0.2962  0.5962
   24MOL    N5022176   5.569   4.749   2.910 -0.3350 -0.1738 -0.1116
   24MOL    C5122177   5.511   4.877   2.948 -0.5400 -1.1005  0.5794
   24MOL    C5222178   5.497   4.964   2.821 -0.2425 -0.1960  0.4962
   24MOL    C5322179   5.598   5.059   2.795  0.6066  0.6117 -0.3251
   24MOL    C5422180   5.589   5.153   2.686  0.3720  0.6254  0.2376
   24MOL    C5522181   5.488   5.144   2.598  0.1718 -0.3426  0.0937
   24MOL    C5622182   5.388   5.046   2.619 -0.0905  0.3617 -0.6269
   24MOL    C5722183   5.390   4.952   2.729  0.1935 -0.5249 -0.1990
   24MOL    C5822184   5.283   4.845   2.741 -0.1327  0.3564  0.5955
   24MOL    N5922185   5.284   4.781   2.615 -0.2006 -0.7307  0.0475
   24MOL    C6022186   5.377   4.691   2.580  1.0475  0.1521 -0.5744
   24MOL    O6122187   5.431   4.619   2.665 -0.3711  0.4087 -0.3511
   24MOL    C6222188   5.432   4.692   2.437  0.7495  0.2224  0.3785
   24MOL    C6322189   5.580   4.656   2.422 -0.6275  0.0724  0.3276
   24MOL    C6422190   5.675   4.754   2.486 -1.3498 -0.0936  0.0127
   24MOL    C6522191   5.823   4.711   2.490 -0.6400 -0.7262  0.5614
   24MOL    C6622192   5.851   4.572   2.548  0.6458  0.8232 -0.3411
   24MOL    C6722193   6.003   4.551   2.560  0.0303  0.0018 -0.0724
   24MOL    C6822194   6.056   4.613   2.690  0.6340 -0.2820 -0.2173
   24MOL    C6922195   6.214   4.615   2.685  0.3421  0.3483 -0.4860
   24MOL    C7022196   6.273   4.494   2.753  0.3928 -0.2095  0.8271
   24MOL    O7122197   6.282   4.490   2.872 -0.0435  0.2101  0.6988
   24MOL    H7222198   5.563   4.737   2.810 -0.3362  1.5160 -0.3303
   24MOL    H7322199   5.577   4.938   3.009 -0.3283 -0.6345 -0.1093
   24MOL    H7422200   5.410   4.865   2.987 -0.9197  0.2155  0.0284
   24MOL    H7522201   5.684   5.060   2.860  1.1787 -0.6437 -1.0510
   24MOL    H7622202   5.671   5.222   2.674  1.7342 -1.1336 -0.7997
   24MOL    H7722203   5.470   5.215   2.519  2.7406 -0.8967 -1.0539
   24MOL    H7822204   5.306   5.041   2.549 -0.0238  2.8325 -0.9350
   24MOL    H7922205   5.185   4.885   2.764  0.5812  2.2414  0.4942
   24MOL    H8022206   5.303   4.770   2.817  0.6059  1.5977  1.6521
   24MOL    H8122207   5.240   4.829   2.538 -0.5171 -0.4206  0.4181
   24MOL    H8222208   5.414   4.793   2.402  1.8292 -0.2822 -1.7320
   24MOL    H8322209   5.387   4.619   2.370  3.4451 -2.1488  1.0230
   24MOL    H8422210   5.608   4.649   2.317 -0.4675 -0.8634  0.4227
   24MOL    H8522211   5.594   4.556   2.465 -1.0855 -0.1898 -0.1333
   24MOL    H8622212   5.674   4.855   2.445 -1.8012  0.7930  2.1181
   24MOL    H8722213   5.647   4.759   2.591 -1.2034 -0.7861  0.0912
   24MOL    H8822214   5.871   4.730   2.394  0.2384 -2.3160  0.6582
   24MOL    H8922215   5.880   4.783   2.549 -0.4336 -0.9103  0.5889
   24MOL    H9022216   5.794   4.565   2.641 -0.8383 -0.9312 -1.3485
   24MOL    H9122217   5.811   4.498   2.479  0.9843  0.5609 -0.2554
   24MOL    H9222218   6.054   4.589   2.471 -1.2643  1.3436 -0.2712
   24MOL    H9322219   6.014   4.443   2.554  0.4366  0.0981 -1.1142
   24MOL    H9422220   6.018   4.555   2.774  0.2807 -1.3201 -1.0756
   24MOL    H9522221   6.008   4.710   2.703 -0.7510 -0.4633 -3.5576
   24MOL    H9622222   6.247   4.703   2.741 -1.9226 -0.2377  1.8872
   24MOL    H9722223   6.251   4.618   2.583  2.5384 -2.5007  0.1671
   24MOL    N9822224   6.316   4.399   2.665 -0.0472  0.4658 -0.5760
   24MOL    C9922225   6.360   4.270   2.688 -0.0595 -0.9575 -0.2161
   24MOL   C10022226   6.246   4.159   2.681  0.1850 -0.6318 -1.0706
   24MOL   C10122227   6.131   4.177   2.596  0.3084 -0.1016  0.0252
   24MOL   C10222228   6.032   4.083   2.591  0.1306 -0.1394  0.0248
   24MOL   C10322229   6.045   3.966   2.670 -0.4093  0.0019  0.1065
   24MOL   C10422230   6.153   3.945   2.754  0.0596 -0.2069  0.1731
   24MOL   C10522231   6.261   4.039   2.753 -0.1360 -0.8398 -0.8095
   24MOL   C10622232   6.380   4.017   2.850 -0.3790 -0.5269  0.5572
   24MOL   N10722233   6.404   3.880   2.891 -0.1145  0.0246 -0.1055
   24MOL   C10822234   6.456   3.844   3.007  0.6496 -0.0912  0.5686
   24MOL   O10922235   6.486   3.930   3.089 -0.5659  0.2743 -0.2539
   24MOL   C11022236   6.491   3.699   3.025  0.5751 -0.0855  0.4002
   24MOL   C11122237   6.401   3.627   3.124 -0.4844 -0.3247 -0.3644
   24MOL   C11222238   6.250   3.622   3.075  0.2899 -0.2870 -0.1707
   24MOL   C11322239   6.156   3.567   3.186  0.7978  0.2501  0.4916
   24MOL   C11422240   6.193   3.426   3.234  0.5196  0.3404 -0.3537
   24MOL   C11522241   6.202   3.324   3.121  0.4581  0.4573 -0.4726
   24MOL   C11622242   6.284   3.193   3.163  0.0917  0.7251  0.5579
   24MOL   C11722243   6.264   3.076   3.058  0.2940  0.0851 -0.1351
   24MOL   C11822244   6.337   3.100   2.926  0.2527 -0.4007 -0.0327
   24MOL   O11922245   6.425   3.187   2.921 -0.0666 -0.4255 -0.5461
   24MOL   H12022246   6.315   4.415   2.566 -4.0935  3.1255 -0.2121
   24MOL   H12122247   6.427   4.248   2.605  0.1739 -0.8519 -0.0559
   24MOL   H12222248   6.427   4.264   2.774  0.3470  1.0274 -0.3618
   24MOL   H12322249   6.113   4.255   2.523 -0.8463 -0.9184 -0.5664
   24MOL   H12422250   5.942   4.098   2.534  0.1576 -2.0550 -0.5246
   24MOL   H12522251   5.964   3.895   2.683 -0.5030  0.2487  0.8913
   24MOL   H12622252   6.163   3.851   2.806  0.5845 -0.3402 -0.1641
   24MOL   H12722253   6.368   4.089   2.931  0.5707 -1.4972  1.5867
   24MOL   H12822254   6.463   4.046   2.787 -1.5719  1.3643 -0.1759
   24MOL   H12922255   6.383   3.799   2.834 -0.1230 -1.8220  2.4255
   24MOL   H13022256   6.594   3.696   3.062  0.4213 -2.8575  0.6963
   24MOL   H13122257   6.489   3.645   2.930  3.3797  1.4979 -0.6245
   24MOL   H13222258   6.388   3.687   3.214  0.3694  0.7821 -0.9620
   24MOL   H13322259   6.442   3.536   3.170  0.9760  1.1685  1.3676
   24MOL   H13422260   6.209   3.719   3.047  1.4623 -0.0126 -1.0088
   24MOL   H13522261   6.237   3.567   2.982  3.0620 -0.0710 -0.7505
   24MOL   H13622262   6.154   3.624   3.279 -0.7903  0.9068  0.0597
   24MOL   H13722263   6.060   3.558   3.135  1.0306  0.8765 -0.0695
   24MOL   H13822264   6.289   3.435   3.283  1.0738  0.2791 -1.4152
   24MOL   H13922265   6.117   3.392   3.305  1.2532 -0.1111  0.2194
   24MOL   H14022266   6.235   3.356   3.023  0.4493  0.5176 -0.4565
   24MOL   H14122267   6.101   3.298   3.089  1.1177 -2.1606 -0.5251
   24MOL   H14222268   6.390   3.211   3.181  0.4276 -0.7088  0.0830
   24MOL   H14322269   6.240   3.156   3.255 -2.8403 -1.4898 -1.6408
   24MOL   H14422270   6.163   3.054   3.023  0.9781 -0.5871 -1.7430
   24MOL   H14522271   6.299   2.980   3.097 -2.0165 -1.1412 -0.9972
   24MOL   N14622272   6.313   3.014   2.828 -0.2044 -0.0315 -0.2990
   24MOL   C14722273   6.400   3.000   2.714  0.1434 -0.3205 -0.0207
   24MOL   C14822274   6.333   3.044   2.590  0.3248  0.5029  0.1784
   24MOL   C14922275   6.367   3.166   2.532  0.3837 -0.3550 -0.0762
   24MOL   C15022276   6.313   3.223   2.419  0.5564  0.3387 -0.2413
   24MOL   C15122277   6.213   3.150   2.359 -0.8444 -0.3074  0.5240
   24MOL   C15222278   6.174   3.030   2.410 -0.1719  0.7968 -0.2470
   24MOL   C15322279   6.243   2.971   2.518  0.0867  0.0505  0.2999
   24MOL   C15422280   6.193   2.836   2.560 -0.0648  0.2204 -0.2400
   24MOL   N15522281   6.049   2.825   2.579 -0.2154  0.5877  0.1425
   24MOL   C15622282   5.988   2.851   2.693  0.0253  0.3497 -0.2440
   24MOL   O15722283   6.060   2.863   2.800 -0.1891  0.3490  0.2118
   24MOL   C15822284   5.835   2.867   2.697  0.0284 -0.4821  0.4875
   24MOL   C15922285   5.777   2.947   2.819  0.5669  0.3118  0.2375
   24MOL   C16022286   5.784   3.101   2.816  0.2685 -0.2570  0.4922
   24MOL   C16122287   5.919   3.163   2.778  0.2618  0.4197  0.4564
   24MOL   C16222288   5.904   3.307   2.759 -0.3950 -0.2135  0.2805
   24MOL   C16322289   6.039   3.366   2.720  0.0623  0.4838  0.4059
   24MOL   C16422290   6.041   3.514   2.679 -0.6850  0.0140 -0.4831
   24MOL   C16522291   6.166   3.551   2.594  0.3898  0.6330  0.2466
   24MOL   C16622292   6.290   3.561   2.676 -0.5136 -0.3198 -0.5659
   24MOL   O16722293   6.312   3.663   2.744  0.1497  0.2170  0.1480
   24MOL   H16822294   6.259   2.931   2.850  0.7308 -0.2606  1.2511
   24MOL   H16922295   6.416   2.894   2.700 -0.8690 -0.3748 -0.8522
   24MOL   H17022296   6.501   3.039   2.721  0.3168 -0.2826 -2.3145
   24MOL   H17122297   6.453   3.212   2.578 -0.6534  0.3087  1.2423
   24MOL   H17222298   6.361   3.311   2.379  0.9997 -0.4028 -1.3596
   24MOL   H17322299   6.185   3.189   2.262  2.7532 -1.3145 -0.9901
   24MOL   H17422300   6.101   2.979   2.348  0.6207  0.3997 -0.8672
   24MOL   H17522301   6.245   2.781   2.639  0.5098 -0.1500 -0.8658
   24MOL   H17622302   6.212   2.768   2.476  1.0064  0.2748 -0.0569
   24MOL   H17722303   5.991   2.794   2.503 -0.8051  1.0411  0.3982
   24MOL   H17822304   5.793   2.767   2.696 -1.1799  0.0124  1.0575
   24MOL   H17922305   5.801   2.911   2.603  1.4320 -0.5976 -0.0834
   24MOL   H18022306   5.818   2.910   2.914  0.9130 -0.3794 -0.1779
   24MOL   H18122307   5.669   2.928   2.822  0.4315  1.0564  0.0322
   24MOL   H18222308   5.715   3.112   2.732 -1.0550 -1.8539  1.3255
   24MOL   H18322309   5.749   3.154   2.904 -3.3010  1.6133 -1.9341
   24MOL   H18422310   5.984   3.140   2.862  1.5102  0.5733 -0.4554
   24MOL   H18522311   5.957   3.121   2.685  0.4222 -1.8877  1.5190
   24MOL   H18622312   5.843   3.335   2.674  0.6797  0.2861 -0.3352
   24MOL   H18722313   5.865   3.354   2.849  0.0480 -0.8170  0.7957
   24MOL   H18822314   6.066   3.306   2.633 -3.0015 -0.4871  0.0652
   24MOL   H18922315   6.121   3.360   2.792  0.8284 -0.6660 -0.5493
   24MOL   H19022316   5.955   3.522   2.613 -0.1024  1.4257 -1.0904
   24MOL   H19122317   6.027   3.589   2.756 -1.4694 -0.5820 -0.0372
   24MOL   H19222318   6.156   3.647   2.543 -0.7697 -0.6395 -1.9926
   24MOL   H19322319   6.183   3.487   2.508  0.3986 -0.5945  1.1531
   24MOL   N19422320   6.381   3.464   2.671  0.9017 -0.0246  0.8094
   24MOL   C19522321   6.509   3.472   2.723  0.6304 -0.0252 -0.2955
   24MOL   C19622322   6.608   3.387   2.659  0.2716 -0.2898 -0.0399
   24MOL   C19722323   6.664   3.272   2.725  0.5737  0.2006  0.7115
   24MOL   C19822324   6.767   3.202   2.665  0.3075 -0.4956  0.5148
   24MOL   C19922325   6.825   3.246   2.539  0.2813  0.4557  0.1035
   24MOL   C20022326   6.771   3.356   2.475 -0.3644  1.0237 -0.0475
   24MOL   C20122327   6.671   3.430   2.537  0.3806 -0.4833  0.4671
   24MOL   C20222328   6.623   3.559   2.460 -0.3616 -0.6474  0.1202
   24MOL   N20322329   6.734   3.634   2.419  0.1708  0.0426 -0.0395
   24MOL   C20422330   6.745   3.703   2.302 -0.0922  0.5826  0.8590
   24MOL   O20522331   6.665   3.689   2.206  0.1450  0.1828  0.0413
   24MOL   C20622332   6.844   3.812   2.296 -0.1330 -0.6004  0.1667
   24MOL   C20722333   6.972   3.778   2.219 -0.4105 -0.3626 -0.7213
   24MOL   C20822334   7.044   3.902   2.150 -0.7308 -0.2998 -0.5421
   24MOL   C20922335   7.129   3.984   2.251 -0.0851 -0.2604 -0.2147
   24MOL   C21022336   7.039   4.088   2.319  0.1332 -0.5235 -0.5077
   24MOL   C21122337   7.106   4.161   2.433  0.5592  0.0624 -0.2648
   24MOL   C21222338   7.098   4.092   2.576  0.0927  0.0260  0.2695
   24MOL   C21322339   7.165   4.169   2.691 -0.9998 -0.5028 -0.0048
   24MOL   C21422340   7.166   4.095   2.824  0.8074 -0.7330 -0.2148
   24MOL   O21522341   7.175   3.972   2.828 -0.2168 -0.1298 -0.4415
   24MOL   H21622342   6.352   3.382   2.619 -1.8942 -1.7081  4.7364
   24MOL   H21722343   6.551   3.572   2.739 -0.5332  0.5941 -1.0374
   24MOL   H21822344   6.504   3.443   2.828  2.7318 -1.7547 -0.6370
   24MOL   H21922345   6.636   3.249   2.826  2.5619  1.4399  1.5804
   24MOL   H22022346   6.812   3.120   2.718  1.0496 -0.6066 -0.2828
   24MOL   H22122347   6.915   3.202   2.499  0.6332 -1.0357  2.4777
   24MOL   H22222348   6.821   3.392   2.386 -0.6445 -2.5999 -1.7805
   24MOL   H22322349   6.558   3.630   2.512 -0.4870 -0.4866 -0.2569
   24MOL   H22422350   6.566   3.514   2.379  1.6945  0.2517 -1.8556
   24MOL   H22522351   6.804   3.658   2.488 -0.2136  0.0316  0.3505
   24MOL   H22622352   6.858   3.848   2.398  2.7149 -0.8536 -0.0844
   24MOL   H22722353   6.804   3.904   2.254  1.6933 -0.4419 -1.3282
   24MOL   H22822354   7.043   3.729   2.286 -0.9274  0.9873  0.8635
   24MOL   H22922355   6.946   3.697   2.150  0.1544  0.4097 -1.8410
   24MOL   H23022356   7.102   3.860   2.068 -0.7578 -0.4560 -0.4787
   24MOL   H23122357   6.967   3.965   2.105 -0.1844 -0.7498 -2.1328
   24MOL   H23222358   7.167   3.908   2.319  0.8821 -0.4706 -0.9689
   24MOL   H23322359   7.214   4.030   2.201  0.1514 -0.3308  0.1210
   24MOL   H23422360   6.992   4.149   2.242  0.8020  0.8850  0.1886
   24MOL   H23522361   6.954   4.041   2.369 -0.4021  0.9280 -0.0123
   24MOL   H23622362   7.052   4.256   2.440 -0.4524 -0.5344  0.2249
   24MOL   H23722363   7.210   4.164   2.404  0.7414  2.1788  0.4850
   24MOL   H23822364   7.140   3.991   2.569 -1.8666 -0.9137  1.4162
   24MOL   H23922365   6.993   4.073   2.600  0.1974  0.2775  0.9386
   24MOL   H24022366   7.262   4.204   2.657 -1.9753  1.2290 -1.0924
   24MOL   H24122367   7.111   4.263   2.707  0.4240  0.2363  0.6145
   24MOL   N24222368   7.153   4.158   2.943  0.4167 -0.2223  0.5528
   24MOL   C24322369   7.131   4.102   3.073  0.0889  0.4952 -0.8255
   24MOL   C24422370   7.192   4.184   3.179  0.3896 -0.1041 -0.5781
   24MOL   C24522371   7.318   4.155   3.225  1.1244  0.3006  0.1768
   24MOL   C24622372   7.392   4.253   3.302  0.5693  0.4692  0.4216
   24MOL   C24722373   7.326   4.371   3.332 -0.1373 -0.2312  0.0191
   24MOL   C24822374   7.195   4.402   3.293  0.2508 -0.1264 -0.9312
   24MOL   C24922375   7.125   4.304   3.221  0.6575  0.2731 -0.2854
   24MOL   C25022376   6.987   4.339   3.178 -0.3293 -0.6305 -0.1733
   24MOL   N25122377   6.913   4.374   3.300 -0.5525  0.5675  0.2681
   24MOL   C25222378   6.860   4.280   3.378  1.0279 -0.4324  0.0637
   24MOL   O25322379   6.844   4.163   3.341  0.4476 -0.4511 -0.2436
   24MOL   C25422380   6.805   4.325   3.510 -0.0588 -0.2790  0.1196
   24MOL   C25522381   6.747   4.215   3.603 -0.0070  0.4839 -0.3772
   24MOL   C25622382   6.711   4.274   3.741  0.1376 -0.2199  0.1887
   24MOL   C25722383   6.579   4.351   3.771 -0.2014  0.5225  0.0284
   24MOL   C25822384   6.563   4.489   3.705  0.0068 -0.0124  0.3767
   24MOL   C25922385   6.655   4.583   3.771  0.5048 -0.7055  0.3518
   24MOL   C26022386   6.619   4.736   3.766 -0.3322 -0.0759  0.4751
   24MOL   C26122387   6.719   4.832   3.829 -0.1017  0.5205  0.4119
   24MOL   C26222388   6.705   4.973   3.761  0.0513 -0.3101 -0.4951
   24MOL   O26322389   6.592   5.026   3.743  0.0353  0.2065 -0.6604
   24MOL   H26422390   7.158   4.259   2.940 -0.5098 -0.1696  0.5776
   24MOL   H26522391   7.024   4.088   3.090  0.7218 -0.9501  2.1635
   24MOL   H26622392   7.175   4.002   3.080 -0.9326  0.1174  0.3143
   24MOL   H26722393   7.363   4.061   3.197 -1.4460 -1.2077  0.8766
   24MOL   H26822394   7.488   4.227   3.344  0.3831 -1.9506 -0.5553
   24MOL   H26922395   7.375   4.445   3.393 -1.1961  1.6240 -1.3209
   24MOL   H27022396   7.150   4.494   3.329 -2.4138 -0.7640 -2.4555
   24MOL   H27122397   6.929   4.265   3.123 -0.1049 -0.3703 -0.7632
   24MOL   H27222398   7.003   4.431   3.122  3.1302 -0.8557  0.2965
   24MOL   H27322399   6.893   4.472   3.310  0.3227  0.6079  1.9077
   24MOL   H27422400   6.724   4.395   3.488  1.4802  0.8468 -2.0604
   24MOL   H27522401   6.886   4.382   3.557  0.4868 -1.3528  0.5000
   24MOL   H27622402   6.822   4.137   3.609 -0.9743 -0.3428  0.9906
   24MOL   H27722403   6.660   4.167   3.559  0.2048 -0.3467  0.1115
   24MOL   H27822404   6.794   4.338   3.771 -0.6893  1.4489 -0.9815
   24MOL   H27922405   6.706   4.195   3.815  0.3209  2.1169  2.7590
   24MOL   H28022406   6.504   4.285   3.727  1.7349  0.4303 -3.3370
   24MOL   H28122407   6.552   4.364   3.876 -0.2154 -0.4951  0.1634
   24MOL   H28222408   6.571   4.488   3.597  1.5059  0.1359  0.4859
   24MOL   H28322409   6.462   4.529   3.720  0.6598  2.1698 -0.9019
   24MOL   H28422410   6.754   4.566   3.728 -0.0718  3.5746 -3.0450
   24MOL   H28522411   6.652   4.567   3.879 -1.3480  0.2066  0.4584
   24MOL   H28622412   6.621   4.764   3.660 -0.3303 -1.4694  0.0981
   24MOL   H28722413   6.516   4.761   3.789  1.0208  2.4220  4.3370
   24MOL   H28822414   6.705   4.846   3.936  1.3618  1.1487  0.5361
   24MOL   H28922415   6.824   4.804   3.815  0.1990  2.2719 -0.9991
   24MOL   N29022416   6.815   5.038   3.733  0.5030  0.1258  0.1157
   24MOL   C29122417   6.818   5.168   3.671 -0.1512  0.2148 -0.2866
   24MOL   C29222418   6.897   5.175   3.545 -0.1170  0.4135  0.4339
   24MOL   C29322419   7.038   5.175   3.560  0.5480  0.2547  0.0889
   24MOL   C29422420   7.128   5.161   3.455 -0.3772 -0.3764  0.2459
   24MOL   C29522421   7.072   5.152   3.327  0.3412  0.6781 -0.1516
   24MOL   C29622422   6.935   5.148   3.308  0.9562  0.0172  0.3049
   24MOL   C29722423   6.842   5.155   3.416  0.0182  0.1932  0.4288
   24MOL   C29822424   6.692   5.120   3.400 -0.7456  0.5314 -0.1247
   24MOL   N29922425   6.667   5.053   3.272 -0.3333 -0.1990  0.5003
   24MOL   C30022426   6.612   5.116   3.170 -0.0924 -0.3935  0.3672
   24MOL   O30122427   6.582   5.232   3.162 -0.2478  0.1363  0.4606
   24MOL   C30222428   6.543   5.010   3.068 -0.7252  0.4892 -0.0469
   24MOL   C30322429   6.399   5.040   3.043  0.0420 -0.2091  0.1435
   24MOL   C30422430   6.340   4.914   2.970  0.3463 -0.8876  0.7017
   24MOL   C30522431   6.202   4.965   2.918  0.2429 -0.1926 -0.0806
   24MOL   C30622432   6.107   5.007   3.029 -0.2008  0.3830 -0.1498
   24MOL   C30722433   6.057   4.894   3.113  0.9443 -0.2518 -0.4102
   24MOL   C30822434   5.929   4.945   3.190 -0.1377  0.4456  0.0864
   24MOL   C30922435   5.853   4.838   3.268  0.3612 -0.2363 -0.4569
   24MOL   C31022436   5.729   4.908   3.329  0.5690  0.2316 -0.2110
   24MOL   O31122437   5.734   5.000   3.406 -0.0566  0.4303 -0.7931
   24MOL   H31222438   6.902   4.992   3.758  0.0842 -1.6318 -1.5338
   24MOL   H31322439   6.719   5.210   3.654 -0.0632  1.2690  1.6457
   24MOL   H31422440   6.859   5.240   3.742 -2.9422 -0.5245  2.1656
   24MOL   H31522441   7.073   5.183   3.662 -1.9569  0.7323  0.9428
   24MOL   H31622442   7.232   5.170   3.483 -1.0333  2.0665  1.9898
   24MOL   H31722443   7.139   5.148   3.242  1.6482  2.3597  0.7721
   24MOL   H31822444   6.903   5.135   3.206 -0.2582  2.1651  0.3655
   24MOL   H31922445   6.633   5.210   3.417 -1.7851 -0.0825 -0.4300
   24MOL   H32022446   6.666   5.065   3.490 -0.9087  1.8185  0.6256
   24MOL   H32122447   6.689   4.955   3.259 -2.5951 -0.6023 -0.4199
   24MOL   H32222448   6.602   4.995   2.978  0.8732 -1.2105  1.2569
   24MOL   H32322449   6.549   4.907   3.106 -0.4512 -0.0226 -1.4530
   24MOL   H32422450   6.384   5.138   2.997  0.0443  0.3453  1.2931
   24MOL   H32522451   6.344   5.051   3.136  0.2065  1.1726  0.0860
   24MOL   H32622452   6.323   4.819   3.022 -1.4998 -2.2705 -2.2549
   24MOL   H32722453   6.388   4.880   2.878  0.4040 -4.2365  1.8826
   24MOL   H32822454   6.208   5.028   2.830  2.3285 -2.9250 -1.9719
   24MOL   H32922455   6.159   4.883   2.860 -1.2592 -0.3597  1.2187
   24MOL   H33022456   6.133   5.095   3.087 -0.1087 -0.4411  1.0689
   24MOL   H33122457   6.034   5.055   2.964 -0.6720 -0.9893 -0.6528
   24MOL   H33222458   6.139   4.878   3.183 -0.1323  0.4847  1.0293
   24MOL   H33322459   6.044   4.799   3.061  0.8438 -0.2415 -0.4022
   24MOL   H33422460   5.958   5.027   3.256  4.1700 -2.2428  1.7194
   24MOL   H33522461   5.851   4.989   3.127 -2.4321 -2.5419  0.7145
   24MOL   H33622462   5.833   4.746   3.214  1.3660 -0.3773 -0.6040
   24MOL   H33722463   5.916   4.807   3.352  0.3880  1.4576  0.1849
   24MOL   N33822464   5.610   4.865   3.289  0.5099 -0.6155  0.3507
   24MOL   C33922465   5.475   4.928   3.314 -0.1521  0.0986 -0.3975
   24MOL   C34022466   5.367   4.838   3.392  0.2873  0.0251 -0.2233
   24MOL   C34122467   5.387   4.699   3.397 -0.5038  0.1514 -0.4698
   24MOL   C34222468   5.295   4.608   3.450 -0.5480  0.4392 -1.2336
   24MOL   C34322469   5.168   4.660   3.496  0.5983 -0.0093  0.2251
   24MOL   C34422470   5.140   4.801   3.496  0.0870 -0.4351  0.0338
   24MOL   C34522471   5.242   4.888   3.445  0.0796 -0.2478  0.5437
   24MOL   C34622472   5.222   5.036   3.442  0.0650  0.0706  0.3143
   24MOL   N34722473   5.174   5.073   3.313 -0.2632 -0.5857  0.4966
   24MOL   C34822474   5.049   5.107   3.283 -0.1777  0.5735 -0.9212
   24MOL   O34922475   4.951   5.083   3.354  0.1601 -0.0740  0.2039
   24MOL   C35022476   5.030   5.188   3.156  0.2438 -0.0973 -0.1118
   24MOL   C35122477   4.952   5.124   3.040  0.1829 -0.7813 -0.0935
   24MOL   C35222478   4.809   5.078   3.072 -0.2274  0.1884  0.1361
   24MOL   C35322479   4.721   5.191   3.126 -0.1450 -0.4888  0.2005
   24MOL   C35422480   4.573   5.153   3.145 -0.2030  0.3740 -0.1773
   24MOL   C35522481   4.485   5.273   3.181 -0.1092 -0.0281 -0.1887
   24MOL   C35622482   4.463   5.371   3.071  0.0467  0.1237  0.2313
   24MOL   C35722483   4.417   5.505   3.123 -0.1636  0.2026  0.1433
   24MOL   C35822484   4.407   5.612   3.016 -0.0931 -0.5569 -0.4307
   24MOL   O35922485   4.424   5.587   2.892  0.4077  0.4096 -0.3569
   24MOL   H36022486   5.614   4.775   3.245 -1.1936 -0.4977 -0.0959
   24MOL   H36122487   5.499   5.004   3.389 -0.3947 -0.7687  0.5635
   24MOL   H36222488   5.435   4.982   3.228  2.9905  2.4809 -0.4943
   24MOL   H36322489   5.481   4.658   3.361 -0.5800  1.5376 -2.2988
   24MOL   H36422490   5.320   4.504   3.439 -3.2528 -0.3244 -0.5305
   24MOL   H36522491   5.095   4.594   3.541  0.5416 -0.6038 -0.7185
   24MOL   H36622492   5.042   4.836   3.525 -0.8296  0.7495 -4.1505
   24MOL   H36722493   5.315   5.088   3.464  0.7744 -1.0315 -0.0025
   24MOL   H36822494   5.146   5.070   3.511  1.7439 -0.2253  2.3622
   24MOL   H36922495   5.248   5.114   3.257  0.1638  0.2030  1.6024
   24MOL   H37022496   5.130   5.211   3.119  0.5797 -0.4946  0.5305
   24MOL   H37122497   4.979   5.282   3.175  0.8421  0.6967 -2.2887
   24MOL   H37222498   5.001   5.032   3.006 -0.3594 -1.4703  0.9399
   24MOL   H37322499   4.953   5.196   2.959  1.4973 -1.2711 -0.5239
   24MOL   H37422500   4.769   5.027   2.985  0.6901 -1.1151  0.4664
   24MOL   H37522501   4.820   4.995   3.141  1.2352 -3.7999 -4.6551
   24MOL   H37622502   4.737   5.265   3.047 -0.1448 -0.2814  0.3929
   24MOL   H37722503   4.760   5.237   3.217  0.2496  2.3132 -1.3378
   24MOL   H37822504   4.554   5.110   3.046  0.9971 -0.2579 -0.1362
   24MOL   H37922505   4.561   5.079   3.225  0.4502  0.1204 -0.3090
   24MOL   H38022506   4.518   5.321   3.273  0.0883  0.0845 -0.3180
   24MOL   H38122507   4.389   5.240   3.221 -0.1874 -0.6325 -0.8569
   24MOL   H38222508   4.565   5.392   3.042  0.1059 -1.2599 -0.6249
   24MOL   H38322509   4.402   5.335   2.988 -1.4274  0.8784  0.9576
   24MOL   H38422510   4.492   5.539   3.195 -1.0974  1.0002  0.7466
   24MOL   H38522511   4.336   5.510   3.196  0.0945  0.5300  0.4086
   24MOL   N38622512   4.395   5.739   3.056 -0.3235 -0.2146  0.1905
   24MOL   C38722513   4.411   5.865   2.975  0.7523 -0.5571 -0.0113
   24MOL   C38822514   4.464   5.997   3.037 -0.4208 -0.5941 -0.2969
   24MOL   C38922515   4.561   6.069   2.962  0.1384  0.1606  0.3473
   24MOL   C39022516   4.614   6.191   3.013  0.4528  0.2802 -0.0498
   24MOL   C39122517   4.572   6.239   3.139  0.1339 -0.4956  0.0132
   24MOL   C39222518   4.475   6.168   3.211 -0.5219  0.4229  0.9464
   24MOL   C39322519   4.421   6.049   3.160  0.2052  0.3879  0.1709
   24MOL   C39422520   4.307   5.991   3.243 -0.4737  0.7584  0.5372
   24MOL   N39522521   4.331   5.949   3.385 -0.1605 -0.3883 -0.1025
   24MOL   C39622522   4.382   5.831   3.418  0.0690  0.1948 -0.0666
   24MOL   O39722523   4.422   5.744   3.335  0.2549  0.2605  0.0074
   24MOL   C39822524   4.401   5.810   3.568  0.1523 -0.0958 -0.6811
   24MOL   C39922525   4.288   5.733   3.638  0.4253 -0.0104  0.0089
   24MOL   C40022526   4.247   5.593   3.585  0.3761 -0.1627  0.2770
   24MOL   C40122527   4.146   5.516   3.665  0.1242 -0.3717 -0.0888
   24MOL   C40222528   4.084   5.384   3.599 -0.0925  0.6962 -0.6849
   24MOL   C40322529   4.195   5.278   3.597 -0.7017  0.9072 -0.0968
   24MOL   C40422530   4.143   5.140   3.564  0.4355 -0.4340 -0.0386
   24MOL   C40522531   4.260   5.039   3.543 -0.1495 -0.8494  0.3249
   24MOL   C40622532   4.200   4.901   3.522 -0.5966 -0.2271 -0.2772
   24MOL   O40722533   4.088   4.887   3.476  0.4619  0.0468  0.1568
   24MOL   H40822534   4.365   5.744   3.152  0.4290  0.5128  0.3935
   24MOL   H40922535   4.474   5.836   2.891  1.6571 -0.2870  0.5774
   24MOL   H41022536   4.315   5.873   2.923 -0.3304 -3.4200  1.4250
   24MOL   H41122537   4.596   6.037   2.865  0.1731  0.1180  0.3739
   24MOL   H41222538   4.697   6.245   2.969 -0.5669  2.7216  0.9082
   24MOL   H41322539   4.603   6.323   3.199  1.2195 -0.7972 -0.1225
   24MOL   H41422540   4.450   6.207   3.309  1.5703 -1.9484  2.4759
   24MOL   H41522541   4.255   5.925   3.172 -0.7485  0.9886  0.5228
   24MOL   H41622542   4.234   6.072   3.247 -0.1261  1.3557 -3.3296
   24MOL   H41722543   4.303   6.019   3.453 -0.7151  1.2310 -1.9479
   24MOL   H41822544   4.493   5.760   3.601 -0.9678 -1.1073  0.9659
   24MOL   H41922545   4.406   5.907   3.617 -0.6789 -0.0740 -0.6459
   24MOL   H42022546   4.200   5.797   3.632  0.2854 -0.4206 -2.6690
   24MOL   H42122547   4.304   5.722   3.746 -1.2704 -0.6440  0.2196
   24MOL   H42222548   4.342   5.543   3.566  0.6638  1.5048 -3.0031
   24MOL   H42322549   4.203   5.604   3.486  1.4979  0.1560 -0.1984
   24MOL   H42422550   4.186   5.500   3.765  0.7036 -0.1577 -0.2841
   24MOL   H42522551   4.053   5.572   3.678  0.9876  0.9033  0.7304
   24MOL   H42622552   4.003   5.342   3.659  0.1614  0.1109 -0.7511
   24MOL   H42722553   4.049   5.398   3.497  0.8231 -3.0836 -1.5845
   24MOL   H42822554   4.248   5.271   3.692 -1.8957 -0.6313  0.4719
   24MOL   H42922555   4.276   5.302   3.527  0.2238  0.8606  0.9496
   24MOL   H43022556   4.086   5.142   3.471  1.3737  2.2179 -0.6250
   24MOL   H43122557   4.066   5.103   3.630  1.9952 -0.6773  1.6921
   24MOL   H43222558   4.331   5.052   3.625 -0.6731  0.6505  0.5508
   24MOL   H43322559   4.314   5.070   3.453 -0.8424 -1.0124 -0.1520
   24MOL   N43422560   4.287   4.796   3.541  0.1037  0.2142 -0.1265
   24MOL   C43522561   4.255   4.660   3.482  0.9796 -0.4948 -0.0310
   24MOL   C43622562   4.340   4.559   3.547 -0.4566 -0.4662  0.1621
   24MOL   C43722563   4.432   4.481   3.472 -0.1034 -1.0937  0.2266
   24MOL   C43822564   4.509   4.382   3.533 -0.4133  0.2670 -0.0179
   24MOL   C43922565   4.493   4.352   3.670  0.3836  0.0207 -0.9523
   24MOL   C44022566   4.404   4.431   3.748  0.4138  0.4230 -1.1821
   24MOL   C44122567   4.320   4.528   3.688  0.2205 -0.0367 -0.2625
   24MOL   C44222568   4.215   4.604   3.775  0.3934 -0.2054 -0.0815
   24MOL   N44322569   4.143   4.516   3.866  0.4527 -0.6370  0.3498
   24MOL   C44422570   4.159   4.492   3.997 -0.2419  0.2864  0.1101
   24MOL   O44522571   4.249   4.543   4.064  0.0067  0.6778  0.7430
   24MOL   C44622572   4.054   4.405   4.062 -0.2784 -0.0471  0.6023
   24MOL   C44722573   4.095   4.302   4.166  0.3955  0.6983 -0.1987
   24MOL   C44822574   4.164   4.168   4.118 -0.3183 -0.1742 -0.8207
   24MOL   C44922575   4.289   4.189   4.046 -0.5227  0.2242 -0.4190
   24MOL   C45022576   4.396   4.085   4.066  1.0408  0.6112  0.5256
   24MOL   C45122577   4.521   4.113   3.978 -0.3031 -0.0942 -0.0737
   24MOL   C45222578   4.614   3.986   3.983 -0.0474  0.0104  0.0655
   24MOL   C45322579   4.761   4.007   3.953  0.5145  0.0575 -0.0712
   24MOL   C45422580   4.834   4.082   4.071 -0.3086  0.4429  0.1214
   24MOL   O45522581   4.835   4.204   4.082  0.0958  0.1840 -0.2743
   24MOL   H45622582   4.381   4.812   3.574  0.0511 -1.4456  0.9138
   24MOL   H45722583   4.264   4.660   3.373  1.5598  2.1185 -0.0163
   24MOL   H45822584   4.154   4.623   3.497  0.4401  0.5844 -0.9607
   24MOL   H45922585   4.439   4.497   3.365  0.3635 -0.9979  0.2720
   24MOL   H46022586   4.575   4.319   3.476  3.9566  2.7575  1.9847
   24MOL   H46122587   4.548   4.284   3.734 -0.3533  2.6889  2.6753
   24MOL   H46222588   4.391   4.411   3.853 -1.0902 -1.0004 -1.6180
   24MOL   H46322589   4.135   4.655   3.721  0.8524 -0.0819 -0.6524
   24MOL   H46422590   4.265   4.682   3.833 -0.1461 -0.7110  1.0620
   24MOL   H46522591   4.077   4.453   3.824 -1.1489 -1.5290  3.9802
   24MOL   H46622592   4.000   4.364   3.977  0.5959  0.7972 -0.3720
   24MOL   H46722593   3.989   4.483   4.102 -1.6273  0.2765 -2.1188
   24MOL   H46822594   3.996   4.278   4.204 -0.0994  0.8176 -1.4046
   24MOL   H46922595   4.151   4.355   4.244 -1.5381  1.8813  0.4183
   24MOL   H47022596   4.191   4.099   4.198  0.5972 -0.4899 -1.3873
   24MOL   H47122597   4.091   4.108   4.064 -1.4873  1.0612 -0.6240
   24MOL   H47222598   4.262   4.198   3.941 -0.4820 -0.4484 -0.4869
   24MOL   H47322599   4.338   4.281   4.080 -0.0833 -0.1019 -0.1721
   24MOL   H47422600   4.411   4.075   4.173 -1.5964 -2.3768  0.6832
   24MOL   H47522601   4.350   3.992   4.035 -2.4559  1.3177  3.1989
   24MOL   H47622602   4.558   4.207   4.020 -0.5195  0.1161 -0.3534
   24MOL   H47722603   4.488   4.124   3.875 -0.8390 -3.0240 -0.2587
   24MOL   H47822604   4.604   3.935   4.079 -1.2823 -3.8187 -2.0044
   24MOL   H47922605   4.566   3.911   3.920 -0.9032 -0.1936  0.9483
   24MOL   H48022606   4.809   3.911   3.935  2.4316  0.5521  2.1839
   24MOL   H48122607   4.770   4.062   3.860  3.3107  2.6218  1.6535
   24MOL   N48222608   4.897   4.001   4.156 -0.1336 -0.4140 -0.3746
   24MOL   C48322609   4.939   4.054   4.292  0.1389 -0.2630  0.6510
   24MOL   C48422610   5.088   4.056   4.307  0.1178  0.0508 -0.8413
   24MOL   C48522611   5.160   3.939   4.276  0.1464  0.0556 -0.0679
   24MOL   C48622612   5.302   3.936   4.287 -0.1035 -0.9034  0.0946
   24MOL   C48722613   5.368   4.046   4.331  0.3438  0.0938  0.1529
   24MOL   C48822614   5.306   4.161   4.382  0.8292 -0.9964 -0.2009
   24MOL   C48922615   5.164   4.169   4.364 -0.9455  0.5718  0.1355
   24MOL   C49022616   5.106   4.307   4.393  0.6075 -0.2440 -0.7814
   24MOL   N49122617   5.084   4.360   4.261  1.2179 -0.2960  0.1916
   24MOL   C49222618   5.162   4.452   4.205 -0.1830  0.1271 -0.4349
   24MOL   O49322619   5.240   4.527   4.262 -0.0519 -0.5554  0.0087
   24MOL   C49422620   5.165   4.448   4.054 -0.2006  0.2316  0.6537
   24MOL   C49522621   5.199   4.582   3.986 -0.0035 -0.1337 -0.6856
   24MOL   C49622622   5.100   4.699   4.002 -0.8017  0.0066 -0.2025
   24MOL   C49722623   5.128   4.810   3.902 -0.2409  0.0769  0.0332
   24MOL   C49822624   5.263   4.890   3.927  0.3968 -0.3120  0.1346
   24MOL   C49922625   5.326   4.942   3.802 -0.3656 -0.2224  0.2568
   24MOL   C50022626   5.455   5.021   3.843  0.1248  0.7459  0.2419
   24MOL   C50122627   5.540   5.048   3.712 -0.5037  0.1148 -0.0319
   24MOL   C50222628   5.652   5.145   3.731 -0.1362 -0.4324  0.5199
   24MOL   O50322629   5.670   5.213   3.829 -0.3014  0.4066  0.0700
   24MOL   H50422630   4.890   3.901   4.151  0.6100 -0.4306 -1.2172
   24MOL   H50522631   4.879   4.143   4.308 -0.2488 -0.4526  0.2717
   24MOL   H50622632   4.890   3.990   4.365 -0.1771  1.5895  2.1025
   24MOL   H50722633   5.108   3.854   4.234 -2.0526  1.3263 -0.0165
   24MOL   H50822634   5.351   3.844   4.255 -2.5742 -2.1812 -0.1545
   24MOL   H50922635   5.476   4.045   4.337  0.5283  1.8072 -2.2457
   24MOL   H51022636   5.370   4.240   4.418  0.3221 -0.0407 -1.3734
   24MOL   H51122637   5.170   4.382   4.439  1.3431 -1.0969 -0.3797
   24MOL   H51222638   5.009   4.309   4.443  1.6303  0.8914  1.2398
   24MOL   H51322639   5.036   4.300   4.195 -1.0962  0.0765  1.4944
   24MOL   H51422640   5.078   4.396   4.014  1.1835 -1.8565  0.2703
   24MOL   H51522641   5.250   4.385   4.028  0.0348  0.4938  0.7833
   24MOL   H51622642   5.197   4.552   3.882 -2.3598 -1.6431 -0.2234
   24MOL   H51722643   5.299   4.620   4.009 -0.3206 -0.2099  0.8745
   24MOL   H51822644   5.004   4.655   3.975  0.7871 -2.5402 -1.9530
   24MOL   H51922645   5.089   4.744   4.100  0.3801 -0.1023 -0.0081
   24MOL   H52022646   5.136   4.781   3.797 -3.7941 -0.4661 -0.1406
   24MOL   H52122647   5.044   4.879   3.896  0.2137  0.4233 -3.0044
   24MOL   H52222648   5.234   4.974   3.990  2.0494 -0.4035  1.0759
   24MOL   H52322649   5.335   4.842   3.994  0.2984 -0.8302 -0.1322
   24MOL   H52422650   5.266   5.002   3.733 -2.0644 -2.5736 -0.3759
   24MOL   H52522651   5.359   4.862   3.735  3.6541  0.0901  1.7494
   24MOL   H52622652   5.430   5.119   3.884  0.8723  1.0650 -0.0621
   24MOL   H52722653   5.509   4.969   3.922 -0.1231 -3.7580 -2.3450
   24MOL   H52822654   5.470   5.086   3.638 -1.7406 -1.8199  0.1147
   24MOL   H52922655   5.584   4.951   3.687 -0.9531  0.5074 -2.5342
   24MOL   N53022656   5.739   5.157   3.627 -0.4916 -0.1580  0.0193
   24MOL   C53122657   5.845   5.253   3.608 -0.4255  0.2561 -0.4638
   24MOL   C53222658   5.788   5.387   3.565  0.2144  0.2197 -0.1857
   24MOL   C53322659   5.778   5.488   3.661 -0.2679 -0.2923 -0.0977
   24MOL   C53422660   5.728   5.619   3.632  0.3623  0.5186 -0.0746
   24MOL   C53522661   5.694   5.651   3.501 -0.0968 -0.5120  0.4515
   24MOL   C53622662   5.686   5.549   3.405  0.0094 -0.2822  0.1562
   24MOL   C53722663   5.734   5.413   3.432  0.3639  0.1475  0.0362
   24MOL   C53822664   5.719   5.301   3.330  0.3084 -0.3935  0.1548
   24MOL   N53922665   5.721   5.352   3.198  0.4024 -0.2839  0.6971
   24MOL   C54022666   5.700   5.277   3.089  0.2057  0.2402  0.1671
   24MOL   O54122667   5.664   5.158   3.097  0.4978  0.7132  0.1580
   24MOL   C54222668   5.725   5.346   2.954 -0.0889 -0.0472 -0.3431
   24MOL   C54322669   5.873   5.329   2.919  0.4929 -0.3622  0.2275
   24MOL   C54422670   5.917   5.393   2.786 -0.2319  0.0336  0.4190
   24MOL   C54522671   6.052   5.358   2.735 -0.1170  0.0852 -0.5786
   24MOL   C54622672   6.164   5.444   2.796 -0.9862 -0.1772 -0.3547
   24MOL   C54722673   6.301   5.381   2.799 -0.4178  0.6222  0.3247
   24MOL   C54822674   6.401   5.462   2.888 -0.6899 -0.4305  0.2754
   24MOL   C54922675   6.541   5.402   2.891  0.1140  0.4741 -0.4529
   24MOL   C55022676   6.642   5.495   2.958 -0.7147  0.0802  0.1616
   24MOL   O55122677   6.689   5.590   2.896 -0.1200  0.6287 -0.4134
   24MOL   H55222678   5.737   5.079   3.562 -2.3519 -0.2115  0.1119
   24MOL   H55322679   5.921   5.223   3.536 -1.5513  0.6362 -1.8063
   24MOL   H55422680   5.903   5.259   3.700 -1.2793  0.1662  0.0869
   24MOL   H55522681   5.811   5.469   3.762  0.5327  1.0782 -0.0910
   24MOL   H55622682   5.751   5.701   3.698  1.2194 -0.7858  1.2592
   24MOL   H55722683   5.670   5.748   3.462 -1.7122 -2.2637 -3.1378
   24MOL   H55822684   5.637   5.576   3.312  0.1305  0.7774  0.3933
   24MOL   H55922685   5.627   5.246   3.349 -1.3964  2.6805  1.0634
   24MOL   H56022686   5.802   5.230   3.343  0.7988  0.3996  1.4672
   24MOL   H56122687   5.751   5.448   3.186 -0.0788 -0.0838  1.0631
   24MOL   H56222688   5.707   5.453   2.962  1.6295  0.2949 -0.9777
   24MOL   H56322689   5.655   5.309   2.878 -1.2432 -1.5123  1.3968
   24MOL   H56422690   5.881   5.220   2.923  1.0573 -0.3480 -0.4828
   24MOL   H56522691   5.936   5.368   3.000 -1.0538  1.2106  0.6937
   24MOL   H56622692   5.843   5.379   2.708 -0.9455 -0.7033  1.2106
   24MOL   H56722693   5.907   5.501   2.788 -3.0758 -0.1658 -0.6493
   24MOL   H56822694   6.059   5.251   2.756 -0.5184  0.2165  0.2664
   24MOL   H56922695   6.048   5.346   2.627 -2.2621 -0.6043 -0.4481
   24MOL   H57022696   6.177   5.545   2.758 -0.4929  0.0941  0.5225
   24MOL   H57122697   6.132   5.449   2.900 -2.1143  0.7155 -0.7387
   24MOL   H57222698   6.336   5.372   2.696 -0.8687 -0.9077  0.2863
   24MOL   H57322699   6.285   5.280   2.837  2.9617  0.3294  1.1127
   24MOL   H57422700   6.419   5.562   2.849  0.1820 -1.3336 -1.7040
   24MOL   H57522701   6.363   5.464   2.991 -0.4046  2.1440  0.3627
   24MOL   H57622702   6.581   5.383   2.791 -0.5706  0.4565 -0.7308
   24MOL   H57722703   6.530   5.302   2.933 -2.5417  0.9386  0.0692
   24MOL   N57822704   6.674   5.472   3.086  0.2251  0.1298  0.8552
   24MOL   C57922705   6.752   5.563   3.171 -0.6545 -0.5484  0.4754
   24MOL   C58022706   6.695   5.574   3.309 -0.6605 -0.1945 -0.1440
   24MOL   C58122707   6.779   5.522   3.411  0.5559 -0.2030 -0.0629
   24MOL   C58222708   6.745   5.534   3.548 -0.1150  0.5548  0.7007
   24MOL   C58322709   6.630   5.605   3.585 -0.2060  0.7846  0.1513
   24MOL   C58422710   6.545   5.657   3.485  0.4475  0.1524 -0.1297
   24MOL   C58522711   6.583   5.648   3.349 -0.5284 -0.3982  0.3293
   24MOL   C58622712   6.494   5.717   3.245  0.1844 -0.0923  0.6246
   24MOL   N58722713   6.515   5.863   3.263  0.1398  0.2715  0.1142
   24MOL   C58822714   6.413   5.950   3.270 -0.5512 -0.7042  0.0161
   24MOL   O58922715   6.298   5.920   3.293 -0.4381 -0.2005 -0.3608
   24MOL   C59022716   6.464   6.094   3.252  0.4538  0.0803  0.7745
   24MOL   C59122717   6.410   6.176   3.374  0.0509 -0.8097 -0.3976
   24MOL   C59222718   6.273   6.236   3.348 -0.4502 -0.3264 -0.4586
   24MOL   C59322719   6.234   6.335   3.452 -0.0518  0.4421 -0.0760
   24MOL   C59422720   6.091   6.377   3.444  0.9855 -0.0305  0.2249
   24MOL   C59522721   6.069   6.479   3.328  0.8670 -0.4370  0.7144
   24MOL   C59622722   5.936   6.563   3.335  0.5759  0.0324  0.7950
   24MOL   C59722723   5.900   6.669   3.226  1.2873 -0.2615  0.8287
   24MOL   C59822724   5.878   6.611   3.089  0.2309 -0.2212 -0.2651
   24MOL   O59922725   5.765   6.590   3.044 -0.4128  0.7576 -0.5834
   24MOL   H60022726   6.637   5.387   3.125 -0.0212 -0.8893 -1.4988
   24MOL   H60122727   6.755   5.661   3.123 -2.1996 -0.8470 -0.2791
   24MOL   H60222728   6.852   5.522   3.178  0.1476  0.6153 -3.0645
   24MOL   H60322729   6.871   5.469   3.390  0.5881 -0.0880 -0.2145
   24MOL   H60422730   6.807   5.480   3.617  0.0052  1.1302  1.0453
   24MOL   H60522731   6.606   5.607   3.691  0.1096  1.8392  0.2050
   24MOL   H60622732   6.458   5.712   3.517 -0.9993 -2.5391  0.7800
   24MOL   H60722733   6.390   5.690   3.267 -0.3728  1.6862  0.3297
   24MOL   H60822734   6.508   5.682   3.143 -0.7886  0.1546  0.3930
   24MOL   H60922735   6.613   5.887   3.263 -0.3658  2.4616  2.4202
   24MOL   H61022736   6.446   6.133   3.152 -0.3489 -0.1472  0.8281
   24MOL   H61122737   6.573   6.091   3.251  0.4248 -3.5706  2.3413
   24MOL   H61222738   6.482   6.258   3.379  1.4743 -2.0478 -0.2428
   24MOL   H61322739   6.410   6.122   3.468  1.4191 -1.0677 -0.5419
   24MOL   H61422740   6.277   6.284   3.250 -0.0532 -0.5940 -0.5744
   24MOL   H61522741   6.204   6.152   3.341 -1.5017  0.5031 -0.1608
   24MOL   H61622742   6.250   6.281   3.545  0.6076  0.4520 -0.1851
   24MOL   H61722743   6.303   6.419   3.439 -0.5694  0.8103 -0.4967
   24MOL   H61822744   6.021   6.297   3.421 -0.2283  1.3373 -0.9273
   24MOL   H61922745   6.059   6.410   3.543 -2.4622 -2.8856  0.1609
   24MOL   H62022746   6.085   6.427   3.233  1.1697 -0.6740  0.8955
   24MOL   H62122747   6.149   6.550   3.345  1.5642 -1.0010 -0.1689
   24MOL   H62222748   5.855   6.491   3.327  0.4325  0.0963  1.5904
   24MOL   H62322749   5.928   6.597   3.438 -0.3246  1.9528  0.1212
   24MOL   H62422750   5.814   6.724   3.265 -2.1785 -3.4057 -2.0202
   24MOL   H62522751   5.977   6.745   3.213  2.0601 -1.2986 -0.8557
   24MOL   N62622752   5.993   6.583   3.024  0.7492 -0.2168 -0.0376
   24MOL   C62722753   5.994   6.525   2.895  0.1183  0.1971  0.2080
   24MOL   C62822754   6.059   6.385   2.899  1.0460 -0.1363 -0.5591
   24MOL   C62922755   6.026   6.311   3.011  0.1666 -0.3833  0.3967
   24MOL   C63022756   6.089   6.187   3.034 -0.5770  0.8020 -0.4781
   24MOL   C63122757   6.175   6.139   2.930  0.0686  0.4872 -0.0245
   24MOL   C63222758   6.204   6.216   2.810 -0.2895  0.9933 -0.6919
   24MOL   C63322759   6.147   6.340   2.799  0.4034 -0.8554 -0.6314
   24MOL   C63422760   6.171   6.433   2.676  0.0843 -0.4636  0.0200
   24MOL   N63522761   6.312   6.486   2.666 -0.5929  0.5167  0.3302
   24MOL   C63622762   6.360   6.510   2.539  0.5069  0.1709 -0.4895
   24MOL   O63722763   6.293   6.509   2.438  0.8746  0.5395 -1.0359
   24MOL   C63822764   6.506   6.542   2.523 -0.8767 -0.5638  0.0846
   24MOL   C63922765   6.567   6.492   2.391  0.1676  0.1664  0.2778
   24MOL   C64022766   6.718   6.516   2.374  0.6924 -0.1171 -0.6361
   24MOL   C64122767   6.782   6.463   2.246 -0.0357 -0.1781 -0.2155
   24MOL   C64222768   6.928   6.490   2.246 -0.2367 -1.4049  0.4770
   24MOL   C64322769   6.993   6.419   2.122  0.0218  0.4120 -0.2380
   24MOL   C64422770   7.146   6.461   2.128  0.1093 -0.3901  0.1226
   24MOL   C64522771   7.244   6.392   2.035 -0.0101  0.2094  0.2267
   24MOL   C64622772   7.392   6.403   2.075 -0.6160  0.0980  0.2791
   24MOL   O64722773   7.440   6.320   2.153 -0.3782 -0.0120  0.3659
   24MOL   H64822774   6.083   6.601   3.065  0.1182  3.3811 -0.0402
   24MOL   H64922775   6.061   6.596   2.847  0.6916 -0.5993 -0.1892
   24MOL   H65022776   5.902   6.523   2.836  0.2908 -0.4957 -0.0448
   24MOL   H65122777   5.957   6.352   3.082  0.7539 -1.2893  1.5117
   24MOL   H65222778   6.076   6.123   3.120 -3.6304  0.8351 -0.8826
   24MOL   H65322779   6.226   6.044   2.933 -1.6648 -0.4739 -0.2308
   24MOL   H65422780   6.269   6.167   2.740 -0.3627  1.0919 -0.8278
   24MOL   H65522781   6.101   6.516   2.671 -1.1371 -1.3065  2.3734
   24MOL   H65622782   6.164   6.364   2.592 -1.9126 -0.3114  0.0400
   24MOL   H65722783   6.378   6.479   2.742 -0.3026  0.6399  0.0949
   24MOL   H65822784   6.567   6.499   2.603  0.8742  1.0055 -0.3800
   24MOL   H65922785   6.516   6.650   2.524 -1.3954 -0.5171  0.6060
   24MOL   H66022786   6.508   6.550   2.320  0.1055  0.1716  0.3355
   24MOL   H66122787   6.538   6.389   2.371 -3.0681  1.3036 -1.3136
   24MOL   H66222788   6.724   6.625   2.378  0.4525 -0.1004 -0.7119
   24MOL   H66322789   6.780   6.501   2.462  0.5270  1.8075 -0.1689
   24MOL   H66422790   6.760   6.357   2.256  1.6747 -0.6514 -1.2078
   24MOL   H66522791   6.740   6.504   2.155  1.7147  2.7180  0.2125
   24MOL   H66622792   6.951   6.596   2.239 -2.0448 -1.0579 -0.4912
   24MOL   H66722793   6.976   6.458   2.339 -0.8019 -3.6200  0.0188
   24MOL   H66822794   6.940   6.431   2.027 -0.0374  1.4778 -0.0826
   24MOL   H66922795   6.992   6.313   2.148  2.7263  0.0919 -1.3015
   24MOL   H67022796   7.163   6.568   2.120  0.6193 -0.3130  2.0395
   24MOL   H67122797   7.169   6.437   2.231 -1.1388 -0.5965  0.3709
   24MOL   H67222798   7.225   6.438   1.938 -2.5734 -2.6572 -0.7122
   24MOL   H67322799   7.218   6.287   2.019 -0.5988  0.8316 -3.2680
   24MOL   N67422800   7.465   6.503   2.029  0.5764 -0.1365 -0.2669
   24MOL   C67522801   7.603   6.531   2.066 -0.5254  0.3588  0.5900
   24MOL   C67622802   7.659   6.670   2.020 -0.2769  0.1170  0.8956
   24MOL   C67722803   7.623   6.718   1.891  0.2331 -0.2351 -0.3753
   24MOL   C67822804   7.679   6.842   1.841 -0.5144  0.5659 -0.0062
   24MOL   C67922805   7.759   6.924   1.926  0.0324  0.1559  0.2621
   24MOL   C68022806   7.787   6.876   2.053 -0.2399  0.1294 -1.1116
   24MOL   C68122807   7.740   6.749   2.101  0.2999 -0.0457  0.2016
   24MOL   C68222808   0.004   6.699   2.234  0.8010 -0.5005 -0.7032
   24MOL   N68322809   7.704   6.704   2.347 -0.5758 -0.4156 -0.1377
   24MOL   C68422810   7.658   6.817   2.404 -0.5342 -0.2911  0.1854
   24MOL   O68522811   7.646   6.919   2.336  0.2468  1.0409  0.4651
   24MOL   C68622812   7.598   6.798   2.544 -0.0588  0.7312  0.7285
   24MOL   C68722813   7.519   6.925   2.593 -0.6048  0.6386 -0.1203
   24MOL   C68822814   7.600   7.043   2.639 -0.6072  0.2548  0.6621
   24MOL   C68922815   7.501   7.147   2.699 -0.6687  0.4610  0.1113
   24MOL   C69022816   7.573   7.282   2.731  0.6861  1.1103  0.0537
   24MOL   C69122817   7.477   7.403   2.725 -0.2939 -0.0825 -0.3385
   24MOL   C69222818   7.545   7.536   2.770 -0.2561  0.4735  0.3209
   24MOL   C69322819   7.467   7.663   2.735  0.6437  0.3405 -0.0758
   24MOL   C69422820   7.546   7.789   2.761 -0.7917 -0.0376 -0.6292
   24MOL   O69522821   7.631   0.026   2.675  0.1332  0.0855 -0.6644
   24MOL   H69622822   7.427   6.575   1.969  0.4257 -0.9175 -1.1271
   24MOL   H69722823   7.664   6.454   2.019 -1.7360 -1.4409  1.9165
   24MOL   H69822824   7.613   6.518   2.174  0.7097  3.1446  0.8687
   24MOL   H69922825   7.558   6.657   1.831  0.9590 -0.4241 -0.9660
   24MOL   H70022826   7.649   6.884   1.746 -1.4842 -0.6384 -0.2493
   24MOL   H70122827   0.013   7.015   1.887  2.6262 -0.7922  0.8405
   24MOL   H70222828   0.056   6.941   2.116  0.0252  1.5070 -2.7550
   24MOL   H70322829   0.087   6.762   2.265  2.3632 -1.5624 -2.5674
   24MOL   H70422830   0.029   6.593   2.223  0.9518 -0.7364  1.7777
   24MOL   H70522831   7.714   6.619   2.401  0.2171  1.0957  2.1226
   24MOL   H70622832   7.681   6.771   2.610  1.1809  0.1700 -1.0171
   24MOL   H70722833   7.533   6.711   2.546 -1.9701  2.0486 -1.3914
   24MOL   H70822834   7.446   6.897   2.669 -0.5583  3.0630  0.8558
   24MOL   H70922835   7.460   6.950   2.505  0.1675  1.3840 -0.4338
   24MOL   H71022836   7.670   7.014   2.718 -1.0770 -1.8023  0.3360
   24MOL   H71122837   7.669   7.077   2.562 -0.8428  2.1673  1.2589
   24MOL   H71222838   7.422   7.165   2.627  0.2815  0.6649 -0.8957
   24MOL   H71322839   7.450   7.112   2.789  0.2554 -1.4778 -0.0901
   24MOL   H71422840   7.617   7.286   2.831  2.0932  0.3432 -0.5303
   24MOL   H71522841   7.651   7.292   2.656  0.6505  1.1017  0.0171
   24MOL   H71622842   7.393   7.376   2.790  0.2597 -0.7291  0.1161
   24MOL   H71722843   7.435   7.416   2.625 -1.5207  0.8941  0.2992
   24MOL   H71822844   7.647   7.546   2.734 -0.4416 -0.4099 -0.4546
   24MOL   H71922845   7.552   7.535   2.879 -1.0919  1.7026  0.3949
   24MOL   H72022846   7.372   7.657   2.788 -0.2318 -0.5212 -1.7088
   24MOL   H72122847   7.445   7.650   2.629 -1.6824 -0.3721  0.4788
   24MOL   N72222848   7.530   0.065   2.878 -0.0698  0.4351  0.4626
   24MOL   C72322849   7.589   0.192   2.910  0.0163 -0.1971 -0.3946
   24MOL   C72422850   7.494   0.276   2.988  0.4758  0.2439  0.0751
   24MOL   C72522851   7.473   0.247   3.126 -0.0952  0.1019  0.6048
   24MOL   C72622852   7.385   0.327   3.203  0.3138 -0.2340 -0.5037
   24MOL   C72722853   7.318   0.442   3.149  0.3722  0.1316  0.8078
   24MOL   C72822854   7.338   0.471   3.014  0.5112  0.6337  0.3438
   24MOL   C72922855   7.427   0.391   2.932 -0.5839 -0.2272  0.3482
   24MOL   C73022856   7.440   0.425   2.788 -0.2284 -0.7912  0.7369
   24MOL   N73122857   7.424   0.317   2.696 -0.4323 -0.7264 -0.3945
   24MOL   C73222858   7.448   0.333   2.568  0.3014 -0.6554 -0.1751
   24MOL   O73322859   7.462   0.451   2.528  0.2773 -0.2205  0.1628
   24MOL   C73422860   7.474   0.211   2.474  0.0234  0.0897  0.3940
   24MOL   C73522861   7.402   0.200   2.340 -0.1867 -0.1731 -0.0995
   24MOL   C73622862   7.467   0.089   2.251  0.2924 -0.0694 -0.1098
   24MOL   C73722863   7.436   7.737   2.292 -0.2438 -0.3526  0.0513
   24MOL   C73822864   7.499   7.632   2.198 -0.4460  0.8205  0.5382
   24MOL   C73922865   7.505   7.494   2.277 -0.4295 -0.1846  0.3969
   24MOL   C74022866   7.587   7.396   2.194  0.1143 -0.7164 -0.1006
   24MOL   C74122867   7.582   7.254   2.239 -0.6291 -0.5590 -0.1687
   24MOL   C74222868   7.449   7.182   2.206 -0.4437  0.9380 -0.2519
   24MOL   O74322869   7.348   7.251   2.189  0.2998  0.2298  0.0755
   24MOL   H74422870   7.454   0.042   2.941  0.2691  1.4317  1.2355
   24MOL   H74522871   7.643   0.231   2.823  2.6047  1.0677  1.7047
   24MOL   H74622872   7.666   0.154   2.978 -0.5991 -0.8383 -0.0571
   24MOL   H74722873   7.517   0.157   3.166 -0.0585  0.4985  1.4604
   24MOL   H74822874   7.373   0.295   3.306  0.1238 -0.7148 -0.6767
   24MOL   H74922875   7.254   0.504   3.210 -0.3182  2.9772 -2.6509
   24MOL   H75022876   7.294   0.565   2.984  0.6555  1.1844  1.8051
   24MOL   H75122877   7.536   0.476   2.788 -0.2432 -0.7632  1.5318
   24MOL   H75222878   7.370   0.507   2.768 -0.8334 -1.4698  0.0187
   24MOL   H75322879   7.436   0.226   2.738 -0.2003 -0.6516 -0.3009
   24MOL   H75422880   7.462   0.117   2.529 -0.5349  0.3158  0.6660
   24MOL   H75522881   7.581   0.224   2.463 -0.3053  0.4793 -2.7339
   24MOL   H75622882   7.402   0.295   2.286  1.8132 -0.0857  0.0191
   24MOL   H75722883   7.297   0.173   2.353 -0.4404  0.4177 -0.8553
   24MOL   H75822884   7.418   0.105   2.155 -1.2221 -3.2779  0.0948
   24MOL   H75922885   7.576   0.101   2.246  0.5536 -2.1936  0.1436
   24MOL   H76022886   7.498   7.721   2.380 -0.2266 -1.3877 -0.1498
   24MOL   H76122887   7.329   7.720   2.305 -0.3560 -1.2735 -1.9416
   24MOL   H76222888   7.431   7.627   2.113 -0.7056 -0.1636  0.8019
   24MOL   H76322889   7.598   7.664   2.165 -0.6858 -0.1569 -1.1847
   24MOL   H76422890   7.401   7.466   2.292 -0.2198  0.7351  4.0201
   24MOL   H76522891   7.544   7.505   2.378 -0.3511  0.0971  0.3370
   24MOL   H76622892   7.567   7.400   2.087  0.3719 -0.2737 -0.1344
   24MOL   H76722893   7.692   7.427   2.188  0.0872 -0.7815 -0.9484
   24MOL   H76822894   7.663   7.193   2.198 -1.4707 -1.0726 -1.0865
   24MOL   H76922895   7.588   7.263   2.347  1.4819 -0.6343 -0.2573
   24MOL   N77022896   7.458   7.051   2.190 -0.2423 -0.0809 -0.4965
   24MOL   C77122897   7.356   6.968   2.126 -0.6709 -0.3731  0.2565
   24MOL   C77222898   7.281   6.873   2.227 -0.7475 -0.5789  0.3821
   24MOL   C77322899   7.345   6.755   2.266 -0.1673  0.2504  0.7901
   24MOL   C77422900   7.289   6.664   2.354  0.2904  0.0435  0.0847
   24MOL   C77522901   7.161   6.698   2.407  0.1103  0.4873 -0.1312
   24MOL   C77622902   7.093   6.814   2.367 -0.3224  0.0711 -0.2708
   24MOL   C77722903   7.155   6.909   2.279  0.1890  0.6836 -0.4254
   24MOL   C77822904   7.080   7.038   2.248 -0.3071  0.1399  0.1596
   24MOL   N77922905   7.127   7.150   2.315 -0.0481 -0.7561 -0.0153
   24MOL   C78022906   7.080   7.222   2.416 -0.0887 -0.3318 -0.0551
   24MOL   O78122907   6.978   7.181   2.473 -0.0334 -0.0578 -0.0636
   24MOL   C78222908   7.152   7.351   2.463 -0.2709  0.2561  0.3107
   24MOL   C78322909   7.061   7.471   2.473  1.0637 -0.0674 -0.5464
   24MOL   C78422910   7.122   7.584   2.553 -0.2546  0.2851 -0.1124
   24MOL   C78522911   7.055   7.721   2.558  0.5655 -0.2427  0.2473
   24MOL   C78622912   7.093   0.028   2.663 -0.2355 -0.3274 -0.7299
   24MOL   C78722913   7.063   7.764   2.799 -0.6640  0.2889 -0.2038
   24MOL   C78822914   7.115   0.080   2.899 -0.4528  0.2435 -0.0418
   24MOL   C78922915   7.115   0.047   3.050 -0.0758  0.1733  0.2989
   24MOL   C79022916   7.230   7.747   3.099 -0.6277  0.2827  0.7410
   24MOL   O79122917   7.326   7.736   3.028 -0.1929 -0.4532 -0.2992
   24MOL   H79222918   7.543   7.004   2.217  0.3492  0.1773 -1.8362
   24MOL   H79322919   7.291   7.025   2.059  0.1436  1.0749  0.6855
   24MOL   H79422920   7.415   6.903   2.062  2.3162  1.0109  1.5039
   24MOL   H79522921   7.444   6.737   2.226 -0.4676 -1.8756  0.9833
   24MOL   H79622922   7.347   6.575   2.371  0.3195 -0.2476 -1.4336
   24MOL   H79722923   7.105   6.631   2.469 -1.3013  0.6503 -1.1985
   24MOL   H79822924   6.996   6.821   2.413 -0.2958  0.4547 -0.2781
   24MOL   H79922925   6.972   7.028   2.252 -0.4524  2.0390  1.7674
   24MOL   H80022926   7.095   7.057   2.141 -0.8641 -3.8588 -0.7050
   24MOL   H80122927   7.206   7.188   2.265  1.1495 -3.6163 -0.3843
   24MOL   H80222928   7.242   7.369   2.405 -0.2138 -2.4238 -0.5165
   24MOL   H80322929   7.190   7.334   2.564  1.0731  1.3689  0.0125
   24MOL   H80422930   6.964   7.438   2.511 -0.4799  2.9033 -1.7570
   24MOL   H80522931   7.053   7.499   2.369 -0.2733  0.1169 -0.3963
   24MOL   H80622932   7.225   7.591   2.520  0.2610 -0.7509  1.2216
   24MOL   H80722933   7.131   7.544   2.654  0.6663  0.4966 -0.1083
   24MOL   H80822934   7.073   7.771   2.463 -0.0994  0.2001  0.3527
   24MOL   H80922935   6.948   7.699   2.550  0.1668  1.6312  0.2038
   24MOL   H81022936   7.198   0.052   2.649 -1.3297  3.4430 -3.2654
   24MOL   H81122937   7.047   0.126   2.648 -0.5900 -0.5377 -1.0293
   24MOL   H81222938   7.104   7.667   2.826 -1.8018 -0.3376 -0.6874
   24MOL   H81322939   6.956   7.754   2.816 -0.9091 -1.1609 -2.4113
   24MOL   H81422940   7.059   0.172   2.884 -1.6292 -0.9114 -3.1318
   24MOL   H81522941   7.216   0.107   2.870 -0.7721 -0.0181 -1.4277
   24MOL   H81622942   7.014   0.017   3.079 -0.6280  0.5849 -1.1581
   24MOL   H81722943   7.113   0.143   3.102  0.9948 -0.7097  2.0346
   24MOL   N81822944   7.222   7.689   3.222  0.2322 -0.6807 -0.4347
   24MOL   C81922945   7.333   7.631   3.298  0.0257  0.1132  0.5427
   24MOL   C82022946   7.454   7.722   3.321 -0.1040  0.2276 -0.9368
   24MOL   C82122947   7.440   0.045   3.409  0.0712 -0.9553  0.1282
   24MOL   C82222948   7.548   0.118   3.452  0.3412 -0.0534 -0.0691
   24MOL   C82322949   7.671   0.084   3.398 -0.0628 -0.2365  0.0256
   24MOL   C82422950   7.686   0.002   3.290 -0.7264 -0.1786 -0.0858
   24MOL   C82522951   7.578   7.711   3.256  1.0847  0.2725 -0.1235
   24MOL   C82622952   7.610   7.612   3.143  0.0073 -0.3901 -0.1103
   24MOL   N82722953   7.632   7.470   3.180 -0.4222  0.2162 -0.3185
   24MOL   C82822954   7.560   7.370   3.135 -0.8174  0.3410 -0.1868
   24MOL   O82922955   7.468   7.375   3.052 -0.2677  0.2843 -0.2793
   24MOL   C83022956   7.585   7.233   3.202  1.0037 -0.1311  0.2719
   24MOL   C83122957   7.476   7.181   3.292 -0.0286 -0.3080 -0.2194
   24MOL   C83222958   7.453   7.261   3.415  0.0706  0.0072 -0.0543
   24MOL   C83322959   7.345   7.201   3.502 -0.1721 -0.0626 -0.0344
   24MOL   C83422960   7.381   7.066   3.572  0.1949  0.1386  0.4786
   24MOL   C83522961   7.283   7.021   3.682  1.1571  0.0066 -0.2397
   24MOL   C83622962   7.160   6.956   3.624  0.3353 -0.3840 -0.2672
   24MOL   C83722963   7.048   6.946   3.725  0.6086  0.6197  0.3446
   24MOL   C83822964   6.913   6.886   3.669 -0.0441 -0.2014 -0.8295
   24MOL   O83922965   6.910   6.833   3.555 -0.1090 -0.3714  0.0630
   24MOL   H84022966   7.132   7.684   3.267 -0.0967  3.8422 -0.3309
   24MOL   H84122967   7.298   7.588   3.392  2.5447 -0.1324  1.4053
   24MOL   H84222968   7.365   7.550   3.232  0.7375  0.7154  0.1387
   24MOL   H84322969   7.337   0.063   3.439  0.0151 -1.6786  0.3827
   24MOL   H84422970   7.545   0.193   3.529  1.1208  0.5535 -0.6174
   24MOL   H84522971   7.753   0.148   3.425  0.2402 -0.8290  0.5382
   24MOL   H84622972   7.773   7.789   3.226 -1.4740 -1.6587 -1.0513
   24MOL   H84722973   7.694   7.639   3.079  0.6945  0.5509  1.1708
   24MOL   H84822974   7.530   7.611   3.069  0.7595 -1.4689 -0.9368
   24MOL   H84922975   7.682   7.456   3.267  0.4685  3.8685 -0.1562
   24MOL   H85022976   7.677   7.243   3.259  1.3752  3.4709 -0.8337
   24MOL   H85122977   7.597   7.164   3.118  0.2922 -0.1864  0.2101
   24MOL   H85222978   7.493   7.076   3.317 -2.4854 -0.9204 -1.0457
   24MOL   H85322979   7.377   7.170   3.248  0.3960 -0.2510 -1.2192
   24MOL   H85422980   7.430   7.362   3.382 -0.6076 -0.3950 -0.8257
   24MOL   H85522981   7.543   7.268   3.477  0.3485  0.2567 -0.4849
   24MOL   H85622982   7.324   7.277   3.578 -0.3148  1.1965 -1.3170
   24MOL   H85722983   7.247   7.202   3.453 -0.8489  2.0765  1.2484
   24MOL   H85822984   7.393   6.980   3.507  1.8786 -0.6070  1.7380
   24MOL   H85922985   7.480   7.070   3.616 -0.4095  2.2915  1.7343
   24MOL   H86022986   7.246   7.105   3.742 -2.4777  0.3897 -2.8571
   24MOL   H86122987   7.336   6.942   3.736  2.5303  1.3202  0.3679
   24MOL   H86222988   7.183   6.857   3.586 -2.7991 -0.9143 -0.8579
   24MOL   H86322989   7.126   7.017   3.540 -1.9645  0.4700  1.2324
   24MOL   H86422990   7.089   6.881   3.803  0.3434  1.4044  1.1421
   24MOL   H86522991   7.028   7.044   3.767  2.9379  1.3311 -0.1556
   24MOL   N86622992   6.813   6.883   3.752  0.5274 -0.0645 -0.0481
   24MOL   C86722993   6.683   6.831   3.721 -0.2176  0.4687 -0.2943
   24MOL   C86822994   6.632   6.737   3.830  0.3596 -0.2229  0.1822
   24MOL   C86922995   6.588   6.777   3.956 -0.3948  0.5507  0.5477
   24MOL   C87022996   6.558   6.691   4.061  1.4151  0.6086 -0.9720
   24MOL   C87122997   6.577   6.554   4.048  0.3526 -0.5210 -0.0336
   24MOL   C87222998   6.625   6.509   3.919  0.1268  0.5936  0.4495
   24MOL   C87322999   6.643   6.599   3.812  0.2480 -0.3991  1.0652
   24MOL   C87423000   6.695   6.531   3.681  0.3600  0.4559  0.0497
   24MOL   N87523001   6.840   6.562   3.643 -0.4348  0.2017 -0.2219
   24MOL   C87623002   6.945   6.496   3.696  0.2660 -0.0274 -0.0216
   24MOL   O87723003   6.934   6.395   3.762 -0.0715 -0.5785  0.3688
   24MOL   C87823004   7.077   6.561   3.667 -0.1913 -0.5647  0.1068
   24MOL   C87923005   7.183   6.466   3.618 -0.6056  0.5377 -0.0836
   24MOL   C88023006   7.163   6.386   3.488  0.0595 -0.4360  0.1694
   24MOL   C88123007   7.267   6.276   3.472  0.1450  0.0682  0.1886
   24MOL   C88223008   7.255   6.154   3.563 -0.0787 -0.1264 -0.0939
   24MOL   C88323009   7.327   6.030   3.507 -0.2046 -0.0309  0.3822
   24MOL   C88423010   7.366   5.946   3.637 -0.1170  0.2298  0.7579
   24MOL   C88523011   7.402   5.801   3.605 -0.0373 -0.4437 -0.1429
   24MOL   C88623012   7.287   5.702   3.571  0.2538  0.5095 -0.3573
   24MOL   O88723013   7.237   5.638   3.659 -0.0220 -0.4833 -0.0648
   24MOL   H88823014   6.825   6.911   3.849  0.6295 -0.4279  0.0445
   24MOL   H88923015   6.613   6.915   3.715 -0.3620  0.3112 -0.8928
   24MOL   H89023016   6.681   6.786   3.622  0.4267  3.4743 -1.7475
   24MOL   H89123017   6.577   6.882   3.975  0.6007  0.3532  2.2689
   24MOL   H89223018   6.518   6.722   4.156 -2.0096  0.3098 -2.2507
   24MOL   H89323019   6.551   6.488   4.130  0.1461 -0.9045 -0.4007
   24MOL   H89423020   6.633   6.402   3.905 -0.8234  0.7738 -1.4621
   24MOL   H89523021   6.621   6.556   3.604  1.0969 -1.3645 -1.2915
   24MOL   H89623022   6.696   6.424   3.699  0.9424  0.5260  0.4278
   24MOL   H89723023   6.857   6.638   3.578 -1.4757 -0.0707 -0.8356
   24MOL   H89823024   7.113   6.621   3.750 -0.3153  2.6787 -2.1232
   24MOL   H89923025   7.067   6.635   3.588  2.4144 -1.2084 -0.8768
   24MOL   H90023026   7.204   6.401   3.703 -3.0755  0.9606  0.8810
   24MOL   H90123027   7.277   6.521   3.615  0.0973 -0.6534 -0.1738
   24MOL   H90223028   7.062   6.345   3.491 -0.0581 -0.3550 -1.7938
   24MOL   H90323029   7.172   6.461   3.409  0.6628  0.6814  1.2925
   24MOL   H90423030   7.264   6.235   3.371 -1.4102  0.4390  0.0735
   24MOL   H90523031   7.366   6.317   3.492 -0.0058 -0.1182  1.3517
   24MOL   H90623032   7.296   6.181   3.661 -0.1913 -1.6608  0.3884
   24MOL   H90723033   7.148   6.139   3.574 -0.1631  0.7242  0.2741
   24MOL   H90823034   7.414   6.055   3.447  0.2530  1.0416  1.4547
   24MOL   H90923035   7.267   5.977   3.433 -1.6024  0.6034  1.0481
   24MOL   H91023036   7.457   5.982   3.685 -0.2099  1.0946  0.3017
   24MOL   H91123037   7.286   5.951   3.711 -0.2810 -4.1185  1.0085
   24MOL   H91223038   7.465   5.803   3.515 -1.1011 -1.5526 -0.9213
   24MOL   H91323039   7.459   5.753   3.684  0.0885 -0.7399 -0.4102
   24MOL   N91423040   7.255   5.687   3.441  0.5375 -0.2724  0.3057
   24MOL   C91523041   7.158   5.584   3.408 -0.4016 -0.1801  0.3227
   24MOL   C91623042   7.156   5.565   3.258  0.3152  0.3660  0.0578
   24MOL   C91723043   7.060   5.647   3.193  0.1230  0.4887 -0.6244
   24MOL   C91823044   7.052   5.653   3.055 -0.8261 -0.6720 -0.5128
   24MOL   C91923045   7.149   5.589   2.974  0.7374  0.1221 -0.6447
   24MOL   C92023046   7.254   5.521   3.038  0.4294  0.6601  0.0595
   24MOL   C92123047   7.255   5.500   3.179  0.9940 -0.0477  0.4007
   24MOL   C92223048   7.354   5.403   3.248  0.0646  0.0880  0.2799
   24MOL   N92323049   7.488   5.410   3.201 -0.3794 -0.3482 -0.2271
   24MOL   C92423050   7.575   5.498   3.254 -0.5926  0.1900 -0.5958
   24MOL   O92523051   7.546   5.578   3.341 -0.0123  0.1722  0.1106
   24MOL   C92623052   7.720   5.489   3.197  0.0239 -0.5720 -0.2482
   24MOL   C92723053   0.020   5.581   3.260 -0.0914  0.4021 -0.7697
   24MOL   C92823054   0.051   5.549   3.412 -0.5708 -0.1454  0.3402
   24MOL   C92923055   0.114   5.410   3.448 -0.9969 -0.9846 -0.3074
   24MOL   C93023056   0.148   5.379   3.593 -0.2712 -0.2475 -0.4807
   24MOL   C93123057   0.178   5.234   3.621  0.5650  0.3272  1.0608
   24MOL   C93223058   0.209   5.185   3.765  0.1236 -0.6339  0.4539
   24MOL   C93323059   0.106   5.206   3.878  0.4154 -0.2375 -0.3890
   24MOL   C93423060   0.114   5.344   3.943  0.4516 -0.2779  0.4759
   24MOL   O93523061   0.200   5.429   3.921  0.2035 -0.5191  0.5399
   24MOL   H93623062   7.308   5.727   3.365 -1.3447 -0.4443 -1.1409
   24MOL   H93723063   7.183   5.489   3.455  2.3133  1.2000  1.7883
   24MOL   H93823064   7.068   5.622   3.456  0.2638  0.2041  1.2843
   24MOL   H93923065   6.984   5.704   3.245 -1.2505 -1.0752 -0.8601
   24MOL   H94023066   6.968   5.709   3.016 -0.6512  0.1032  0.2189
   24MOL   H94123067   7.156   5.601   2.867  1.2090  0.5185 -0.5726
   24MOL   H94223068   7.332   5.487   2.971 -0.1613 -0.6314  0.0137
   24MOL   H94323069   7.323   5.300   3.228 -0.4123  0.6922 -2.1656
   24MOL   H94423070   7.352   5.420   3.356  0.7550  2.1734 -0.0250
   24MOL   H94523071   7.525   5.347   3.131  1.2455 -0.0036  0.2920
   24MOL   H94623072   7.715   5.513   3.090 -0.9086  2.2865  0.4007
   24MOL   H94723073   7.761   5.389   3.210  0.2010 -0.8072 -2.3753
   24MOL   H94823074   7.775   5.684   3.258  0.0991  0.4952  0.4655
   24MOL   H94923075   0.108   5.586   3.196  0.1698 -0.0646 -0.4528
   24MOL   H95023076   0.122   5.621   3.454 -2.6071  1.1965  1.5640
   24MOL   H95123077   7.750   5.555   3.472  0.4646  3.5023  1.6354
   24MOL   H95223078   0.052   5.329   3.409  1.2073 -2.5088 -0.7919
   24MOL   H95323079   0.201   5.404   3.382 -0.7592 -1.8598  0.0821
   24MOL   H95423080   0.069   5.417   3.657 -0.9662  1.2361 -2.2206
   24MOL   H95523081   0.238   5.434   3.622  1.2796 -3.0220  0.2899
   24MOL   H95623082   0.089   5.175   3.601  1.0048 -0.2135  0.6713
   24MOL   H95723083   0.252   5.188   3.555  2.6418  1.2245  2.6892
   24MOL   H95823084   0.303   5.237   3.781 -0.9403  1.5739 -0.2328
   24MOL   H95923085   0.231   5.078   3.755 -2.7415 -1.1455 -0.9246
   24MOL   H96023086   0.118   5.128   3.953  0.3042  0.6107  0.5101
   24MOL   H96123087   0.007   5.198   3.833  0.8850 -1.5753 -1.2229
   24MOL   H96223088   0.029   5.361   4.009 -0.1323  0.7364 -0.5279
   25MOL     N123089   2.287   7.471   5.563 -0.4364  0.5959  0.1896
   25MOL     C223090   2.149   7.422   5.550  0.0047 -0.3032  0.0388
   25MOL     C323091   2.114   7.390   5.400 -0.3412 -0.6926 -0.9165
   25MOL     C423092   2.032   7.477   5.327 -0.5440 -0.0439  0.4520
   25MOL     C523093   2.007   7.461   5.185  0.3276 -0.0837 -0.4022
   25MOL     C623094   2.073   7.353   5.122  0.0210 -0.3370 -0.0582
   25MOL     C723095   2.153   7.265   5.194 -0.0300 -0.4572  0.4669
   25MOL     C823096   2.181   7.283   5.329  0.0686 -0.5784 -0.1486
   25MOL     C923097   2.275   7.182   5.402 -0.0943  0.2515 -0.3722
   25MOL    N1023098   2.274   7.051   5.339  0.1840  0.1536  0.6816
   25MOL    C1123099   2.375   6.961   5.351  0.3113  0.4077 -0.2141
   25MOL    O1223100   2.471   6.979   5.432 -0.4609 -0.0012 -0.2746
   25MOL    C1323101   2.388   6.833   5.268 -0.3079  0.3494  0.1980
   25MOL    C1423102   2.516   6.838   5.182 -0.4122 -0.9735 -0.1943
   25MOL    C1523103   2.532   6.948   5.082 -0.1424 -0.0796  0.0221
   25MOL    C1623104   2.427   6.959   4.981  0.1600  0.2280  0.1347
   25MOL    C1723105   2.436   7.091   4.906 -0.7381  0.9361 -0.0600
   25MOL    C1823106   2.347   7.107   4.779 -0.6306  0.2410 -0.2608
   25MOL    C1923107   2.417   7.075   4.642 -0.3094  0.2490  0.4259
   25MOL    C2023108   2.536   7.160   4.598  0.2279 -0.0886  0.2355
   25MOL    C2123109   2.495   7.309   4.589 -0.4647  0.3158  0.3736
   25MOL    O2223110   2.426   7.347   4.493  0.0103 -1.1246 -0.6329
   25MOL    H2323111   2.281   7.568   5.587 -0.3521  0.2546  1.6025
   25MOL    H2423112   2.119   7.345   5.621  0.7573 -0.4663  0.1819
   25MOL    H2523113   2.091   7.505   5.591 -0.2023 -0.4679  0.0835
   25MOL    H2623114   1.988   7.567   5.368  3.3400  2.7002 -1.0080
   25MOL    H2723115   1.959   7.537   5.126  0.5635 -0.7618 -1.4884
   25MOL    H2823116   2.064   7.352   5.015  0.3832  1.1503 -0.1100
   25MOL    H2923117   2.198   7.185   5.137 -1.3437 -0.0361 -1.1996
   25MOL    H3023118   2.241   7.155   5.502  2.0204  0.2476  0.3748
   25MOL    H3123119   2.373   7.229   5.411 -0.4960  1.1688 -0.7816
   25MOL    H3223120   2.205   7.041   5.266 -1.5464  3.1021  1.8352
   25MOL    H3323121   2.296   6.810   5.215 -0.1739  0.2009  0.0297
   25MOL    H3423122   2.405   6.755   5.343  0.1718 -0.1100 -0.3849
   25MOL    H3523123   2.516   6.741   5.131  1.4669 -0.9259 -0.3015
   25MOL    H3623124   2.605   6.839   5.245  0.5964 -0.2956 -1.6184
   25MOL    H3723125   2.539   7.032   5.152  1.7641 -2.2796  2.5526
   25MOL    H3823126   2.624   6.945   5.025 -0.6494 -1.0339 -0.7482
   25MOL    H3923127   2.442   6.873   4.916  1.6967 -0.7680  1.7539
   25MOL    H4023128   2.327   6.948   5.022  0.5819  0.9279  1.3992
   25MOL    H4123129   2.413   7.180   4.965  0.3280  1.5613 -0.5784
   25MOL    H4223130   2.541   7.097   4.876 -0.8986  0.1281 -0.8327
   25MOL    H4323131   2.325   7.214   4.773  0.7293  0.7657  3.1745
   25MOL    H4423132   2.256   7.052   4.801 -0.3271 -0.1951 -0.0978
   25MOL    H4523133   2.454   6.972   4.638  0.5451  0.5380  0.7832
   25MOL    H4623134   2.342   7.091   4.565 -1.3440 -2.0501  0.9130
   25MOL    H4723135   2.563   7.123   4.500 -2.4794  0.9382 -0.9409
   25MOL    H4823136   2.616   7.148   4.672  1.3912  0.1413 -0.9643
   25MOL    H4923137   2.325   7.426   5.645 -0.2164  0.0637 -0.1950
   25MOL    N5023138   2.531   7.397   4.684 -0.5332  0.1992  0.3229
   25MOL    C5123139   2.530   7.541   4.685  1.1310 -0.2673 -0.3573
   25MOL    C5223140   2.410   7.605   4.757 -0.1613 -0.5797  0.0073
   25MOL    C5323141   2.287   7.615   4.690 -0.3710 -0.5406 -0.0032
   25MOL    C5423142   2.163   7.652   4.758 -0.2764 -0.2772  0.4148
   25MOL    C5523143   2.174   7.673   4.897  0.2781 -1.2944  0.6551
   25MOL    C5623144   2.295   7.668   4.961  1.0101 -0.4265  0.0352
   25MOL    C5723145   2.417   7.639   4.895  0.0904 -0.3455 -0.0264
   25MOL    C5823146   2.540   7.632   4.979 -0.1393 -0.6670 -0.1885
   25MOL    N5923147   2.532   7.526   5.077 -0.2921  0.5663 -0.0960
   25MOL    C6023148   2.608   7.415   5.076  1.0702  0.1036 -0.5243
   25MOL    O6123149   2.677   7.382   4.980  0.2514  0.1184  0.2417
   25MOL    C6223150   2.606   7.330   5.210  0.2326 -0.4032  0.5290
   25MOL    C6323151   2.734   7.362   5.285  0.2608  0.2067  0.0868
   25MOL    C6423152   2.731   7.332   5.441  0.2046 -1.2020  0.3616
   25MOL    C6523153   2.632   7.408   5.527 -0.5903 -0.4793 -0.0811
   25MOL    C6623154   2.655   7.566   5.533 -0.1622 -0.0067  0.0367
   25MOL    C6723155   2.805   7.604   5.572  0.3629  1.0928 -0.1393
   25MOL    C6823156   2.824   7.747   5.639  0.1272 -0.1533  0.8961
   25MOL    C6923157   2.970   7.774   5.691 -0.2680 -0.2828  0.6619
   25MOL    C7023158   3.000   0.137   5.733  0.2898 -0.2524 -0.1385
   25MOL    O7123159   2.913   0.200   5.794 -0.5698 -0.2711 -0.4772
   25MOL    H7223160   2.562   7.345   4.765  1.5208 -2.8447 -2.2691
   25MOL    H7323161   2.527   7.576   4.582 -2.4302 -1.1032 -0.5879
   25MOL    H7423162   2.627   7.567   4.728  2.5722 -1.7884 -2.5616
   25MOL    H7523163   2.293   7.588   4.586  1.4811 -0.3969  0.0667
   25MOL    H7623164   2.070   7.649   4.704  0.1160  0.1018 -0.2941
   25MOL    H7723165   2.088   7.695   4.958 -1.4136  2.0508 -2.7411
   25MOL    H7823166   2.302   7.693   5.066 -1.4528 -0.8833  0.3413
   25MOL    H7923167   2.536   7.727   5.033 -1.4381  1.6755 -4.2236
   25MOL    H8023168   2.641   7.635   4.939 -0.5780  1.6816 -1.1777
   25MOL    H8123169   2.472   7.541   5.156  0.1818 -1.5060  0.6712
   25MOL    H8223170   2.592   7.223   5.202  0.0108 -0.6553  3.6137
   25MOL    H8323171   2.524   7.365   5.273  0.6144 -1.6316  1.7447
   25MOL    H8423172   2.760   7.468   5.276 -1.5818  0.8697  1.9078
   25MOL    H8523173   2.803   7.291   5.241 -1.1892 -1.5580  0.6094
   25MOL    H8623174   2.707   7.225   5.447 -0.6658 -1.2480 -2.6601
   25MOL    H8723175   2.828   7.345   5.488 -0.8500 -1.4978  2.7181
   25MOL    H8823176   2.530   7.393   5.493 -0.4079 -1.0133 -0.3932
   25MOL    H8923177   2.632   7.368   5.628 -1.8755 -1.2494 -0.3801
   25MOL    H9023178   2.632   7.615   5.438 -0.8548 -0.8270 -0.2197
   25MOL    H9123179   2.579   7.601   5.603 -1.7186  1.7618 -2.4558
   25MOL    H9223180   2.864   7.602   5.480  0.2784 -0.9033 -0.1643
   25MOL    H9323181   2.844   7.519   5.627 -1.7039  0.2730  0.0939
   25MOL    H9423182   2.767   7.762   5.731 -2.0859 -1.2505 -0.2593
   25MOL    H9523183   2.789   0.034   5.570 -0.7600 -3.7856 -2.8604
   25MOL    H9623184   3.045   7.759   5.613 -0.7560 -1.2373  0.3719
   25MOL    H9723185   2.999   7.707   5.772 -1.8071 -2.4725 -0.5663
   25MOL    N9823186   3.114   0.198   5.708  0.0664 -0.0051 -0.1774
   25MOL    C9923187   3.153   0.331   5.751 -0.4476  0.2832  0.6956
   25MOL   C10023188   3.278   0.388   5.688 -0.5682  0.8970  0.1704
   25MOL   C10123189   3.336   0.325   5.579  0.3233 -0.1088 -0.2199
   25MOL   C10223190   3.450   0.378   5.512 -0.4770  0.0802  0.6695
   25MOL   C10323191   3.510   0.490   5.574  0.3636 -0.2177 -0.0486
   25MOL   C10423192   3.448   0.563   5.673 -0.1571 -0.1641  0.5970
   25MOL   C10523193   3.333   0.506   5.737  0.3788  0.3559 -0.5458
   25MOL   C10623194   3.277   0.569   5.871 -0.0832  0.4589 -0.1863
   25MOL   N10723195   3.298   0.715   5.875  0.6492  0.6552  0.2567
   25MOL   C10823196   3.372   0.778   5.965  0.4143  0.5894  0.3169
   25MOL   O10923197   3.409   0.719   6.064  0.0552  0.6907 -0.3655
   25MOL   C11023198   3.414   0.922   5.947  0.6808  0.4587  0.2543
   25MOL   C11123199   3.443   0.994   6.082 -0.2571 -0.3033 -0.0346
   25MOL   C11223200   3.582   0.967   6.145 -0.1312  0.1442  0.1305
   25MOL   C11323201   3.604   1.053   6.273  0.6940  0.3013  0.9430
   25MOL   C11423202   3.750   1.067   6.312 -0.5485  0.5179  0.5468
   25MOL   C11523203   3.844   1.124   6.207  0.9051 -0.3411 -0.0677
   25MOL   C11623204   3.983   1.134   6.271  0.6994 -0.3998 -0.0824
   25MOL   C11723205   4.091   1.189   6.177  0.2436 -0.5571  0.9378
   25MOL   C11823206   4.224   1.204   6.249  0.5277 -0.4473  0.3133
   25MOL   O11923207   4.231   1.258   6.359 -0.2834 -0.5616 -0.8311
   25MOL   H12023208   3.187   0.137   5.673 -0.0480  0.9854 -2.2362
   25MOL   H12123209   3.064   0.392   5.740 -2.1227 -2.0487  1.0463
   25MOL   H12223210   3.167   0.324   5.859 -0.1396 -0.4698  0.6164
   25MOL   H12323211   3.308   0.231   5.534  0.8122  0.6471 -2.1687
   25MOL   H12423212   3.493   0.327   5.428  0.7291  2.2014 -0.0488
   25MOL   H12523213   3.598   0.530   5.525  0.4056 -0.7719 -0.4348
   25MOL   H12623214   3.490   0.657   5.705  0.8116 -0.0353 -0.9977
   25MOL   H12723215   3.327   0.513   5.950 -0.6338 -0.7773 -0.7023
   25MOL   H12823216   3.169   0.572   5.886 -0.3238  3.2679 -1.9527
   25MOL   H12923217   3.254   0.766   5.799 -0.5952 -1.6512 -0.6297
   25MOL   H13023218   3.322   0.963   5.905  0.7645 -0.4304 -0.7887
   25MOL   H13123219   3.501   0.937   5.884  1.4306  1.7286  1.5331
   25MOL   H13223220   3.371   0.977   6.162  0.0293 -1.9076 -0.1128
   25MOL   H13323221   3.424   1.099   6.058 -0.3167 -0.7279 -1.9014
   25MOL   H13423222   3.596   0.862   6.170 -1.5498 -0.1168 -0.1011
   25MOL   H13523223   3.649   0.980   6.060 -0.0714 -2.6303 -0.2990
   25MOL   H13623224   3.559   1.152   6.268 -3.0860 -1.3794 -0.6484
   25MOL   H13723225   3.560   1.004   6.360 -0.3694  0.1753  0.3372
   25MOL   H13823226   3.775   1.105   6.412 -1.1361  1.6702  0.2693
   25MOL   H13923227   3.784   0.964   6.315 -1.0600  0.3000 -0.7679
   25MOL   H14023228   3.811   1.220   6.167  3.9918  0.5212 -0.6614
   25MOL   H14123229   3.853   1.064   6.117  2.0394 -0.0237 -0.1730
   25MOL   H14223230   3.987   1.183   6.368  1.9447 -0.1555 -0.2495
   25MOL   H14323231   4.015   1.034   6.301 -1.0801 -0.6099  1.1961
   25MOL   H14423232   4.057   1.280   6.128  1.1087 -0.3840  0.6619
   25MOL   H14523233   4.100   1.117   6.095  1.0612  1.2189 -0.5678
   25MOL   N14623234   4.317   1.143   6.185 -0.4449  0.3334  0.1812
   25MOL   C14723235   4.458   1.172   6.200  0.9298  0.0569 -0.1918
   25MOL   C14823236   4.526   1.177   6.069  0.0406 -0.5834  0.1905
   25MOL   C14923237   4.505   1.290   5.984 -0.3071 -0.0214  0.2688
   25MOL   C15023238   4.566   1.302   5.858  0.0438 -0.0998 -0.6936
   25MOL   C15123239   4.669   1.209   5.827 -0.5659  0.4159  0.3964
   25MOL   C15223240   4.691   1.093   5.909 -0.3783 -0.7138  0.2856
   25MOL   C15323241   4.619   1.075   6.029 -0.1450  0.1983  0.1960
   25MOL   C15423242   4.637   0.942   6.103 -0.0790  0.1959 -0.4516
   25MOL   N15523243   4.511   0.877   6.130 -0.3437 -0.3437 -0.1431
   25MOL   C15623244   4.502   0.769   6.206  0.1815 -0.4647 -0.6424
   25MOL   O15723245   4.602   0.702   6.250  0.1966 -0.8856  0.3479
   25MOL   C15823246   4.365   0.740   6.260  0.1519 -0.2825  0.5741
   25MOL   C15923247   4.328   0.590   6.268  0.4382 -0.5912  0.3568
   25MOL   C16023248   4.343   0.518   6.138 -0.5704  0.7762  0.4985
   25MOL   C16123249   4.300   0.370   6.145 -0.0934 -0.5576 -0.6270
   25MOL   C16223250   4.246   0.307   6.017 -0.5363  0.1864 -0.6045
   25MOL   C16323251   4.187   0.171   6.032 -0.6789 -0.3355 -0.2186
   25MOL   C16423252   4.164   0.107   5.896  0.0443 -0.2042 -0.2783
   25MOL   C16523253   4.139   7.745   5.903  0.4887 -0.2118  0.0666
   25MOL   C16623254   4.000   7.705   5.932 -0.1245 -0.4271  0.5896
   25MOL   O16723255   3.909   7.727   5.856 -0.5372  0.8835  0.0804
   25MOL   H16823256   4.294   1.098   6.098 -0.9797  0.4587  0.2562
   25MOL   H16923257   4.496   1.086   6.255 -1.8787 -0.3021  1.2843
   25MOL   H17023258   4.487   1.256   6.262  0.2343 -0.7249  1.2234
   25MOL   H17123259   4.440   1.370   6.013  0.9046  0.1659  2.5437
   25MOL   H17223260   4.544   1.388   5.797  0.4006 -0.0514 -0.7553
   25MOL   H17323261   4.736   1.210   5.742  0.5116  0.5556  1.2311
   25MOL   H17423262   4.762   1.017   5.881  1.3123  0.4249  1.4396
   25MOL   H17523263   4.701   0.948   6.191 -1.6628 -1.2750  0.8264
   25MOL   H17623264   4.697   0.885   6.032  0.1895  0.4251 -0.4111
   25MOL   H17723265   4.428   0.923   6.097 -0.0888  1.0100  1.0465
   25MOL   H17823266   4.290   0.786   6.196  0.3528  0.9194  1.1912
   25MOL   H17923267   4.356   0.801   6.349  0.9375  1.4776 -0.5112
   25MOL   H18023268   4.221   0.579   6.285  0.3158  0.5024  0.3438
   25MOL   H18123269   4.380   0.543   6.351  0.4123  0.8733  1.2191
   25MOL   H18223270   4.280   0.572   6.068 -1.5496  0.3063  1.0090
   25MOL   H18323271   4.448   0.512   6.111 -0.8572 -1.6302 -0.1968
   25MOL   H18423272   4.382   0.318   6.193 -2.2426 -0.3986  3.3936
   25MOL   H18523273   4.227   0.362   6.225 -0.2635  0.0351 -0.7181
   25MOL   H18623274   4.170   0.376   5.979 -1.3510  1.5603  3.2800
   25MOL   H18723275   4.320   0.314   5.937 -2.2903  2.6467 -2.1003
   25MOL   H18823276   4.097   0.181   6.094  0.1359  0.0042  0.9275
   25MOL   H18923277   4.248   0.098   6.085  0.7482  0.2111 -1.0957
   25MOL   H19023278   4.078   0.147   5.843  0.4893  1.4636  0.2469
   25MOL   H19123279   4.251   0.122   5.832 -0.2327  0.3622 -0.5250
   25MOL   H19223280   4.211   7.695   5.968  1.0917  0.1636 -0.3030
   25MOL   H19323281   4.153   7.701   5.804 -1.6184 -0.7793  0.0079
   25MOL   N19423282   3.980   7.643   6.047 -0.5623 -0.5322  0.1617
   25MOL   C19523283   3.862   7.565   6.088  0.3179 -0.3356 -0.1741
   25MOL   C19623284   3.903   7.448   6.179 -0.2175 -0.0422  0.2578
   25MOL   C19723285   3.878   7.315   6.130  0.4768 -0.3547 -0.2339
   25MOL   C19823286   3.893   7.201   6.213 -1.0005 -0.0346  0.2429
   25MOL   C19923287   3.941   7.216   6.342 -0.6754  0.5425 -0.1545
   25MOL   C20023288   3.954   7.346   6.394  0.6695  0.5335 -0.0876
   25MOL   C20123289   3.942   7.463   6.319 -0.0043 -0.5519 -0.0169
   25MOL   C20223290   3.974   7.602   6.379 -0.1070  0.9476 -0.2201
   25MOL   N20323291   4.115   7.626   6.411 -0.2976  0.0462 -0.3368
   25MOL   C20423292   4.210   7.654   6.331  0.1053 -0.1269 -0.1229
   25MOL   O20523293   4.196   7.684   6.212  0.0391  0.4758  0.0770
   25MOL   C20623294   4.351   7.660   6.395  0.2345  0.1620 -0.8955
   25MOL   C20723295   4.401   0.017   6.399 -0.2184 -0.4378 -0.6059
   25MOL   C20823296   4.346   0.104   6.521  0.6155 -0.6600 -0.6891
   25MOL   C20923297   4.397   0.247   6.511  0.1543  0.1143 -0.0014
   25MOL   C21023298   4.446   0.297   6.647 -0.2755 -0.3184  0.4396
   25MOL   C21123299   4.460   0.449   6.654 -1.0888 -0.1506  0.2906
   25MOL   C21223300   4.603   0.493   6.621 -0.2509 -0.0812  0.6324
   25MOL   C21323301   4.628   0.640   6.604  0.4652 -0.5806 -0.4091
   25MOL   C21423302   4.765   0.693   6.576  0.0471  0.0353  0.1067
   25MOL   O21523303   4.849   0.706   6.667  0.4992  0.4152  0.2742
   25MOL   H21623304   4.048   7.655   6.120 -1.4793  0.6935  0.8218
   25MOL   H21723305   3.795   7.639   6.130  2.2856  2.0328 -1.0840
   25MOL   H21823306   3.813   7.518   6.002  1.7290 -0.0788 -1.1363
   25MOL   H21923307   3.833   7.298   6.033 -1.6101  0.1443  0.6183
   25MOL   H22023308   3.867   7.106   6.169  0.4660 -0.2343 -0.2205
   25MOL   H22123309   3.955   7.131   6.407 -0.9093 -0.1314 -0.9830
   25MOL   H22223310   3.989   7.356   6.496  0.4156 -0.8976  0.1572
   25MOL   H22323311   3.922   7.603   6.475 -0.5535 -0.1238 -0.4474
   25MOL   H22423312   3.929   7.680   6.318  0.7794  2.3108  0.8256
   25MOL   H22523313   4.141   7.628   6.508  1.3044  0.8342 -0.7559
   25MOL   H22623314   4.412   7.604   6.324  0.4465 -0.4783 -0.2197
   25MOL   H22723315   4.358   7.602   6.488  2.4228 -0.2955 -1.3129
   25MOL   H22823316   4.510   0.018   6.395 -0.2531 -1.1776 -2.4536
   25MOL   H22923317   4.365   0.071   6.311 -2.0197 -0.3592  0.1577
   25MOL   H23023318   4.238   0.096   6.531  0.5686  0.8802  0.3321
   25MOL   H23123319   4.390   0.059   6.610 -1.1926  1.3616  1.3054
   25MOL   H23223320   4.475   0.258   6.436  1.2360  0.6052  1.1752
   25MOL   H23323321   4.313   0.307   6.477  1.0321  1.1926 -0.2872
   25MOL   H23423322   4.371   0.278   6.723 -1.2199  0.2516 -0.3354
   25MOL   H23523323   4.537   0.243   6.672  1.0824  1.2558 -0.8845
   25MOL   H23623324   4.455   0.481   6.758  2.5843  3.5607 -0.4904
   25MOL   H23723325   4.394   0.504   6.587 -0.1804 -1.0591 -1.3838
   25MOL   H23823326   4.625   0.445   6.526 -1.7422 -1.2248  0.8536
   25MOL   H23923327   4.673   0.456   6.696  0.0547 -0.1511  0.3129
   25MOL   H24023328   4.556   0.682   6.533  0.5660  0.5791  0.1594
   25MOL   H24123329   4.586   0.680   6.696  0.8337 -0.1676 -0.4186
   25MOL   N24223330   4.795   0.720   6.450  0.1661  0.4703 -0.4325
   25MOL   C24323331   4.921   0.790   6.406  0.5844  0.0436 -0.0515
   25MOL   C24423332   5.028   0.691   6.350 -0.7599  0.1765  0.1318
   25MOL   C24523333   4.974   0.591   6.265 -0.0975  0.5052  0.8742
   25MOL   C24623334   5.068   0.498   6.205  0.5650  0.4970 -0.2556
   25MOL   C24723335   5.210   0.513   6.227  0.1814  0.1840  0.0531
   25MOL   C24823336   5.256   0.625   6.298 -0.0267  0.7125  0.4920
   25MOL   C24923337   5.168   0.706   6.362  0.6235  0.8417 -0.4080
   25MOL   C25023338   5.233   0.817   6.442 -0.1462  0.2409 -0.6171
   25MOL   N25123339   5.233   0.791   6.581  0.2740 -0.1546 -0.1022
   25MOL   C25223340   5.324   0.832   6.672  0.1790  0.0240  0.3914
   25MOL   O25323341   5.403   0.918   6.632  0.2689  0.6037 -0.2808
   25MOL   C25423342   5.325   0.764   6.806  0.5246  0.3836  0.1487
   25MOL   C25523343   5.456   0.676   6.835  0.6467 -0.2619  0.3010
   25MOL   C25623344   5.503   0.593   6.711 -0.0787  0.5004  0.5625
   25MOL   C25723345   5.604   0.483   6.761  0.9484  0.0454  0.1687
   25MOL   C25823346   5.628   0.367   6.664  0.3535 -0.4137 -0.4140
   25MOL   C25923347   5.716   0.422   6.541 -0.2204 -0.0415  0.4683
   25MOL   C26023348   5.772   0.313   6.443  0.5351 -0.1102  0.1878
   25MOL   C26123349   5.853   0.370   6.317 -0.0535 -0.2667 -0.0574
   25MOL   C26223350   5.764   0.471   6.233  0.2768  0.1333 -0.3499
   25MOL   O26323351   5.668   0.433   6.170 -0.0874  0.3797 -0.4251
   25MOL   H26423352   4.722   0.705   6.382 -0.1034 -0.7861  0.1176
   25MOL   H26523353   4.914   0.860   6.323  3.5456 -0.8842 -1.1769
   25MOL   H26623354   4.970   0.843   6.488  1.6910 -3.4489  1.6647
   25MOL   H26723355   4.868   0.584   6.246  0.1762  2.8858 -1.7447
   25MOL   H26823356   5.031   0.423   6.136  2.0856 -0.6802  0.1578
   25MOL   H26923357   5.282   0.451   6.177 -0.0833  1.7906 -2.4245
   25MOL   H27023358   5.362   0.638   6.315  0.0728  0.6923 -0.0881
   25MOL   H27123359   5.171   0.906   6.434 -1.7905 -0.8484 -0.3427
   25MOL   H27223360   5.329   0.840   6.396 -1.1193  2.3852 -1.6391
   25MOL   H27323361   5.165   0.724   6.612 -0.6632  0.3689 -0.9722
   25MOL   H27423362   5.235   0.704   6.817  0.5823  0.4446  0.9226
   25MOL   H27523363   5.315   0.833   6.889 -0.5961 -1.9553  2.0237
   25MOL   H27623364   5.427   0.603   6.909 -0.6415  0.7872  0.8569
   25MOL   H27723365   5.534   0.734   6.883 -0.3139  0.9046  0.4908
   25MOL   H27823366   5.542   0.671   6.646  0.1830  0.9848  1.2871
   25MOL   H27923367   5.417   0.540   6.672 -0.7154  0.3440  2.1303
   25MOL   H28023368   5.690   0.533   6.805  0.2023  2.3236 -0.9087
   25MOL   H28123369   5.562   0.459   6.859  2.4917  4.5200  2.0295
   25MOL   H28223370   5.693   0.297   6.717  0.3733 -0.4539 -0.4917
   25MOL   H28323371   5.544   0.307   6.631 -0.1401 -1.9238  3.3267
   25MOL   H28423372   5.792   0.493   6.574 -0.5548 -0.3502  1.9630
   25MOL   H28523373   5.636   0.468   6.483  1.1529  1.5723 -0.1846
   25MOL   H28623374   5.840   0.248   6.498  0.7406 -1.5104 -1.6663
   25MOL   H28723375   5.702   0.238   6.405  1.6310 -0.1522 -1.8125
   25MOL   H28823376   5.943   0.427   6.339  0.4926 -1.6528  1.3480
   25MOL   H28923377   5.885   0.290   6.250 -0.9411  1.0551 -2.1152
   25MOL   N29023378   5.802   0.605   6.252  0.0763 -0.0030 -0.2626
   25MOL   C29123379   5.717   0.720   6.217  0.0959  0.1806  0.4230
   25MOL   C29223380   5.783   0.824   6.134 -0.3347  0.5029 -0.1809
   25MOL   C29323381   5.870   0.913   6.202  0.3830 -0.3644 -0.4577
   25MOL   C29423382   5.921   1.028   6.137  0.0274  0.8146  0.0596
   25MOL   C29523383   5.889   1.042   6.004 -0.1959 -0.1310 -0.1599
   25MOL   C29623384   5.808   0.950   5.934 -0.1847  0.5066 -0.2325
   25MOL   C29723385   5.755   0.837   6.001  0.7357  0.0250  1.5716
   25MOL   C29823386   5.673   0.732   5.925 -0.2466 -0.3496  0.2469
   25MOL   N29923387   5.676   0.746   5.783  0.4455 -0.4965 -0.6867
   25MOL   C30023388   5.736   0.661   5.704  0.2991 -0.3518  0.4153
   25MOL   O30123389   5.818   0.576   5.739 -0.3393  0.2005 -0.8988
   25MOL   C30223390   5.701   0.665   5.557 -0.6958 -0.6066  0.0655
   25MOL   C30323391   5.562   0.718   5.519  0.2128  0.2614  0.0439
   25MOL   C30423392   5.514   0.674   5.377  0.1491 -0.6153  0.5026
   25MOL   C30523393   5.373   0.731   5.336  0.7049  0.1429 -0.0438
   25MOL   C30623394   5.257   0.686   5.433 -0.1002  0.6582 -0.6186
   25MOL   C30723395   5.121   0.737   5.397 -0.7175 -0.6481 -0.3383
   25MOL   C30823396   5.019   0.732   5.516  0.6591 -0.2560  0.3461
   25MOL   C30923397   4.880   0.748   5.473 -0.7014  0.9321  0.0375
   25MOL   C31023398   4.810   0.881   5.522  0.5707  0.3171  0.6262
   25MOL   O31123399   4.782   0.894   5.640  0.3327 -0.3389  0.1437
   25MOL   H31223400   5.876   0.627   6.318  0.4005  1.9428 -1.2295
   25MOL   H31323401   5.629   0.701   6.156  3.2372 -0.4911 -4.1162
   25MOL   H31423402   5.679   0.768   6.308  0.0443  0.1408  0.4226
   25MOL   H31523403   5.889   0.888   6.306 -2.7660 -1.2383 -0.0555
   25MOL   H31623404   5.973   1.100   6.199  0.6578 -0.0817  0.5969
   25MOL   H31723405   5.938   1.114   5.940  1.3014 -2.0364 -1.2121
   25MOL   H31823406   5.790   0.959   5.828  0.4913 -0.4363 -0.4379
   25MOL   H31923407   5.566   0.742   5.943 -0.9492 -0.0719 -3.6500
   25MOL   H32023408   5.697   0.632   5.961 -1.0961 -0.6549 -0.0295
   25MOL   H32123409   5.613   0.814   5.743  0.0030 -0.8263 -0.5521
   25MOL   H32223410   5.777   0.728   5.511 -2.9732  1.3932 -1.0098
   25MOL   H32323411   5.716   0.565   5.515 -0.1193 -0.8287  0.7682
   25MOL   H32423412   5.570   0.827   5.523  1.2972  0.1374  1.6813
   25MOL   H32523413   5.484   0.685   5.588 -1.1612  1.1070 -1.0866
   25MOL   H32623414   5.507   0.566   5.387 -0.1273 -0.4336  2.4652
   25MOL   H32723415   5.597   0.691   5.309 -0.4234  1.2623  0.2380
   25MOL   H32823416   5.381   0.837   5.313 -2.9683  0.5755  0.4062
   25MOL   H32923417   5.355   0.687   5.238 -0.0032  1.9479 -0.7232
   25MOL   H33023418   5.262   0.577   5.439  1.3031  0.8346  2.2023
   25MOL   H33123419   5.290   0.724   5.529 -2.3438 -0.0939  0.4997
   25MOL   H33223420   5.075   0.682   5.315  0.2997  0.3577 -1.6090
   25MOL   H33323421   5.122   0.834   5.348  0.0088 -0.5415 -0.1137
   25MOL   H33423422   5.032   0.635   5.565  0.8000 -2.1437 -3.2977
   25MOL   H33523423   5.046   0.797   5.600  0.7958 -0.2281  0.2806
   25MOL   H33623424   4.853   0.728   5.369  0.2450 -0.4166  0.0484
   25MOL   H33723425   4.824   0.667   5.521  0.8093  0.1862  0.5791
   25MOL   N33823426   4.773   0.965   5.423 -0.2528  0.2624 -0.2795
   25MOL   C33923427   4.686   1.077   5.427 -0.0194 -0.3099  0.7387
   25MOL   C34023428   4.743   1.212   5.463 -0.0801 -0.5828 -0.3828
   25MOL   C34123429   4.880   1.236   5.471  0.1010 -0.8298 -0.2154
   25MOL   C34223430   4.930   1.352   5.527 -0.4270  0.0584 -0.0920
   25MOL   C34323431   4.842   1.449   5.581  0.3207 -0.1742 -1.6713
   25MOL   C34423432   4.706   1.432   5.559  0.3032 -0.5389 -0.2543
   25MOL   C34523433   4.655   1.318   5.497  0.2408 -0.4684 -0.9669
   25MOL   C34623434   4.505   1.315   5.463  0.5416 -0.0030  0.7841
   25MOL   N34723435   4.415   1.272   5.571 -0.1428  0.1206 -0.0971
   25MOL   C34823436   4.280   1.297   5.568  0.1256  0.1913  0.0822
   25MOL   O34923437   4.222   1.329   5.464  0.2866  0.8597  0.1124
   25MOL   C35023438   4.205   1.298   5.702 -0.2348  0.1470  0.0822
   25MOL   C35123439   4.066   1.234   5.684 -0.6979  0.7962 -0.1869
   25MOL   C35223440   3.963   1.278   5.799 -0.4832  0.4851  0.0444
   25MOL   C35323441   3.824   1.217   5.762 -0.7367 -0.3234 -0.0485
   25MOL   C35423442   3.714   1.254   5.850  0.3355 -0.1077 -0.0510
   25MOL   C35523443   3.672   1.399   5.847 -0.0232 -0.9901 -0.5529
   25MOL   C35623444   3.530   1.417   5.890  0.6930 -1.1308  0.2668
   25MOL   C35723445   3.479   1.566   5.894  0.5183  0.3938 -0.3452
   25MOL   C35823446   3.341   1.590   5.970  0.0542  0.2067  0.4594
   25MOL   O35923447   3.279   1.497   6.029 -0.0194  0.1573  0.1266
   25MOL   H36023448   4.810   0.937   5.334 -0.3188 -0.9970  0.0764
   25MOL   H36123449   4.642   1.095   5.329 -1.1517  3.3398  1.8245
   25MOL   H36223450   4.602   1.060   5.494 -0.3274  0.2542  0.4992
   25MOL   H36323451   4.954   1.159   5.455 -0.6819 -1.4644 -0.8527
   25MOL   H36423452   5.037   1.368   5.533 -0.6023  1.3017 -0.1535
   25MOL   H36523453   4.878   1.535   5.635 -1.4873  0.4237 -1.4090
   25MOL   H36623454   4.648   1.516   5.592  1.2557  0.1306 -0.2527
   25MOL   H36723455   4.491   1.257   5.372  0.3894 -0.8600  1.3471
   25MOL   H36823456   4.475   1.418   5.444 -0.1331  0.1281  2.4876
   25MOL   H36923457   4.454   1.221   5.649  0.2480  0.9492  0.2478
   25MOL   H37023458   4.198   1.403   5.731  3.1877  0.4496 -0.0332
   25MOL   H37123459   4.268   1.254   5.779 -2.1302  1.9640  2.7726
   25MOL   H37223460   4.083   1.127   5.678  0.2281  0.9713 -0.6750
   25MOL   H37323461   4.033   1.266   5.585 -1.6534 -2.4083 -0.9493
   25MOL   H37423462   3.995   1.258   5.901  3.4367  2.6937 -0.6917
   25MOL   H37523463   3.965   1.386   5.791 -0.3760  0.3433 -2.2155
   25MOL   H37623464   3.836   1.109   5.769 -0.6491 -0.2203  1.6140
   25MOL   H37723465   3.798   1.243   5.660  0.0771 -0.4473 -0.2913
   25MOL   H37823466   3.634   1.183   5.826  0.8290 -1.2485  1.6545
   25MOL   H37923467   3.741   1.227   5.952 -1.4313  1.1086  0.7708
   25MOL   H38023468   3.692   1.438   5.748  1.1568 -1.5552 -0.5484
   25MOL   H38123469   3.738   1.467   5.900 -0.2419  0.6217 -2.3221
   25MOL   H38223470   3.454   1.360   5.838 -0.3514 -0.9518  1.5627
   25MOL   H38323471   3.517   1.384   5.993 -0.0513  1.5257  1.0811
   25MOL   H38423472   3.472   1.613   5.796 -1.1522  2.5142  0.7544
   25MOL   H38523473   3.558   1.621   5.945  0.3286 -0.1859  0.6022
   25MOL   N38623474   3.303   1.721   5.976 -0.7150 -0.0455  0.6723
   25MOL   C38723475   3.193   1.769   6.058  0.9854 -0.7607  0.7447
   25MOL   C38823476   3.143   1.912   6.026  0.0510  0.3856 -0.3164
   25MOL   C38923477   3.019   1.921   5.957  0.5615  0.0945  0.1320
   25MOL   C39023478   2.970   2.046   5.914 -0.0905  0.7196 -0.3006
   25MOL   C39123479   3.041   2.160   5.942  0.1570  0.5854 -0.2476
   25MOL   C39223480   3.161   2.153   6.013  0.1741 -0.4055  0.6900
   25MOL   C39323481   3.213   2.031   6.055 -0.2597 -0.5210 -0.1210
   25MOL   C39423482   3.349   2.031   6.121  0.6826  0.5306  0.5513
   25MOL   N39523483   3.458   2.076   6.036 -0.0404 -0.2311 -0.3499
   25MOL   C39623484   3.512   2.007   5.940  0.2092 -0.1011 -0.2527
   25MOL   O39723485   3.508   1.888   5.936  0.1126 -0.0255  0.1762
   25MOL   C39823486   3.602   2.085   5.841  0.1357  0.3999  0.4488
   25MOL   C39923487   3.750   2.041   5.849 -0.2433  0.4974 -0.2861
   25MOL   C40023488   3.823   2.109   5.967 -0.0357  0.2530  0.3150
   25MOL   C40123489   3.966   2.074   5.965  0.3218 -0.9212  0.2915
   25MOL   C40223490   4.052   2.161   6.062 -0.0065 -0.0493  0.5424
   25MOL   C40323491   4.154   2.063   6.127 -0.1472  0.1748  0.4084
   25MOL   C40423492   4.196   2.115   6.265 -0.4299  0.5806 -0.0234
   25MOL   C40523493   4.301   2.022   6.345  0.2209 -0.3141  0.8462
   25MOL   C40623494   4.302   2.063   6.488  0.2937  0.3390 -0.5270
   25MOL   O40723495   4.379   2.150   6.529 -0.4465 -0.1033  0.0635
   25MOL   H40823496   3.367   1.791   5.943  1.6592 -3.0784 -1.4558
   25MOL   H40923497   3.109   1.699   6.064  0.2759  0.0790  0.7257
   25MOL   H41023498   3.244   1.767   6.154  0.0534 -0.3589  1.2540
   25MOL   H41123499   2.961   1.831   5.948 -1.1630  1.1920 -0.1348
   25MOL   H41223500   2.883   2.056   5.850  0.4261  1.3748 -0.9138
   25MOL   H41323501   3.002   2.260   5.927 -0.1178  0.5635  0.3015
   25MOL   H41423502   3.212   2.243   6.042 -0.8002  0.1436  0.7096
   25MOL   H41523503   3.371   1.930   6.157  1.4790  0.7729  0.7572
   25MOL   H41623504   3.352   2.088   6.214  2.4341  0.4641  0.5559
   25MOL   H41723505   3.489   2.171   6.047 -2.1990  0.3900  0.6380
   25MOL   H41823506   3.554   2.066   5.746 -1.8895  0.6155  1.3930
   25MOL   H41923507   3.590   2.192   5.862 -2.5860  0.4397 -1.0936
   25MOL   H42023508   3.791   2.078   5.755 -0.4539  0.6910 -0.3009
   25MOL   H42123509   3.756   1.933   5.864 -2.3906 -0.0868 -3.2417
   25MOL   H42223510   3.781   2.072   6.061  1.6211  1.1863  1.4472
   25MOL   H42323511   3.809   2.217   5.967  1.2388  0.4458  2.4435
   25MOL   H42423512   3.971   1.967   5.989 -0.1024 -1.1002 -0.4073
   25MOL   H42523513   4.013   2.081   5.867  0.8497  0.0392  0.6054
   25MOL   H42623514   4.100   2.247   6.016 -0.9928  1.0492  1.5158
   25MOL   H42723515   3.981   2.200   6.135 -2.4340 -1.3241 -1.0410
   25MOL   H42823516   4.234   2.051   6.055  0.3853  0.9687  0.8621
   25MOL   H42923517   4.099   1.969   6.141  2.5638 -1.3373  1.1491
   25MOL   H43023518   4.106   2.124   6.327 -0.1183 -0.9806  0.6824
   25MOL   H43123519   4.229   2.219   6.261  1.8183 -0.1830 -3.1425
   25MOL   H43223520   4.402   2.041   6.309  0.3681  0.0276  1.4410
   25MOL   H43323521   4.273   1.918   6.329  1.9948 -0.8946  1.3764
   25MOL   N43423522   4.242   1.978   6.572  0.2966 -0.5481  0.3831
   25MOL   C43523523   4.226   2.007   6.714  0.1946  0.5952 -0.7679
   25MOL   C43623524   4.124   1.910   6.774 -0.7892 -0.0896  0.8467
   25MOL   C43723525   4.166   1.778   6.802  0.2892  0.6626 -0.2278
   25MOL   C43823526   4.085   1.681   6.858 -0.1347  0.6193  0.6763
   25MOL   C43923527   3.950   1.710   6.871 -0.6872  0.0268 -0.6808
   25MOL   C44023528   3.906   1.844   6.857  0.2236  0.2625 -0.1470
   25MOL   C44123529   3.988   1.944   6.798  0.3051 -0.1063  0.6985
   25MOL   C44223530   3.934   2.078   6.778  0.2764 -0.5879 -0.1001
   25MOL   N44323531   3.956   2.163   6.895 -0.3881  0.5481 -0.0433
   25MOL   C44423532   3.883   2.268   6.926 -0.1920 -0.4904  0.0439
   25MOL   O44523533   3.769   2.276   6.884 -0.3194  0.2913  0.1520
   25MOL   C44623534   3.939   2.360   7.041 -0.2016  0.5720 -0.0900
   25MOL   C44723535   3.866   2.343   7.175 -0.0453  0.4761  0.3764
   25MOL   C44823536   3.941   2.238   7.254  0.1872 -0.1391 -0.3010
   25MOL   C44923537   3.860   2.221   7.392 -0.2148  0.3788  0.6844
   25MOL   C45023538   3.952   2.142   7.483  0.8467 -0.1550  0.5195
   25MOL   C45123539   3.886   2.150   7.622  0.0542 -0.3250 -0.4338
   25MOL   C45223540   3.973   2.069   7.729  0.2750  0.0783  0.0143
   25MOL   C45323541   4.095   2.133   7.781  0.0997  0.6193  0.2994
   25MOL   C45423542   4.156   2.051   0.103  0.2799 -0.0625 -0.2679
   25MOL   O45523543   4.242   1.966   0.081  0.5798  0.0272  0.2485
   25MOL   H45623544   4.201   1.889   6.545 -2.1914  1.0302 -1.2289
   25MOL   H45723545   4.204   2.113   6.725  2.0975  0.8240  1.0728
   25MOL   H45823546   4.322   1.998   6.764  0.2622  2.0398 -0.6184
   25MOL   H45923547   4.265   1.747   6.772 -1.4389 -0.2123 -5.4440
   25MOL   H46023548   4.134   1.586   6.871  1.0737  0.9963 -0.9496
   25MOL   H46123549   3.893   1.632   6.919 -0.9734 -0.0131 -1.0854
   25MOL   H46223550   3.805   1.860   6.892  0.4276 -0.0018  0.5728
   25MOL   H46323551   3.826   2.078   6.759  0.1705  0.4518  0.4686
   25MOL   H46423552   3.979   2.133   6.695 -1.6345  0.6503 -0.3726
   25MOL   H46523553   4.035   2.141   6.954 -0.8018 -0.5769  0.1022
   25MOL   H46623554   3.944   2.465   7.012 -0.9782  0.9960  1.2399
   25MOL   H46723555   4.044   2.350   7.071 -0.6141  0.7787  1.4762
   25MOL   H46823556   3.759   2.323   7.172 -0.0485  0.5415 -0.0094
   25MOL   H46923557   3.877   2.436   7.231  2.7401 -0.4432  1.4135
   25MOL   H47023558   3.943   2.138   7.211  2.2782 -0.8700  1.3839
   25MOL   H47123559   4.042   2.275   7.275 -0.1243 -0.4250  1.8477
   25MOL   H47223560   3.839   2.319   7.434  0.7386  1.3423 -1.0221
   25MOL   H47323561   3.765   2.171   7.372  0.7827 -1.5171  0.5674
   25MOL   H47423562   3.946   2.037   7.454  1.6009  0.5477 -2.2992
   25MOL   H47523563   4.054   2.179   7.495  0.5573  0.3830  1.3671
   25MOL   H47623564   3.783   2.116   7.623  0.2719 -1.0360 -1.3140
   25MOL   H47723565   3.878   2.257   7.641 -0.1378  0.0398 -2.4199
   25MOL   H47823566   3.899   2.046   0.016  0.3605 -3.7941 -0.9940
   25MOL   H47923567   3.994   1.975   7.679  3.6066  0.6770  0.1706
   25MOL   H48023568   4.170   2.140   7.702 -0.2123 -0.1560 -0.0738
   25MOL   H48123569   4.075   2.230   0.036  0.9252  0.7423  0.4097
   25MOL   N48223570   4.117   2.083   0.229  0.0783  0.9740 -0.5018
   25MOL   C48323571   4.165   2.016   0.354 -0.4446 -0.6344 -0.2347
   25MOL   C48423572   4.059   1.918   0.408 -0.3783  0.5607 -0.2816
   25MOL   C48523573   3.928   1.962   0.418  0.7113 -0.3806  0.0137
   25MOL   C48623574   3.818   1.884   0.467  0.5586 -0.3494  0.2311
   25MOL   C48723575   3.850   1.755   0.513  0.4864 -0.2723  0.0296
   25MOL   C48823576   3.980   1.704   0.501  0.0334 -0.3585 -0.1346
   25MOL   C48923577   4.085   1.781   0.446  0.5327  0.0340  0.5503
   25MOL   C49023578   4.214   1.709   0.421  0.4192  0.8532 -0.1937
   25MOL   N49123579   4.236   1.688   0.274 -0.1585 -0.4943  0.2956
   25MOL   C49223580   4.362   1.701   0.223 -0.0042  1.5084  0.0915
   25MOL   O49323581   4.465   1.740   0.277 -0.0172  0.2046 -0.0491
   25MOL   C49423582   4.377   1.653   0.077 -0.3087  0.4244  0.0537
   25MOL   C49523583   4.499   1.561   0.043  0.1404  0.3119  0.0761
   25MOL   C49623584   4.491   1.418   0.097  0.2361 -0.0491 -0.0089
   25MOL   C49723585   4.388   1.334   0.017  0.4443  0.6519  0.9783
   25MOL   C49823586   4.385   1.190   0.083  0.0187  0.2156  0.4456
   25MOL   C49923587   4.286   1.102   0.000  0.1862 -0.2631 -0.4414
   25MOL   C50023588   4.292   0.954   0.049 -0.2521 -0.0386 -0.7245
   25MOL   C50123589   4.421   0.878   0.007  0.3083 -0.2437  0.4351
   25MOL   C50223590   4.415   0.731   0.025  0.1087  0.1519 -0.4324
   25MOL   O50323591   4.317   0.691   0.091 -0.2732  0.2589 -0.2122
   25MOL   H50423592   4.059   2.165   0.243 -0.0454  0.6661  0.9050
   25MOL   H50523593   4.260   1.963   0.349 -0.4431 -0.6133 -0.4300
   25MOL   H50623594   4.169   2.090   0.433 -1.3285  0.2294 -0.9912
   25MOL   H50723595   3.891   2.053   0.373 -0.3392 -0.6553  0.2952
   25MOL   H50823596   3.717   1.923   0.463  1.1599  1.1115 -1.0938
   25MOL   H50923597   3.771   1.690   0.547  0.7090 -0.9584 -0.7352
   25MOL   H51023598   3.997   1.602   0.530  0.4326 -0.5340 -0.9689
   25MOL   H51123599   4.220   1.608   0.461 -0.2838  0.5694 -0.7801
   25MOL   H51223600   4.292   1.770   0.467  0.2303  1.1312 -0.2393
   25MOL   H51323601   4.162   1.667   0.209  1.0515 -0.2227 -1.2181
   25MOL   H51423602   4.379   1.735   0.004  2.7916 -1.6134 -2.2956
   25MOL   H51523603   4.289   1.596   0.046 -0.2293 -0.1576  0.8909
   25MOL   H51623604   4.593   1.605   0.075  1.7218 -2.1088 -1.1275
   25MOL   H51723605   4.493   1.561   7.724  0.7975 -0.9500  0.0285
   25MOL   H51823606   4.590   1.374   0.104  0.0959 -0.2566  0.6670
   25MOL   H51923607   4.450   1.417   0.198 -1.3334 -1.0762 -0.6244
   25MOL   H52023608   4.291   1.382   0.005  0.0696 -0.8916 -2.8935
   25MOL   H52123609   4.404   1.321   7.700 -3.3692  0.9108  0.2956
   25MOL   H52223610   4.482   1.142   0.091  0.4854  0.9661 -0.5822
   25MOL   H52323611   4.354   1.205   0.186 -0.2003  1.7956  0.1677
   25MOL   H52423612   4.319   1.111   7.687 -1.3578 -3.5764 -1.2797
   25MOL   H52523613   4.186   1.144   0.011  0.9439  2.3388 -2.9178
   25MOL   H52623614   4.287   0.952   0.158 -0.3048 -3.2848 -0.7415
   25MOL   H52723615   4.206   0.900   0.010  0.2740 -0.5744 -1.1605
   25MOL   H52823616   4.503   0.912   0.070 -0.1094  0.0801  0.8121
   25MOL   H52923617   4.451   0.895   7.693 -0.6664 -2.4648 -0.2229
   25MOL   N53023618   4.520   0.653   7.770 -0.1003  0.0983 -0.1584
   25MOL   C53123619   4.533   0.508   0.024 -0.3732  0.5429 -0.1467
   25MOL   C53223620   4.506   0.402   7.711 -0.7179 -0.4864 -0.1045
   25MOL   C53323621   4.596   0.381   7.610 -0.5389 -0.3530 -0.1262
   25MOL   C53423622   4.573   0.279   7.514  1.0003  0.3841  0.6727
   25MOL   C53523623   4.451   0.208   7.514 -0.3584 -0.1058  0.0492
   25MOL   C53623624   4.362   0.224   7.622  0.0781 -0.6333 -0.2621
   25MOL   C53723625   4.393   0.318   7.726  0.3861 -0.2687  0.3476
   25MOL   C53823626   4.289   0.324   0.052 -0.0316 -0.8101 -0.0674
   25MOL   N53923627   4.202   0.441   0.038 -0.0365 -0.6656  0.1040
   25MOL   C54023628   4.069   0.436   0.013 -0.5794 -0.1087  0.2694
   25MOL   O54123629   4.005   0.342   7.752 -0.4282  0.0136 -0.0614
   25MOL   C54223630   3.986   0.565   0.044  0.1057 -0.4417 -0.4444
   25MOL   C54323631   3.914   0.568   0.185 -0.2061  0.0289  0.1332
   25MOL   C54423632   3.816   0.458   0.210  0.3618 -0.3884 -0.1009
   25MOL   C54523633   3.675   0.509   0.202  0.5166  0.0566  0.5043
   25MOL   C54623634   3.636   0.594   0.328 -0.0141 -0.0558  0.1495
   25MOL   C54723635   3.490   0.643   0.336  0.2400 -0.0995 -0.9947
   25MOL   C54823636   3.457   0.718   0.463 -0.1263 -0.6492  0.4522
   25MOL   C54923637   3.456   0.635   0.591  0.2113  0.5688 -0.5549
   25MOL   C55023638   3.344   0.535   0.612  0.1625 -0.9531  0.4442
   25MOL   O55123639   3.241   0.544   0.551 -0.4818  0.3373 -0.3898
   25MOL   H55223640   4.597   0.702   7.726 -0.7150  0.8967 -0.3569
   25MOL   H55323641   4.472   0.495   0.113 -1.4825  1.0665 -0.8291
   25MOL   H55423642   4.632   0.501   0.071 -1.9683  2.0669  3.6378
   25MOL   H55523643   4.677   0.450   7.591  0.0289 -0.6033  1.3321
   25MOL   H55623644   4.646   0.266   7.436  3.3828 -0.1674  2.9018
   25MOL   H55723645   4.420   0.141   7.435  0.5984  0.2862 -0.6766
   25MOL   H55823646   4.271   0.167   7.628  0.6225 -1.4717  0.0468
   25MOL   H55923647   4.337   0.317   0.150  1.6866 -0.4902 -0.8720
   25MOL   H56023648   4.225   0.237   0.064 -0.1422 -0.5717  1.1182
   25MOL   H56123649   4.231   0.529   0.079 -1.1187  0.0282 -0.5707
   25MOL   H56223650   3.912   0.587   7.757 -0.6553  2.1853  0.9646
   25MOL   H56323651   4.045   0.657   0.037 -1.7328  0.7340 -0.6305
   25MOL   H56423652   3.882   0.670   0.204 -1.4101 -0.3701  0.2847
   25MOL   H56523653   3.987   0.567   0.266  0.1812 -0.1773 -0.2166
   25MOL   H56623654   3.823   0.378   0.136  2.4039 -0.6094  0.3253
   25MOL   H56723655   3.828   0.416   0.309  0.1585  0.4869  0.3059
   25MOL   H56823656   3.666   0.571   0.112  0.5023  0.9926  1.1383
   25MOL   H56923657   3.614   0.420   0.191 -0.1896  0.3435  1.9989
   25MOL   H57023658   3.656   0.532   0.416  0.5139 -1.7140 -1.0993
   25MOL   H57123659   3.701   0.679   0.348 -0.3395  0.4084 -0.7433
   25MOL   H57223660   3.431   0.551   0.330 -2.7405  1.5192  1.5115
   25MOL   H57323661   3.464   0.705   0.251  0.2406  1.9390  0.4576
   25MOL   H57423662   3.525   0.804   0.471  0.5764 -1.0156 -1.2804
   25MOL   H57523663   3.357   0.755   0.443 -0.8067 -2.8385 -0.2629
   25MOL   H57623664   3.432   0.702   0.673 -1.7293 -0.7433 -0.0064
   25MOL   H57723665   3.548   0.579   0.611 -0.1591 -0.4858 -1.7683
   25MOL   N57823666   3.366   0.451   0.716 -0.0301  0.1056 -0.4686
   25MOL   C57923667   3.252   0.381   0.784  0.1686  0.7462  0.4305
   25MOL   C58023668   3.205   0.259   0.717 -0.2176 -0.4786 -0.2127
   25MOL   C58123669   3.305   0.157   0.701  0.0265  0.4510  0.2008
   25MOL   C58223670   3.273   0.036   0.639 -0.1820 -0.3502 -0.2737
   25MOL   C58323671   3.140   0.009   0.605 -1.0510 -0.2883  0.2249
   25MOL   C58423672   3.044   0.109   0.616 -0.3249  0.0860 -0.4219
   25MOL   C58523673   3.077   0.236   0.669 -0.2860  0.1439  0.2840
   25MOL   C58623674   2.966   0.340   0.683  0.3346  0.5594 -0.3880
   25MOL   N58723675   2.985   0.460   0.591 -0.2954 -0.0454  0.5660
   25MOL   C58823676   2.896   0.552   0.593  0.0451 -0.6302 -0.2549
   25MOL   O58923677   2.805   0.557   0.673  0.6294 -1.0005 -0.3358
   25MOL   C59023678   2.925   0.667   0.493  0.6470  0.2425  0.5455
   25MOL   C59123679   2.856   0.800   0.523 -0.8227 -0.3280 -0.2218
   25MOL   C59223680   2.920   0.873   0.646  0.6878 -0.1280  0.7188
   25MOL   C59323681   3.060   0.939   0.638 -0.5579  0.5485 -0.4211
   25MOL   C59423682   3.098   1.026   0.763 -0.1150  0.1406  0.1432
   25MOL   C59523683   3.133   0.940   0.892 -0.2641  0.5318  0.6314
   25MOL   C59623684   3.124   1.024   1.017 -0.1928 -0.8020  0.0014
   25MOL   C59723685   3.154   0.972   1.162 -0.6674 -0.1490  0.7355
   25MOL   C59823686   3.121   1.086   1.265 -0.4522 -0.2227 -0.2100
   25MOL   O59923687   3.002   1.123   1.272  0.1656  0.0221  0.2823
   25MOL   H60023688   3.456   0.457   0.760 -0.5382  1.9263  0.3486
   25MOL   H60123689   3.169   0.448   0.805 -0.1108 -0.1162  2.0896
   25MOL   H60223690   3.295   0.358   0.881  2.6136 -1.5787 -1.1441
   25MOL   H60323691   3.412   0.167   0.713  0.6199 -5.7324  1.4570
   25MOL   H60423692   3.346   7.748   0.617 -0.4463 -0.3755 -1.0623
   25MOL   H60523693   3.107   7.702   0.571  0.9656 -0.4278 -1.4356
   25MOL   H60623694   2.942   0.089   0.587 -0.7017  0.1372  0.8360
   25MOL   H60723695   2.958   0.368   0.788 -0.6837  0.2000 -0.3640
   25MOL   H60823696   2.870   0.296   0.659 -0.1874  1.2910  0.3301
   25MOL   H60923697   3.071   0.458   0.539  0.2220 -5.2961  1.3450
   25MOL   H61023698   2.875   0.635   0.402  1.8012  2.7668 -1.0388
   25MOL   H61123699   3.030   0.668   0.467  0.5781 -1.8546  0.1756
   25MOL   H61223700   2.749   0.778   0.526 -0.8100 -0.2514  0.6726
   25MOL   H61323701   2.871   0.870   0.440 -0.5404  0.6858  0.6724
   25MOL   H61423702   2.856   0.961   0.659  3.0244  1.8581 -0.7002
   25MOL   H61523703   2.903   0.810   0.734  0.2918  0.3301  0.9703
   25MOL   H61623704   3.133   0.861   0.619 -0.3733  0.6245 -0.0090
   25MOL   H61723705   3.051   1.008   0.554 -2.0839  0.4691 -0.3426
   25MOL   H61823706   3.187   1.084   0.743  0.2234 -0.1714  0.7480
   25MOL   H61923707   3.013   1.092   0.779 -0.0603  0.0871  0.6550
   25MOL   H62023708   3.232   0.896   0.883 -0.6473 -0.0414 -1.1182
   25MOL   H62123709   3.072   0.850   0.879 -1.8508  1.6345  0.3899
   25MOL   H62223710   3.193   1.106   0.998 -3.4040  1.8254 -0.8149
   25MOL   H62323711   3.024   1.066   1.026  0.6548  0.8755  2.0294
   25MOL   H62423712   3.090   0.886   1.184 -2.6560  1.1585  0.1907
   25MOL   H62523713   3.257   0.937   1.163 -0.3948  0.6636  1.4783
   25MOL   N62623714   3.213   1.125   1.357  0.1176 -0.6056  0.4352
   25MOL   C62723715   3.195   1.215   1.466  0.6705 -1.1991  0.1024
   25MOL   C62823716   3.177   1.143   1.604 -0.1675 -0.3354 -0.4645
   25MOL   C62923717   3.046   1.123   1.655 -0.7014  0.1500 -0.4571
   25MOL   C63023718   3.019   1.065   1.778  0.0088 -0.0799 -0.4773
   25MOL   C63123719   3.128   1.028   1.854 -0.3483  0.8691  0.4099
   25MOL   C63223720   3.261   1.046   1.807  0.2846 -0.4819 -0.3030
   25MOL   C63323721   3.289   1.096   1.677  0.2171 -0.1897 -0.3892
   25MOL   C63423722   3.443   1.122   1.647  0.2676  0.2899 -0.0386
   25MOL   N63523723   3.518   1.005   1.603 -0.3300  0.1157 -0.3173
   25MOL   C63623724   3.525   0.953   1.483 -0.2513 -0.4307  0.1127
   25MOL   O63723725   3.491   1.014   1.381 -0.8945 -0.0341 -0.6048
   25MOL   C63823726   3.571   0.805   1.469 -0.3888  0.5008 -0.4809
   25MOL   C63923727   3.473   0.704   1.405 -0.1975  0.4248 -0.3630
   25MOL   C64023728   3.457   0.700   1.254 -0.2681 -0.2191 -0.4017
   25MOL   C64123729   3.424   0.556   1.207 -0.1282  0.7214 -0.2210
   25MOL   C64223730   3.398   0.555   1.052  0.7625  0.0613 -0.9122
   25MOL   C64323731   3.262   0.617   1.006 -0.1411 -0.1049  0.3035
   25MOL   C64423732   3.138   0.543   1.052  0.7868  0.3362  0.1100
   25MOL   C64523733   3.009   0.595   0.999  0.3552  0.3342  0.1544
   25MOL   C64623734   2.889   0.514   1.046  0.1777 -0.2766  0.5638
   25MOL   O64723735   2.880   0.467   1.162 -0.1053  0.1555 -0.1704
   25MOL   H64823736   3.308   1.093   1.346 -0.0990 -1.2398  0.4067
   25MOL   H64923737   3.107   1.276   1.443  1.3726 -0.7168 -1.3861
   25MOL   H65023738   3.284   1.278   1.468  1.7402 -2.6762 -0.3504
   25MOL   H65123739   2.957   1.153   1.602  0.1527  3.0402 -0.3277
   25MOL   H65223740   2.921   1.061   1.823 -1.4201  2.5424 -3.1640
   25MOL   H65323741   3.122   0.994   1.957  2.2172 -1.0948 -0.0366
   25MOL   H65423742   3.339   1.026   1.878 -1.4758 -1.8494  1.2723
   25MOL   H65523743   3.490   1.158   1.739  0.0504  1.9646 -0.5578
   25MOL   H65623744   3.460   1.205   1.578  0.6238 -1.6018 -2.2977
   25MOL   H65723745   3.552   0.939   1.672 -1.0560 -1.4304 -1.4179
   25MOL   H65823746   3.587   0.763   1.569 -1.3430  4.6054  1.5411
   25MOL   H65923747   3.667   0.809   1.420 -0.2621 -0.3160 -0.3062
   25MOL   H66023748   3.377   0.704   1.457  0.0524 -0.6533  0.1130
   25MOL   H66123749   3.516   0.609   1.437 -0.7313  0.9996  2.1851
   25MOL   H66223750   3.377   0.767   1.224 -1.7509 -1.6617  0.2663
   25MOL   H66323751   3.550   0.727   1.204  0.9888 -3.3370  0.1820
   25MOL   H66423752   3.509   0.488   1.220 -1.3211 -0.7435  0.0713
   25MOL   H66523753   3.339   0.507   1.253 -0.9815  1.4325 -1.0254
   25MOL   H66623754   3.474   0.606   0.993 -0.3174  0.2734 -2.1423
   25MOL   H66723755   3.405   0.457   1.007  1.1068 -0.0263 -0.6702
   25MOL   H66823756   3.264   0.629   0.898 -0.3081  1.6621  0.4861
   25MOL   H66923757   3.260   0.723   1.032 -0.4472 -0.0047 -0.1307
   25MOL   H67023758   3.142   0.438   1.021 -0.2086  0.8458 -1.8073
   25MOL   H67123759   3.138   0.548   1.161  1.2169  0.1818  0.1190
   25MOL   H67223760   3.019   0.617   0.893 -0.4237 -0.4710 -0.1039
   25MOL   H67323761   3.004   0.696   1.039 -1.8911  0.8849 -1.3952
   25MOL   N67423762   2.798   0.497   0.947  0.2022  0.6766 -0.3684
   25MOL   C67523763   2.684   0.403   0.950 -0.0824 -0.5308  0.4516
   25MOL   C67623764   2.695   0.268   0.872  0.2022 -0.5156 -0.0840
   25MOL   C67723765   2.795   0.174   0.916  0.1229 -0.8246  0.8077
   25MOL   C67823766   2.809   0.054   0.843  0.5476 -0.6625 -0.2719
   25MOL   C67923767   2.711   0.020   0.742 -0.2747  0.8047  0.4045
   25MOL   C68023768   2.619   0.117   0.701 -0.6140 -0.0544  0.5535
   25MOL   C68123769   2.613   0.243   0.761 -0.0057  0.0647  1.2757
   25MOL   C68223770   2.519   0.346   0.696  0.0609  0.6016 -0.7521
   25MOL   N68323771   2.378   0.314   0.696  0.0016 -0.5381  0.1590
   25MOL   C68423772   2.304   0.272   0.593 -0.0843 -0.5156 -0.2357
   25MOL   O68523773   2.347   0.255   0.478 -0.3514 -0.5706 -0.1169
   25MOL   C68623774   2.156   0.230   0.626 -0.2932  0.2817  0.0787
   25MOL   C68723775   2.056   0.283   0.524 -0.2949  0.1230 -0.5812
   25MOL   C68823776   2.039   0.434   0.518 -0.3623  0.0575 -0.2583
   25MOL   C68923777   1.907   0.479   0.452  0.0743  0.7946  0.0923
   25MOL   C69023778   1.893   0.636   0.425 -0.2926  0.0799  0.2013
   25MOL   C69123779   1.772   0.689   0.499  0.2585  0.1211  0.1011
   25MOL   C69223780   1.759   0.840   0.477  0.6494  0.4311  0.7557
   25MOL   C69323781   1.636   0.905   0.546 -0.4353  0.0808 -0.5247
   25MOL   C69423782   1.548   0.978   0.441  0.0291  0.2623  0.4533
   25MOL   O69523783   1.548   1.099   0.438  0.0676  0.0023 -0.0055
   25MOL   H69623784   2.819   0.539   0.857  1.0865  1.6990  0.3001
   25MOL   H69723785   2.601   0.466   0.922  0.2568 -0.1223  0.3598
   25MOL   H69823786   2.653   0.386   1.053 -3.6148 -0.1853 -0.5100
   25MOL   H69923787   2.871   0.211   0.983 -1.1103  2.3216  0.5949
   25MOL   H70023788   2.900   7.788   0.858 -0.9673 -3.7407 -1.9377
   25MOL   H70123789   2.734   7.730   0.672  0.8637 -0.4732  2.2011
   25MOL   H70223790   2.557   0.095   0.616  1.3400 -2.4251 -0.3140
   25MOL   H70323791   2.568   0.377   0.603 -0.1955  2.0139 -0.4295
   25MOL   H70423792   2.522   0.449   0.732 -0.6246  0.5201 -0.4548
   25MOL   H70523793   2.332   0.348   0.780 -0.0501 -2.2573  0.8325
   25MOL   H70623794   2.131   0.259   0.728 -1.0092  0.1308 -0.0555
   25MOL   H70723795   2.161   0.122   0.618  3.4474  0.3105  1.1021
   25MOL   H70823796   1.954   0.252   0.549 -0.3584  2.4136  2.2197
   25MOL   H70923797   2.090   0.249   0.426 -0.1099 -1.0242 -0.1339
   25MOL   H71023798   2.035   0.464   0.623  0.1179  0.5813 -0.3910
   25MOL   H71123799   2.124   0.486   0.475 -1.4085  2.1384  0.1229
   25MOL   H71223800   1.914   0.435   0.352 -0.4746  0.3340  0.2475
   25MOL   H71323801   1.817   0.426   0.484  0.8819 -1.4488 -1.2086
   25MOL   H71423802   1.973   0.703   0.458  0.6031 -0.9307  0.0993
   25MOL   H71523803   1.874   0.660   0.321  1.7267 -0.0551 -0.2241
   25MOL   H71623804   1.781   0.672   0.606 -0.0159 -0.0522  0.0976
   25MOL   H71723805   1.691   0.626   0.461  1.0845  0.1347 -1.7352
   25MOL   H71823806   1.749   0.867   0.372 -1.3819 -0.9957  0.5483
   25MOL   H71923807   1.847   0.891   0.514  0.5978  1.6207 -0.7202
   25MOL   H72023808   1.666   0.977   0.622  2.3744  0.7934 -2.2441
   25MOL   H72123809   1.578   0.826   0.595  1.6803 -1.9379 -1.1763
   25MOL   N72223810   1.470   0.907   0.360  0.3658 -0.7296 -0.1076
   25MOL   C72323811   1.380   0.963   0.257 -0.2243 -0.1290 -0.8311
   25MOL   C72423812   1.446   1.036   0.138  0.2157  1.1125 -0.3492
   25MOL   C72523813   1.512   0.943   0.051  0.2136 -0.0083 -0.0678
   25MOL   C72623814   1.561   0.981   7.711  0.2392 -0.6537 -0.0203
   25MOL   C72723815   1.553   1.121   7.685  0.1189  0.3931  1.0075
   25MOL   C72823816   1.501   1.213   7.778 -0.1879 -0.2187 -0.1572
   25MOL   C72923817   1.444   1.174   0.107  0.1029 -0.4055  0.2800
   25MOL   C73023818   1.360   1.276   0.183  0.1086  0.4315  0.3595
   25MOL   N73123819   1.428   1.311   0.305  0.3207 -0.2412  0.4066
   25MOL   C73223820   1.427   1.436   0.357 -0.0179  0.2181 -0.3297
   25MOL   O73323821   1.371   1.528   0.302  0.0107  0.3462  0.1979
   25MOL   C73423822   1.486   1.461   0.493  0.0266  0.3421 -0.1276
   25MOL   C73523823   1.453   1.596   0.571 -0.4792  0.1302  0.4175
   25MOL   C73623824   1.550   1.710   0.540 -0.3968 -0.4308  0.3235
   25MOL   C73723825   1.701   1.665   0.581 -0.0498  0.0584  0.0053
   25MOL   C73823826   1.798   1.783   0.600  0.4757  0.3415  0.0659
   25MOL   C73923827   1.780   1.899   0.493 -0.9252 -0.2719  0.1689
   25MOL   C74023828   1.808   1.846   0.347  0.4664 -0.4204  0.8414
   25MOL   C74123829   1.948   1.789   0.333  0.2420 -0.2835 -0.2683
   25MOL   C74223830   1.985   1.771   0.187 -0.0629 -0.4435  0.2301
   25MOL   O74323831   1.955   1.849   0.087  0.0549  0.0577  0.0928
   25MOL   H74423832   1.460   0.807   0.367  0.6626 -0.9278 -2.1536
   25MOL   H74523833   1.299   1.016   0.306  0.5839  0.9765 -0.6724
   25MOL   H74623834   1.328   0.873   0.223  1.6393 -1.4494 -0.3062
   25MOL   H74723835   1.506   0.840   0.082 -0.6346  0.3273  0.9169
   25MOL   H74823836   1.604   0.909   7.643  0.0306 -0.7424 -0.0587
   25MOL   H74923837   1.609   1.158   7.600 -0.6957  1.0952  0.7656
   25MOL   H75023838   1.482   1.317   7.758  1.9480  0.0322 -1.0127
   25MOL   H75123839   1.261   1.239   0.210  1.0770 -1.0995  1.8984
   25MOL   H75223840   1.341   1.366   0.124 -1.7889  0.2321  0.6216
   25MOL   H75323841   1.471   1.232   0.351  2.6225  1.3525  1.1102
   25MOL   H75423842   1.593   1.449   0.475 -0.7500 -1.3517 -4.1340
   25MOL   H75523843   1.469   1.378   0.561 -1.8704  2.6297  2.3083
   25MOL   H75623844   1.444   1.577   0.677 -1.1259  2.3727  0.7991
   25MOL   H75723845   1.357   1.641   0.544 -0.1890  0.8018  0.4770
   25MOL   H75823846   1.557   1.733   0.434  0.4599 -0.9325  0.2645
   25MOL   H75923847   1.519   1.798   0.596 -0.2774 -1.6676  2.4064
   25MOL   H76023848   1.695   1.614   0.677 -1.1038 -0.5149 -0.3543
   25MOL   H76123849   1.743   1.600   0.505  0.3382 -0.6084  0.7799
   25MOL   H76223850   1.781   1.828   0.697 -2.6236 -1.3751  0.3893
   25MOL   H76323851   1.895   1.733   0.610  0.9843  1.2885 -0.0406
   25MOL   H76423852   1.853   1.978   0.511 -2.0503  1.3368 -2.0462
   25MOL   H76523853   1.685   1.951   0.500 -1.0013 -0.2317 -0.9684
   25MOL   H76623854   1.734   1.770   0.320 -0.2753 -0.3655  2.6102
   25MOL   H76723855   1.796   1.942   0.297 -1.6656 -0.8958  0.3620
   25MOL   H76823856   2.028   1.836   0.390  2.0055 -0.4378 -2.5412
   25MOL   H76923857   1.950   1.686   0.370 -1.7831 -0.1316  0.3296
   25MOL   N77023858   2.050   1.660   0.164 -0.1428 -0.4225 -0.1607
   25MOL   C77123859   2.127   1.625   0.048  0.0137  0.1688  0.6686
   25MOL   C77223860   2.273   1.593   0.086  0.4211  0.3020  0.4924
   25MOL   C77323861   2.304   1.453   0.084  0.4642 -0.6781  0.2969
   25MOL   C77423862   2.431   1.414   0.124 -0.3250 -0.7026 -0.3547
   25MOL   C77523863   2.519   1.507   0.183  0.2756  0.4133  0.2296
   25MOL   C77623864   2.496   1.642   0.180  0.4796  0.0775  0.3976
   25MOL   C77723865   2.371   1.691   0.134  0.6967  0.2793 -0.7348
   25MOL   C77823866   2.332   1.832   0.162  0.7696  0.5039  0.0218
   25MOL   N77923867   2.437   1.923   0.124 -0.1339 -0.1496 -0.0944
   25MOL   C78023868   2.448   1.984   0.004  0.4131  0.5965 -0.2605
   25MOL   O78123869   2.353   1.986   7.714  0.6819 -0.5205 -0.3895
   25MOL   C78223870   2.580   2.053   7.762  0.0058  0.5855 -0.4866
   25MOL   C78323871   2.645   1.994   7.641 -0.2567  0.5873 -0.0998
   25MOL   C78423872   2.716   1.860   7.677 -0.4598 -0.6434  0.2564
   25MOL   C78523873   2.748   1.784   7.553  0.3707 -0.2430 -0.5315
   25MOL   C78623874   2.871   1.839   7.482 -0.6831 -1.0124 -0.1834
   25MOL   C78723875   2.918   1.760   7.357 -0.6992  0.4258 -0.7304
   25MOL   C78823876   3.044   1.813   7.288 -0.2494 -0.5356  0.7191
   25MOL   C78923877   3.072   1.746   7.154  0.2586 -0.0320 -0.0534
   25MOL   C79023878   3.123   1.603   7.163  0.7360 -0.6768  0.0461
   25MOL   O79123879   3.156   1.559   7.268  0.0475 -0.3870 -0.4432
   25MOL   H79223880   2.068   1.595   0.239  3.3712 -0.5430 -1.0144
   25MOL   H79323881   2.079   1.543   7.785 -1.6132 -0.7974  3.5139
   25MOL   H79423882   2.114   1.702   7.762 -0.0289 -2.1905 -1.7941
   25MOL   H79523883   2.230   1.384   0.047  1.1921 -1.6608  0.6450
   25MOL   H79623884   2.460   1.311   0.110  1.1333 -0.1468 -1.6348
   25MOL   H79723885   2.618   1.475   0.213  0.3157  0.6133  0.3169
   25MOL   H79823886   2.575   1.708   0.212  0.9463 -1.7103  3.0903
   25MOL   H79923887   2.310   1.840   0.268 -1.1635 -2.5915 -0.0536
   25MOL   H80023888   2.245   1.860   0.103  1.4364 -0.7942 -1.6371
   25MOL   H80123889   2.517   1.916   0.184 -0.6289  2.2212  0.8884
   25MOL   H80223890   2.656   2.045   0.050 -0.8443 -1.6772  0.1818
   25MOL   H80323891   2.555   2.158   7.750  1.9227  1.5869  3.6470
   25MOL   H80423892   2.719   2.058   7.594 -1.1098  0.8430 -1.1136
   25MOL   H80523893   2.570   1.980   7.563 -1.8560 -0.1802  1.5189
   25MOL   H80623894   2.661   1.793   7.743  1.0980 -2.1651  0.0775
   25MOL   H80723895   2.802   1.873   7.742 -0.6328  1.0849  0.1420
   25MOL   H80823896   2.760   1.677   7.571 -0.1208 -0.1490  0.3594
   25MOL   H80923897   2.667   1.792   7.481  2.5296  3.1199 -2.7419
   25MOL   H81023898   2.856   1.941   7.447  0.2633 -1.2718 -1.4135
   25MOL   H81123899   2.945   1.850   7.561 -2.0315  1.0293  0.8371
   25MOL   H81223900   2.836   1.759   7.286 -0.7641  1.7046 -0.6813
   25MOL   H81323901   2.951   1.658   7.377 -1.4585  0.3055 -0.0748
   25MOL   H81423902   3.120   1.822   7.365 -0.5492  0.0265  0.9521
   25MOL   H81523903   3.021   1.919   7.273 -1.0936 -0.9019 -0.6670
   25MOL   H81623904   3.155   1.807   7.117  0.1339 -0.7144 -1.5124
   25MOL   H81723905   2.990   1.750   7.082 -0.0681  1.9493  0.4165
   25MOL   N81823906   3.121   1.534   7.043 -0.2779 -0.6363 -0.4319
   25MOL   C81923907   3.170   1.403   7.025  0.4351  0.4130  0.2243
   25MOL   C82023908   3.058   1.317   6.967  0.1273  0.5218 -0.0048
   25MOL   C82123909   3.026   1.330   6.830 -0.1648 -0.6624 -0.1828
   25MOL   C82223910   2.927   1.248   6.772  0.0624 -0.6571 -0.3758
   25MOL   C82323911   2.858   1.153   6.854  0.3392  0.1561 -0.0613
   25MOL   C82423912   2.887   1.133   6.989  0.4793 -0.2133  0.5987
   25MOL   C82523913   2.993   1.212   7.042  0.3250  0.4144 -0.7800
   25MOL   C82623914   3.038   1.161   7.188 -1.2490 -0.1275  0.1724
   25MOL   N82723915   3.019   1.267   7.280  0.4503  0.1085 -0.1551
   25MOL   C82823916   3.071   1.269   7.402 -0.2281  0.0990  0.1267
   25MOL   O82923917   3.182   1.216   7.426 -0.0603  0.0583  0.0766
   25MOL   C83023918   3.008   1.359   7.511 -0.4448  0.3710  0.5416
   25MOL   C83123919   3.017   1.291   7.651 -0.0973  0.3455  0.2195
   25MOL   C83223920   2.925   1.364   7.751 -0.1681  0.2678 -0.4273
   25MOL   C83323921   2.980   1.506   0.007 -0.4925  0.4813  0.2926
   25MOL   C83423922   2.916   1.561   0.133  0.4924  0.2310 -0.2969
   25MOL   C83523923   2.957   1.706   0.167 -0.6468 -0.4954 -0.7077
   25MOL   C83623924   2.899   1.751   0.302  0.7626  0.4806 -0.4711
   25MOL   C83723925   2.932   1.895   0.346 -0.3364 -0.4441 -0.2041
   25MOL   C83823926   2.825   1.991   0.302  0.7309  0.0560  0.0614
   25MOL   O83923927   2.710   1.957   0.305  0.6309 -0.5201  0.4281
   25MOL   H84023928   3.079   1.578   6.963  0.2770  0.2332 -0.2506
   25MOL   H84123929   3.252   1.409   6.954  0.8538  1.4664  0.7763
   25MOL   H84223930   3.206   1.356   7.117  0.4560  0.0264  0.0172
   25MOL   H84323931   3.086   1.395   6.768 -1.3515  1.8643  1.2156
   25MOL   H84423932   2.898   1.259   6.668  1.7772  0.3901 -0.7778
   25MOL   H84523933   2.786   1.086   6.809 -0.5853  0.3205  1.1856
   25MOL   H84623934   2.815   1.067   7.036  1.4749 -1.5754  0.2665
   25MOL   H84723935   3.143   1.135   7.177 -0.6841  2.8525 -2.5094
   25MOL   H84823936   2.977   1.077   7.220 -1.7197 -0.0156 -0.4226
   25MOL   H84923937   2.950   1.337   7.259 -0.0121 -0.1747  0.3963
   25MOL   H85023938   2.909   1.381   7.470 -0.4390 -1.2064 -0.3684
   25MOL   H85123939   3.071   1.449   7.510 -0.8551  0.6884 -2.7743
   25MOL   H85223940   3.117   1.300   7.693 -0.0464  1.9887 -0.2002
   25MOL   H85323941   2.976   1.191   7.655  0.4264  0.1947  2.3849
   25MOL   H85423942   2.926   1.294   0.045  0.6790 -1.2211 -1.6387
   25MOL   H85523943   2.821   1.371   7.721  0.1330 -1.6726 -2.0866
   25MOL   H85623944   3.084   1.502   0.038 -0.8372 -1.8493  1.2817
   25MOL   H85723945   2.968   1.579   7.717  0.5858 -0.3893 -0.6908
   25MOL   H85823946   2.808   1.559   0.115  0.2151  1.4898  1.1635
   25MOL   H85923947   2.940   1.500   0.220  2.7937  0.0229 -1.0479
   25MOL   H86023948   2.918   1.783   0.100 -0.2140 -0.2375 -0.6598
   25MOL   H86123949   3.066   1.706   0.167 -0.6170  1.8254 -3.0608
   25MOL   H86223950   2.955   1.692   0.375 -0.0327 -2.3965 -2.1229
   25MOL   H86323951   2.799   1.709   0.313  0.6802  0.4524 -1.2886
   25MOL   H86423952   2.934   1.900   0.455 -0.2220  0.6092 -0.2531
   25MOL   H86523953   3.028   1.921   0.301  0.8155  0.0609  2.4291
   25MOL   N86623954   2.866   2.110   0.255  0.1700 -0.1011  0.0097
   25MOL   C86723955   2.769   2.219   0.245 -0.3457  0.5324 -0.0968
   25MOL   C86823956   2.770   2.286   0.106 -0.4641  0.5219 -0.2240
   25MOL   C86923957   2.854   2.248   0.000  0.6412  0.3952  0.3706
   25MOL   C87023958   2.860   2.316   7.667 -0.4721  0.0626  0.5618
   25MOL   C87123959   2.746   2.396   7.640 -0.4832  0.5111  0.0407
   25MOL   C87223960   2.657   2.436   7.737  0.3209 -0.3785  0.2440
   25MOL   C87323961   2.672   2.385   0.079  0.0457 -0.3876  0.0237
   25MOL   C87423962   2.590   2.445   0.195 -0.2568  0.7563 -0.3457
   25MOL   N87523963   2.531   2.579   0.172  0.3652 -0.4571  0.1849
   25MOL   C87623964   2.592   2.692   0.218  0.0273  0.1974  0.1620
   25MOL   O87723965   2.688   2.689   0.285 -0.2096  0.1722  0.1404
   25MOL   C87823966   2.519   2.820   0.185 -0.3192  0.4069  0.1625
   25MOL   C87923967   2.606   2.932   0.138  0.4762  0.4886 -0.4259
   25MOL   C88023968   2.670   3.008   0.250  0.5065 -0.1431 -0.1513
   25MOL   C88123969   2.739   3.134   0.196 -0.2427  0.0418  0.3236
   25MOL   C88223970   2.836   3.195   0.304 -0.4394  0.0700  0.5543
   25MOL   C88323971   2.917   3.310   0.246 -0.7784  0.0026  0.7515
   25MOL   C88423972   3.003   3.382   0.351 -0.5390  0.1267 -0.0430
   25MOL   C88523973   3.123   3.302   0.412 -0.7230  0.1739 -0.0748
   25MOL   C88623974   3.247   3.278   0.322  0.6468 -0.0560 -0.5030
   25MOL   O88723975   3.250   3.183   0.243  0.2353 -1.0765 -0.6007
   25MOL   H88823976   2.964   2.129   0.239 -0.0609  1.3115  0.1570
   25MOL   H88923977   2.670   2.192   0.284  0.7203 -2.0612  0.9470
   25MOL   H89023978   2.816   2.287   0.316 -1.8246  0.6817  0.7673
   25MOL   H89123979   2.926   2.171   0.023  0.5230  0.1761  0.0183
   25MOL   H89223980   2.930   2.286   7.590 -0.1899 -0.1979  0.9176
   25MOL   H89323981   2.748   2.444   7.544 -0.0706 -0.8238 -0.6398
   25MOL   H89423982   2.589   2.517   7.717  0.4952 -0.6516 -1.5243
   25MOL   H89523983   2.652   2.456   0.285 -1.4608  1.1982  0.4358
   25MOL   H89623984   2.511   2.381   0.235  1.1089 -0.0847  1.0678
   25MOL   H89723985   2.437   2.587   0.135  0.2044  2.1112  1.0186
   25MOL   H89823986   2.451   2.858   0.262 -0.9201  1.0353 -0.6739
   25MOL   H89923987   2.450   2.804   0.103 -3.4670 -0.5583  2.8744
   25MOL   H90023988   2.538   3.003   0.091 -0.2797  0.4530  0.5981
   25MOL   H90123989   2.680   2.886   0.073 -0.9421 -0.5235 -1.3723
   25MOL   H90223990   2.587   3.034   0.316  1.2710 -0.3830  0.9337
   25MOL   H90323991   2.738   2.952   0.315  0.2368  0.8938  1.0467
   25MOL   H90423992   2.805   3.108   0.113 -0.0460  1.3722  0.0556
   25MOL   H90523993   2.668   3.213   0.173 -0.5969 -0.5408 -0.5863
   25MOL   H90623994   2.777   3.218   0.393  0.5590  1.4572  0.8683
   25MOL   H90723995   2.898   3.114   0.343 -2.3943 -1.4647  0.5583
   25MOL   H90823996   2.857   3.385   0.194 -1.1255 -0.5930  0.2927
   25MOL   H90923997   2.982   3.269   0.169  0.7284  0.8920  1.5234
   25MOL   H91023998   3.040   3.476   0.309  0.8279  0.5234  1.9473
   25MOL   H91123999   2.945   3.427   0.432 -0.0429  2.7036 -1.0707
   25MOL   H91224000   3.153   3.372   0.490 -2.0847 -0.2326  0.8179
   25MOL   H91324001   3.078   3.210   0.448  1.4894 -0.6893  0.5871
   25MOL   N91424002   3.358   3.352   0.332  0.5534  0.7471 -0.1808
   25MOL   C91524003   3.473   3.326   0.251 -0.1584  0.3130 -0.3877
   25MOL   C91624004   3.597   3.407   0.289 -0.3296  0.5571 -0.1895
   25MOL   C91724005   3.575   3.540   0.333  0.3446  0.6678 -0.4287
   25MOL   C91824006   3.681   3.609   0.393  0.5397  0.1441  0.5193
   25MOL   C91924007   3.812   3.548   0.414  0.2812 -0.1683 -0.3565
   25MOL   C92024008   3.826   3.418   0.373  0.5718 -1.0311 -0.5372
   25MOL   C92124009   3.721   3.343   0.311 -0.2113  0.0421  0.4111
   25MOL   C92224010   3.746   3.197   0.285  0.2290 -0.0641  0.1428
   25MOL   N92324011   3.769   3.175   0.140 -0.2917 -0.0820 -0.7388
   25MOL   C92424012   3.706   3.091   0.059 -0.1092  0.1238  0.0570
   25MOL   O92524013   3.609   3.025   0.092 -0.1572  0.2534  0.6330
   25MOL   C92624014   3.766   3.076   7.708  1.0033  0.3850  0.1307
   25MOL   C92724015   3.682   2.995   7.615 -0.6160 -0.3547  0.2132
   25MOL   C92824016   3.746   2.951   7.485 -0.2537 -0.2884  0.4481
   25MOL   C92924017   3.654   2.941   7.366  0.4166 -0.3379  0.0750
   25MOL   C93024018   3.712   2.868   7.236 -0.3341  0.3845 -0.2725
   25MOL   C93124019   3.832   2.932   7.174  0.0660 -0.3281  0.4522
   25MOL   C93224020   3.891   2.845   7.057  0.3575 -0.4285 -0.7470
   25MOL   C93324021   3.989   2.919   6.964 -0.4006  0.1197 -0.2976
   25MOL   C93424022   4.028   2.841   6.842  0.6975  0.6449  0.3521
   25MOL   O93524023   3.982   2.730   6.801  0.0347 -0.4495  0.1476
   25MOL   H93624024   3.354   3.438   0.385 -0.6230  0.3039  0.4871
   25MOL   H93724025   3.495   3.219   0.255 -0.2719  0.3012 -0.0320
   25MOL   H93824026   3.455   3.368   0.152 -2.1248 -0.9556 -0.6038
   25MOL   H93924027   3.483   3.590   0.306 -0.6145 -1.2531 -0.8219
   25MOL   H94024028   3.661   3.714   0.402  0.5410  0.1950 -0.0718
   25MOL   H94124029   3.890   3.610   0.456  1.2131 -1.4447 -0.2102
   25MOL   H94224030   3.920   3.370   0.398  2.5278  1.9342 -1.8832
   25MOL   H94324031   3.681   3.126   0.336 -1.0321 -0.2962 -1.7221
   25MOL   H94424032   3.840   3.171   0.332  2.7007  1.7943 -3.5457
   25MOL   H94524033   3.848   3.225   0.102  0.0213 -0.1614 -0.2010
   25MOL   H94624034   3.865   3.031   7.723  0.4867 -0.8138  0.0032
   25MOL   H94724035   3.780   3.173   7.661 -1.2091  0.8950  0.4740
   25MOL   H94824036   3.587   3.045   7.601 -0.6710 -0.8086 -1.1551
   25MOL   H94924037   3.639   2.913   7.672 -1.5302 -0.8794 -1.1818
   25MOL   H95024038   3.837   3.001   7.452 -0.6836 -0.8391 -1.6249
   25MOL   H95124039   3.782   2.850   7.503 -0.9313 -0.5922  0.1089
   25MOL   H95224040   3.558   2.901   7.397  0.2455 -0.6902 -0.8818
   25MOL   H95324041   3.638   3.046   7.341  2.3239  0.4453  1.9972
   25MOL   H95424042   3.640   2.865   7.154  0.8443 -2.3126 -1.2629
   25MOL   H95524043   3.737   2.765   7.259  0.4654  1.0801  2.1392
   25MOL   H95624044   3.798   3.026   7.131 -0.7251 -1.0280 -0.4877
   25MOL   H95724045   3.914   2.965   7.237  0.6033  0.2969 -0.5637
   25MOL   H95824046   3.804   2.814   6.999  0.0878  2.0094 -1.6852
   25MOL   H95924047   3.937   2.757   7.103 -3.2382 -1.0995  1.8084
   25MOL   H96024048   4.076   2.930   7.029 -2.0117 -0.0225  1.9604
   25MOL   H96124049   3.937   3.013   6.949 -0.7644  0.1733  1.2016
   25MOL   H96224050   4.107   2.888   6.785  0.5396  0.0238 -0.3783
   26MOL     N124051   6.766   7.057   5.209  0.3603  0.0275 -0.1821
   26MOL     C224052   6.666   7.010   5.309  0.1743  0.0020  0.4841
   26MOL     C324053   6.521   6.997   5.261 -0.4644 -0.3667  0.2636
   26MOL     C424054   6.429   7.087   5.314 -0.1903 -0.0694 -0.1292
   26MOL     C524055   6.293   7.070   5.285  0.1359 -0.6002  0.1211
   26MOL     C624056   6.253   6.980   5.186  0.5521  0.0758 -0.2816
   26MOL     C724057   6.352   6.895   5.124  0.7667 -0.9242 -0.3175
   26MOL     C824058   6.488   6.901   5.158  0.0922 -0.0244  0.0022
   26MOL     C924059   6.593   6.814   5.088  1.1354 -0.6230 -0.2538
   26MOL    N1024060   6.666   6.885   4.994 -0.7307  0.1803  0.3914
   26MOL    C1124061   6.714   6.831   4.879  0.3735 -0.4122 -0.5322
   26MOL    O1224062   6.714   6.711   4.864 -0.3298  0.3121  0.2053
   26MOL    C1324063   6.793   6.923   4.772  0.8467  0.6801  0.5275
   26MOL    C1424064   6.839   6.840   4.644  0.4990  0.4771  0.3968
   26MOL    C1524065   6.912   6.930   4.543 -0.4385  1.5345  0.1896
   26MOL    C1624066   6.897   6.895   4.393  0.2170 -0.5502 -0.2160
   26MOL    C1724067   6.969   6.758   4.353  1.1740  0.1083  1.0605
   26MOL    C1824068   6.958   6.744   4.189  0.0633 -0.3555 -0.5965
   26MOL    C1924069   7.065   6.642   4.133  0.1457 -0.2030 -0.4644
   26MOL    C2024070   7.214   6.659   4.168 -1.3810  0.0674 -0.5107
   26MOL    C2124071   7.308   6.623   4.060  0.9450  0.4454  0.2288
   26MOL    O2224072   7.330   6.698   3.968  0.4402 -0.0635 -0.3920
   26MOL    H2324073   6.787   7.156   5.208 -1.9996  0.5593  0.7989
   26MOL    H2424074   6.682   6.910   5.347  0.4561 -0.0836  0.1368
   26MOL    H2524075   6.676   7.069   5.400  2.5491  0.4316 -0.0233
   26MOL    H2624076   6.459   7.159   5.388  1.5289 -0.8265 -0.0697
   26MOL    H2724077   6.212   7.124   5.332 -1.4411 -1.3387 -1.6816
   26MOL    H2824078   6.151   6.964   5.155  1.7855 -1.4635 -3.8638
   26MOL    H2924079   6.322   6.831   5.042 -0.7481  1.1170 -1.4137
   26MOL    H3024080   6.541   6.726   5.049 -0.3456 -0.2418  0.8282
   26MOL    H3124081   6.654   6.779   5.172  0.8746 -0.2311  0.1000
   26MOL    H3224082   6.682   6.983   5.009 -0.8741  0.3368 -0.4749
   26MOL    H3324083   6.883   6.972   4.809  0.7905  0.8480  0.4478
   26MOL    H3424084   6.722   7.001   4.744 -0.6497 -0.6837  0.4995
   26MOL    H3524085   6.750   6.793   4.603 -0.3359  2.0120  0.4316
   26MOL    H3624086   6.901   6.753   4.667  0.4135  0.7447  1.6413
   26MOL    H3724087   6.867   7.030   4.545  0.7482  2.1571 -2.2594
   26MOL    H3824088   7.014   6.937   4.580 -1.2865  2.4056  2.4688
   26MOL    H3924089   6.798   6.876   4.353 -0.3834  0.5316  0.7061
   26MOL    H4024090   6.948   6.977   4.342  1.8874 -0.0201  2.1938
   26MOL    H4124091   7.073   6.774   4.382  0.9270  2.1987  0.9064
   26MOL    H4224092   6.931   6.670   4.404 -0.4842  0.1177 -0.1242
   26MOL    H4324093   6.977   6.837   4.135 -4.1671  1.3717  0.7114
   26MOL    H4424094   6.860   6.721   4.147  0.8419  0.5669 -2.9884
   26MOL    H4524095   7.043   6.552   4.190  0.5217 -0.3363 -0.5243
   26MOL    H4624096   7.041   6.619   4.029 -1.9973 -2.0449  0.3804
   26MOL    H4724097   7.245   6.605   4.258 -0.0050  0.5727 -0.6757
   26MOL    H4824098   7.247   6.761   4.185 -0.4943 -0.6639  2.4874
   26MOL    H4924099   6.848   7.008   5.243  0.0555 -0.5512 -0.2820
   26MOL    N5024100   7.360   6.500   4.061 -0.0654 -0.6324 -0.3209
   26MOL    C5124101   7.442   6.441   3.954 -0.0742 -0.1959 -0.3839
   26MOL    C5224102   7.453   6.289   3.960  0.3191  0.3164  0.7295
   26MOL    C5324103   7.581   6.238   3.940  0.3230  0.4417  0.2375
   26MOL    C5424104   7.604   6.101   3.933  0.3078 -0.4165 -0.5952
   26MOL    C5524105   7.506   6.007   3.949 -0.2135  0.2096  0.2239
   26MOL    C5624106   7.372   6.060   3.964 -0.0612 -0.0805  0.3277
   26MOL    C5724107   7.347   6.199   3.961  0.0559  0.1481  0.2123
   26MOL    C5824108   7.208   6.244   3.943 -0.0065  0.2237  1.1486
   26MOL    N5924109   7.124   6.214   4.053 -0.4717  0.4959 -0.5506
   26MOL    C6024110   7.135   6.262   4.178 -0.1357 -0.4869 -0.0304
   26MOL    O6124111   7.206   6.348   4.218 -0.3300  0.2455  0.1106
   26MOL    C6224112   7.058   6.176   4.278  0.2141  1.0709  0.4116
   26MOL    C6324113   7.084   6.194   4.429  0.0923  0.0987  0.9201
   26MOL    C6424114   6.997   6.314   4.479  0.4438 -0.0700 -0.3562
   26MOL    C6524115   7.006   6.323   4.631  0.4444 -0.3049  0.3710
   26MOL    C6624116   6.970   6.459   4.687  0.6137  0.4915 -0.4983
   26MOL    C6724117   6.954   6.480   4.841  0.2097 -0.9825  0.4048
   26MOL    C6824118   7.065   6.432   4.930  0.4802 -0.0228 -0.3110
   26MOL    C6924119   7.191   6.524   4.911  0.7855 -0.2466 -0.5290
   26MOL    C7024120   7.308   6.491   4.997 -0.6431  0.4452 -0.4087
   26MOL    O7124121   7.321   6.377   5.051 -0.4213  0.3349 -0.5668
   26MOL    H7224122   7.315   6.430   4.119  3.1952 -1.3152  1.5256
   26MOL    H7324123   7.532   6.502   3.964 -1.4370  1.9171 -0.4426
   26MOL    H7424124   7.391   6.464   3.861  1.9557  0.3819 -1.3755
   26MOL    H7524125   7.667   6.301   3.924  1.2047 -0.2249  2.2713
   26MOL    H7624126   7.701   6.053   3.926  0.5695  0.1993 -1.4378
   26MOL    H7724127   7.522   5.902   3.969  1.8250  0.4407 -0.0737
   26MOL    H7824128   7.294   5.986   3.975  1.1191 -1.1079  2.2677
   26MOL    H7924129   7.178   6.195   3.850 -0.6224  0.8697  1.0013
   26MOL    H8024130   7.194   6.351   3.929  0.4490  0.1633  0.1225
   26MOL    H8124131   7.054   6.142   4.054  1.5769 -1.6208  3.7029
   26MOL    H8224132   7.079   6.071   4.259 -0.8938  0.9345 -0.1202
   26MOL    H8324133   6.950   6.189   4.268  0.2307  0.7126 -0.2780
   26MOL    H8424134   7.185   6.233   4.444  0.4992 -0.4637 -0.2569
   26MOL    H8524135   7.073   6.107   4.493 -0.3280  0.9746  2.0603
   26MOL    H8624136   7.035   6.408   4.439  0.0925 -0.6932 -2.2278
   26MOL    H8724137   6.896   6.308   4.439  0.7261  0.1720 -1.1150
   26MOL    H8824138   6.929   6.253   4.663 -1.6514  1.2099 -1.2223
   26MOL    H8924139   7.100   6.297   4.680  0.9691 -0.3500 -0.6619
   26MOL    H9024140   7.054   6.526   4.667  3.2369 -2.6659 -0.4594
   26MOL    H9124141   6.881   6.493   4.634  0.2483  2.1512  1.1344
   26MOL    H9224142   6.860   6.429   4.863 -0.9196 -0.2970 -2.5998
   26MOL    H9324143   6.931   6.585   4.856 -0.9483 -1.0781 -0.6110
   26MOL    H9424144   7.090   6.326   4.922  0.3283 -0.0393 -0.5742
   26MOL    H9524145   7.033   6.448   5.033  1.0764  2.5489 -0.4927
   26MOL    H9624146   7.156   6.624   4.938 -2.3356 -0.8546 -2.0569
   26MOL    H9724147   7.218   6.523   4.805 -0.3386 -1.2964 -0.8166
   26MOL    N9824148   7.401   6.585   5.028 -0.0425  0.2655  0.0619
   26MOL    C9924149   7.519   6.558   5.110  0.0286 -0.3070  0.0358
   26MOL   C10024150   7.548   6.666   5.210  0.9047  0.5980  0.2896
   26MOL   C10124151   7.635   6.774   5.172  0.6371  0.2405  0.0181
   26MOL   C10224152   7.678   6.857   5.280 -0.1473 -0.4909  0.3449
   26MOL   C10324153   7.650   6.824   5.415 -0.0822 -0.1020 -0.0770
   26MOL   C10424154   7.566   6.715   5.446  0.6722 -0.1268 -0.0225
   26MOL   C10524155   7.499   6.649   5.344 -0.9199 -0.5117  0.3270
   26MOL   C10624156   7.377   6.566   5.376 -0.8331 -0.3451 -0.4551
   26MOL   N10724157   7.383   6.499   5.506 -0.1713 -0.4209 -0.0258
   26MOL   C10824158   7.324   6.541   5.619 -0.2923 -0.1917 -0.4161
   26MOL   O10924159   7.261   6.648   5.622 -0.2218  0.5885 -0.3965
   26MOL   C11024160   7.332   6.449   5.744 -0.3964 -0.0415 -0.3335
   26MOL   C11124161   7.228   6.500   5.850 -0.7626 -0.0442 -0.6480
   26MOL   C11224162   7.081   6.438   5.849  0.1168  0.3847  0.7521
   26MOL   C11324163   6.964   6.521   5.791 -0.2343  0.7965  0.2282
   26MOL   C11424164   6.827   6.465   5.837 -0.2721  0.1808 -0.3580
   26MOL   C11524165   6.754   6.380   5.729  0.7729  0.6025 -0.0298
   26MOL   C11624166   6.605   6.356   5.769 -0.0764 -0.1543  0.1105
   26MOL   C11724167   6.576   6.253   5.881  0.1097  0.5319  0.4459
   26MOL   C11824168   6.642   6.122   5.855  0.3236  0.5872 -0.3423
   26MOL   O11924169   6.606   6.057   5.755  0.7103  0.1930 -0.3660
   26MOL   H12024170   7.407   6.674   4.981 -1.8809  0.5074  0.2422
   26MOL   H12124171   7.526   6.460   5.158 -0.8411 -0.1724  0.4303
   26MOL   H12224172   7.606   6.556   5.044  0.8702  2.5423  0.9972
   26MOL   H12324173   7.654   6.785   5.066  0.4115 -1.1824 -0.1777
   26MOL   H12424174   7.749   6.933   5.253  0.7884 -1.9072 -1.2841
   26MOL   H12524175   7.690   6.889   5.491  1.6540 -2.2040  0.8839
   26MOL   H12624176   7.532   6.712   5.549  1.1027  1.2291  0.1721
   26MOL   H12724177   7.364   6.493   5.296 -3.2311 -1.2529  0.7183
   26MOL   H12824178   7.293   6.633   5.360 -0.6090  0.4281  1.5410
   26MOL   H12924179   7.427   6.408   5.504 -2.2991 -1.4973 -0.4439
   26MOL   H13024180   7.432   6.454   5.788 -0.6899 -0.8355  0.4308
   26MOL   H13124181   7.316   6.346   5.714  0.0089 -0.2731  0.2231
   26MOL   H13224182   7.221   6.609   5.853  2.6072  0.2075  1.4762
   26MOL   H13324183   7.271   6.472   5.946 -0.0218  0.4188 -0.8346
   26MOL   H13424184   7.083   6.340   5.801 -0.0637  1.0177 -0.5709
   26MOL   H13524185   7.046   6.427   5.951 -1.9004  1.9169  0.2531
   26MOL   H13624186   6.964   6.621   5.834  0.8170  0.9917 -0.2019
   26MOL   H13724187   6.975   6.533   5.683 -1.4591  1.0137  0.1288
   26MOL   H13824188   6.830   6.412   5.932  0.3983  0.5366 -0.1786
   26MOL   H13924189   6.767   6.555   5.850  1.0095  0.9881  0.0167
   26MOL   H14024190   6.804   6.287   5.703  1.5709  0.7682  0.8702
   26MOL   H14124191   6.756   6.422   5.628  0.7898  0.4739 -0.0837
   26MOL   H14224192   6.550   6.446   5.797 -1.4131 -0.8988 -0.1033
   26MOL   H14324193   6.556   6.329   5.676  1.2371  0.2984 -0.7247
   26MOL   H14424194   6.470   6.230   5.881 -0.0574  1.2584 -0.5193
   26MOL   H14524195   6.596   6.299   5.978  0.3103  0.6120  0.3668
   26MOL   N14624196   6.739   6.087   5.938  0.4653  0.5312 -0.7230
   26MOL   C14724197   6.834   5.979   5.907 -0.5322 -0.4464 -0.8968
   26MOL   C14824198   6.977   6.009   5.946 -0.9183 -0.0104 -0.1181
   26MOL   C14924199   7.026   6.132   5.999 -1.0159 -0.2848 -0.1310
   26MOL   C15024200   7.163   6.155   6.032  0.4269 -0.0334 -0.1171
   26MOL   C15124201   7.255   6.053   6.017  0.1851  0.3592  0.7283
   26MOL   C15224202   7.213   5.935   5.960  0.0287  0.4639 -0.2264
   26MOL   C15324203   7.075   5.910   5.922 -0.4555 -0.6313 -0.0333
   26MOL   C15424204   7.043   5.779   5.848  0.0044 -0.0617  0.5470
   26MOL   N15524205   7.154   5.711   5.783  0.4873 -0.1702  0.6873
   26MOL   C15624206   7.218   5.604   5.826 -0.1766 -0.2831  0.5428
   26MOL   O15724207   7.164   5.518   5.896 -0.0980 -0.2046  0.2470
   26MOL   C15824208   7.364   5.601   5.786 -0.3862  0.2987 -1.0086
   26MOL   C15924209   7.455   5.570   5.904  0.2163  0.1493 -0.5067
   26MOL   C16024210   7.462   5.422   5.942  0.2771 -0.4159  0.2692
   26MOL   C16124211   7.556   5.390   6.052  0.0406  0.4002  0.6376
   26MOL   C16224212   7.701   5.417   6.022 -0.6532 -0.1436  0.3310
   26MOL   C16324213   7.761   5.331   5.906  0.1076 -0.4987 -0.5228
   26MOL   C16424214   0.116   5.300   5.930 -0.3163  0.6432 -0.5213
   26MOL   C16524215   0.178   5.201   5.827 -0.4607  0.2657  0.2558
   26MOL   C16624216   0.326   5.227   5.817 -0.1744  0.5249 -0.1682
   26MOL   O16724217   0.365   5.343   5.791  0.6635 -0.3900  0.7262
   26MOL   H16824218   6.791   6.160   5.984  0.0960  1.4366 -1.7423
   26MOL   H16924219   6.826   5.952   5.801  1.2837 -3.3041 -0.3497
   26MOL   H17024220   6.796   5.894   5.963  0.1411  0.3895  0.8632
   26MOL   H17124221   6.955   6.213   6.006  0.5612  0.9243  2.3625
   26MOL   H17224222   7.196   6.250   6.073 -0.9107 -0.6881  2.6431
   26MOL   H17324223   7.356   6.070   6.051  0.9938 -1.7263 -0.5846
   26MOL   H17424224   7.290   5.861   5.943 -0.1689  0.1780  0.1167
   26MOL   H17524225   6.962   5.799   5.778  0.7509 -1.0560 -0.6148
   26MOL   H17624226   6.984   5.711   5.909 -1.1398  1.2886  0.9734
   26MOL   H17724227   7.201   5.764   5.711 -0.1297  1.7451  1.6426
   26MOL   H17824228   7.398   5.697   5.746 -0.1796  0.3044 -0.8189
   26MOL   H17924229   7.369   5.518   5.716  2.2420 -0.9413  0.5506
   26MOL   H18024230   7.419   5.617   5.996 -1.9614 -3.0986  0.3687
   26MOL   H18124231   7.552   5.617   5.887 -0.4548  1.7339 -0.1320
   26MOL   H18224232   7.359   5.401   5.972  0.2396  0.6308  0.8688
   26MOL   H18324233   7.476   5.362   5.851 -0.1648 -1.5956  0.9677
   26MOL   H18424234   7.515   5.444   6.137 -0.4278  1.2111 -0.0838
   26MOL   H18524235   7.543   5.285   6.078 -1.4608  0.4420  0.1063
   26MOL   H18624236   7.724   5.521   5.999  1.6502 -0.7229 -0.0710
   26MOL   H18724237   7.753   5.389   6.114  0.4052  0.8714  0.0495
   26MOL   H18824238   7.751   5.393   5.818  1.0074  0.6816  0.1859
   26MOL   H18924239   7.707   5.236   5.906 -1.0601  0.1625 -0.8212
   26MOL   H19024240   0.172   5.393   5.942  3.0020 -1.5526  1.9317
   26MOL   H19124241   0.132   5.248   6.024 -0.3753 -0.3847 -1.0735
   26MOL   H19224242   0.132   5.217   5.730  0.2503 -0.9482 -0.2778
   26MOL   H19324243   0.173   5.095   5.848 -1.1407 -0.2948 -2.6041
   26MOL   N19424244   0.411   5.129   5.847 -0.1321  0.1867  0.5874
   26MOL   C19524245   0.556   5.130   5.834  0.2671  0.3212 -0.3450
   26MOL   C19624246   0.623   4.993   5.862 -0.5369 -0.0016 -0.1860
   26MOL   C19724247   0.708   4.986   5.973  0.4111 -0.3536  0.6740
   26MOL   C19824248   0.754   4.863   6.021 -0.2936 -0.2985  0.5096
   26MOL   C19924249   0.725   4.749   5.951  1.0240  0.0364  0.3427
   26MOL   C20024250   0.646   4.754   5.833 -0.3432 -0.8684 -0.6286
   26MOL   C20124251   0.601   4.876   5.783 -0.3299 -0.1107  0.1848
   26MOL   C20224252   0.515   4.872   5.653  0.2868 -0.0074 -0.2614
   26MOL   N20324253   0.420   4.760   5.644  0.0268 -0.2799 -0.6048
   26MOL   C20424254   0.349   4.718   5.541  0.0099  0.2444  0.1938
   26MOL   O20524255   0.379   4.755   5.426  0.3274  0.3619 -0.3000
   26MOL   C20624256   0.236   4.622   5.581 -0.0765 -0.2089 -0.2179
   26MOL   C20724257   0.102   4.647   5.506  0.7410  0.6113 -0.4930
   26MOL   C20824258   0.047   4.786   5.531 -0.0307  0.1909 -0.0388
   26MOL   C20924259   7.770   4.803   5.669 -0.0404 -0.3005  0.4070
   26MOL   C21024260   7.659   4.909   5.671 -0.6095  0.1520  0.1762
   26MOL   C21124261   7.590   4.929   5.807 -0.4119 -0.3452  0.0542
   26MOL   C21224262   7.503   4.804   5.831  0.2429  0.4615  0.2601
   26MOL   C21324263   7.384   4.828   5.930 -0.0802 -0.1421 -0.8129
   26MOL   C21424264   7.257   4.887   5.868  0.2572 -0.0005  0.6557
   26MOL   O21524265   7.147   4.823   5.866 -0.7849 -0.2952 -0.0568
   26MOL   H21624266   0.375   5.049   5.899 -0.7987 -0.5642 -1.0084
   26MOL   H21724267   0.590   5.157   5.734 -0.3290  0.4356 -0.5178
   26MOL   H21824268   0.601   5.208   5.895 -1.0549  0.4826  0.4196
   26MOL   H21924269   0.715   5.070   6.041 -0.7460 -0.1573  0.5661
   26MOL   H22024270   0.809   4.851   6.113  0.7167  0.3008 -0.0059
   26MOL   H22124271   0.744   4.651   5.992  1.0445  0.8586  2.3294
   26MOL   H22224272   0.618   4.656   5.798  1.2089 -2.1029  1.4825
   26MOL   H22324273   0.587   4.849   5.574 -0.7421  0.2088 -1.2763
   26MOL   H22424274   0.474   4.971   5.632  3.1983  0.7708 -2.6262
   26MOL   H22524275   0.384   4.745   5.738  0.8877 -0.4662 -0.2999
   26MOL   H22624276   0.226   4.626   5.689  0.9340  0.8917 -0.1579
   26MOL   H22724277   0.278   4.523   5.563  3.2465  0.8956  1.0421
   26MOL   H22824278   0.109   4.646   5.397  1.3575  1.2698 -0.4618
   26MOL   H22924279   0.042   4.561   5.536 -0.0495  1.6572  0.9658
   26MOL   H23024280   0.125   4.862   5.530  0.0449  0.1366  1.1628
   26MOL   H23124281   7.763   4.801   5.453 -0.6209 -0.4509  0.3890
   26MOL   H23224282   7.740   4.703   5.701 -1.2042 -0.7562 -2.0127
   26MOL   H23324283   0.059   4.824   5.742 -0.5034 -1.5760  1.2956
   26MOL   H23424284   7.700   5.005   5.638  1.3323 -0.8441 -0.4260
   26MOL   H23524285   7.592   4.874   5.593 -0.4386 -1.4764  0.7355
   26MOL   H23624286   7.522   5.013   5.792 -0.1145 -0.0846  0.1496
   26MOL   H23724287   7.668   4.935   5.883 -1.3224 -2.2203  1.1720
   26MOL   H23824288   7.560   4.716   5.863 -2.0075 -1.4476 -0.8190
   26MOL   H23924289   7.461   4.762   5.739  1.1174 -0.8682  0.4458
   26MOL   H24024290   7.360   4.730   5.971  0.2259 -0.2675 -0.9307
   26MOL   H24124291   7.417   4.882   6.019  0.7604 -2.8917  0.6066
   26MOL   N24224292   7.276   5.006   5.806  0.3105 -0.4813  0.4389
   26MOL   C24324293   7.181   5.086   5.726  0.1742  0.2283 -0.3452
   26MOL   C24424294   7.245   5.197   5.641 -0.0864  0.3693 -0.7695
   26MOL   C24524295   7.369   5.178   5.581  1.0998 -0.1041 -0.2115
   26MOL   C24624296   7.421   5.274   5.496 -0.2102 -0.2362  0.8040
   26MOL   C24724297   7.352   5.395   5.469 -0.4447 -0.1370 -0.1470
   26MOL   C24824298   7.230   5.410   5.526  0.5345 -1.0083  0.2172
   26MOL   C24924299   7.176   5.317   5.613 -0.1405  0.0376 -0.2569
   26MOL   C25024300   7.033   5.345   5.671  0.2881 -0.1473 -0.1047
   26MOL   N25124301   6.970   5.473   5.637 -0.1935 -1.0956  0.2152
   26MOL   C25224302   6.861   5.488   5.561  0.7560 -0.5791 -0.0659
   26MOL   O25324303   6.808   5.387   5.509 -0.2126  0.9161  0.1346
   26MOL   C25424304   6.811   5.633   5.535  1.0865 -0.3615 -0.4375
   26MOL   C25524305   6.724   5.685   5.650  0.1050 -0.1842  0.1182
   26MOL   C25624306   6.579   5.638   5.668  0.2899 -0.3779 -0.5322
   26MOL   C25724307   6.518   5.686   5.806 -0.7291  0.3594  0.4315
   26MOL   C25824308   6.366   5.652   5.824  0.1228 -0.4728 -0.1155
   26MOL   C25924309   6.274   5.722   5.730  0.6924 -0.0240 -0.0007
   26MOL   C26024310   6.241   5.864   5.777 -0.0674  0.1651 -0.0974
   26MOL   C26124311   6.202   5.960   5.652 -0.0811  0.2341 -0.6327
   26MOL   C26224312   6.069   5.908   5.594 -0.6653 -0.1456 -0.3828
   26MOL   O26324313   6.078   5.811   5.512 -0.8036  0.0687  0.7733
   26MOL   H26424314   7.376   5.025   5.809  0.3237 -0.5502  0.4571
   26MOL   H26524315   7.129   5.015   5.662  0.4682  0.1706 -0.5204
   26MOL   H26624316   7.112   5.124   5.801  1.6647 -0.0433  1.1843
   26MOL   H26724317   7.431   5.090   5.590  1.8249  0.3311 -0.9068
   26MOL   H26824318   7.521   5.256   5.459 -1.0251 -2.5530 -0.3561
   26MOL   H26924319   7.394   5.466   5.399 -2.0088 -0.5981 -1.6057
   26MOL   H27024320   7.170   5.496   5.503  1.0303 -0.6420  0.2986
   26MOL   H27124321   7.036   5.334   5.779 -0.9123  1.6927  0.1492
   26MOL   H27224322   6.973   5.260   5.638 -0.7886  1.0998 -1.4372
   26MOL   H27324323   6.993   5.553   5.692 -2.4897  1.6250 -2.5771
   26MOL   H27424324   6.748   5.652   5.448  0.4277 -1.2333 -0.1595
   26MOL   H27524325   6.898   5.697   5.519  0.5619  0.1390 -1.3050
   26MOL   H27624326   6.715   5.793   5.641  1.6758 -0.0679 -0.2255
   26MOL   H27724327   6.773   5.651   5.741  3.0978 -0.7086 -1.6261
   26MOL   H27824328   6.572   5.529   5.664  0.6781 -0.4994  1.4832
   26MOL   H27924329   6.525   5.674   5.581 -0.8940 -0.5122  0.1354
   26MOL   H28024330   6.567   5.626   5.883 -0.1102 -0.6162 -0.6984
   26MOL   H28124331   6.539   5.791   5.828  0.4713  0.7933 -2.4941
   26MOL   H28224332   6.349   5.547   5.803 -0.8816 -0.1313 -1.0826
   26MOL   H28324333   6.321   5.668   5.922  1.3048 -0.7241  0.4679
   26MOL   H28424334   6.182   5.664   5.727 -0.3584  1.6032  0.0040
   26MOL   H28524335   6.312   5.715   5.628 -1.9063  3.6358 -1.3545
   26MOL   H28624336   6.170   5.867   5.860  0.0034  0.1444 -0.0356
   26MOL   H28724337   6.328   5.910   5.824 -0.4327 -0.9838  1.7296
   26MOL   H28824338   6.200   6.067   5.675 -1.7458 -0.1521  1.1698
   26MOL   H28924339   6.286   5.957   5.583  0.0034 -1.1383 -0.4785
   26MOL   N29024340   5.958   5.974   5.630 -0.4891 -0.6641  0.4416
   26MOL   C29124341   5.820   5.928   5.602 -0.3934 -0.4954  0.2198
   26MOL   C29224342   5.744   5.880   5.728 -0.1006 -0.1526 -1.3829
   26MOL   C29324343   5.786   5.928   5.856  0.2517  0.0290  1.0813
   26MOL   C29424344   5.705   5.901   5.966  0.3133 -0.4693 -0.4688
   26MOL   C29524345   5.597   5.811   5.955 -0.0609 -0.4595  0.1695
   26MOL   C29624346   5.560   5.761   5.826 -0.2011 -0.1257  0.0360
   26MOL   C29724347   5.633   5.792   5.712  0.2180 -0.6197  0.6629
   26MOL   C29824348   5.573   5.735   5.580  0.0266  0.1507 -1.0065
   26MOL   N29924349   5.564   5.583   5.588  0.4874 -0.1749 -0.0128
   26MOL   C30024350   5.462   5.509   5.619 -0.0565 -0.2036 -0.5071
   26MOL   O30124351   5.356   5.554   5.662 -0.6600  0.4707  0.1843
   26MOL   C30224352   5.489   5.355   5.601 -0.4416 -0.3580  0.0246
   26MOL   C30324353   5.409   5.285   5.497 -0.0802  0.5167 -0.1115
   26MOL   C30424354   5.256   5.270   5.525  0.7847  0.3253  0.1722
   26MOL   C30524355   5.187   5.162   5.434 -0.0355 -0.0695 -0.6003
   26MOL   C30624356   5.141   5.230   5.298  0.3442  0.1602  0.0573
   26MOL   C30724357   5.072   5.122   5.207 -0.1594 -0.2816 -0.2343
   26MOL   C30824358   4.940   5.067   5.248  0.1344  0.3337  0.5254
   26MOL   C30924359   4.913   4.931   5.182 -0.1095 -0.1411 -0.0881
   26MOL   C31024360   4.885   4.934   5.028 -0.2067  0.1525 -0.1104
   26MOL   O31124361   4.811   5.020   4.977  0.2537 -0.5865 -0.3148
   26MOL   H31224362   5.958   6.064   5.678 -0.6631  0.2581 -1.2542
   26MOL   H31324363   5.757   6.005   5.559  0.2020 -1.5920 -2.7470
   26MOL   H31424364   5.828   5.840   5.538 -1.5818 -2.7978  3.0734
   26MOL   H31524365   5.878   5.984   5.868  0.6528 -0.0243 -1.4684
   26MOL   H31624366   5.725   5.931   6.068  0.7401  2.0131 -1.2576
   26MOL   H31724367   5.544   5.782   6.044 -0.9492  1.2978  0.2270
   26MOL   H31824368   5.474   5.696   5.815 -1.6048  1.4246  1.5263
   26MOL   H31924369   5.629   5.772   5.495  1.5198  2.6573  0.9864
   26MOL   H32024370   5.471   5.765   5.557 -0.5527 -1.5963 -0.8490
   26MOL   H32124371   5.630   5.529   5.533  0.3249 -2.9995  2.4585
   26MOL   H32224372   5.592   5.325   5.586  0.8315  3.1565  1.1897
   26MOL   H32324373   5.469   5.314   5.700  0.4468 -3.1329 -0.9063
   26MOL   H32424374   5.445   5.182   5.492 -1.5256  0.1269 -3.8126
   26MOL   H32524375   5.438   5.325   5.400 -0.1790  1.3225  0.1900
   26MOL   H32624376   5.205   5.365   5.513 -0.2521 -0.1449  0.7986
   26MOL   H32724377   5.254   5.218   5.620  1.3170  0.7360  0.4148
   26MOL   H32824378   5.261   5.082   5.430  1.4376  1.2547 -0.2869
   26MOL   H32924379   5.101   5.124   5.490  0.5340 -0.9087 -0.2907
   26MOL   H33024380   5.081   5.317   5.324  1.9909  0.3710  3.3206
   26MOL   H33124381   5.214   5.264   5.225  0.8744 -2.1098 -0.5025
   26MOL   H33224382   5.137   5.034   5.202 -0.8219 -0.7710 -0.3981
   26MOL   H33324383   5.065   5.163   5.106 -1.2025  1.2747  0.4577
   26MOL   H33424384   4.912   5.078   5.352 -3.2630  1.3982 -0.4395
   26MOL   H33524385   4.872   5.143   5.210 -1.9225 -2.3798 -1.4572
   26MOL   H33624386   5.004   4.874   5.200  0.9403  0.6445 -2.6226
   26MOL   H33724387   4.839   4.867   5.229 -0.0345  1.9907  3.0497
   26MOL   N33824388   4.929   4.827   4.964 -0.0653 -0.2355 -0.0421
   26MOL   C33924389   4.910   4.805   4.820 -0.2122  0.6684  0.7374
   26MOL   C34024390   4.924   4.655   4.796  0.2971  1.0410  0.6201
   26MOL   C34124391   5.053   4.611   4.767 -0.4181  0.0852  0.1846
   26MOL   C34224392   5.075   4.473   4.748  0.0207 -0.3092 -0.2785
   26MOL   C34324393   4.969   4.381   4.768 -0.3945 -0.5327 -0.4536
   26MOL   C34424394   4.840   4.427   4.793 -0.1871 -0.1653  0.2579
   26MOL   C34524395   4.821   4.566   4.807  1.0099 -0.0473  0.5632
   26MOL   C34624396   4.675   4.603   4.847 -0.0424  0.2903 -0.3922
   26MOL   N34724397   4.569   4.552   4.754  0.0557  0.3426  0.7154
   26MOL   C34824398   4.445   4.531   4.798 -0.0200 -0.0735  0.7624
   26MOL   O34924399   4.411   4.555   4.915 -0.6425 -0.3075  1.0454
   26MOL   C35024400   4.344   4.481   4.694  0.4215  0.1812  0.1658
   26MOL   C35124401   4.201   4.532   4.720  0.0790 -0.5450 -0.0950
   26MOL   C35224402   4.104   4.481   4.611 -0.5438 -0.3627  0.0154
   26MOL   C35324403   4.060   4.337   4.634  0.0659  0.0036 -0.3939
   26MOL   C35424404   3.949   4.302   4.530  0.0889 -0.5199 -0.1349
   26MOL   C35524405   3.889   4.168   4.562 -0.1902  0.1546  0.3664
   26MOL   C35624406   3.969   4.044   4.517 -0.6137 -0.6770  0.5544
   26MOL   C35724407   3.878   3.918   4.479 -0.3535  0.0914  0.0279
   26MOL   C35824408   3.788   3.930   4.358  0.7135 -0.0620  0.6019
   26MOL   O35924409   3.842   3.931   4.244  0.1551  0.1836  0.3637
   26MOL   H36024410   4.979   4.759   5.019 -0.6064 -1.0315 -0.5229
   26MOL   H36124411   4.813   4.835   4.779 -0.9764 -1.6226  0.8120
   26MOL   H36224412   4.982   4.864   4.763 -0.8298  0.2157 -0.5550
   26MOL   H36324413   5.134   4.680   4.750 -0.2733  0.0577  0.7650
   26MOL   H36424414   5.179   4.446   4.738  0.2900  0.5564  0.1419
   26MOL   H36524415   5.003   4.278   4.763 -1.4350 -0.9826  1.5513
   26MOL   H36624416   4.756   4.358   4.798 -1.2882  1.2105  1.3109
   26MOL   H36724417   4.651   4.709   4.837 -0.4183  0.2175 -0.3069
   26MOL   H36824418   4.659   4.580   4.952 -1.0762  2.4547 -0.0467
   26MOL   H36924419   4.595   4.521   4.662 -0.8064  0.7916  0.3198
   26MOL   H37024420   4.336   4.372   4.694  0.2577  0.1878  1.2849
   26MOL   H37124421   4.378   4.513   4.595  1.2828 -0.1888  0.3431
   26MOL   H37224422   4.203   4.640   4.734 -4.4383 -0.6069  1.8845
   26MOL   H37324423   4.158   4.481   4.806  0.0578  1.0680  0.8573
   26MOL   H37424424   4.006   4.529   4.612 -0.1463  0.5007 -1.2188
   26MOL   H37524425   4.147   4.488   4.511  1.5373 -1.4768  0.8048
   26MOL   H37624426   4.018   4.312   4.731  0.9929  3.0866  0.8481
   26MOL   H37724427   4.145   4.269   4.628  0.3521  0.5264 -2.6519
   26MOL   H37824428   3.868   4.375   4.530  1.9586  1.6367 -1.4620
   26MOL   H37924429   3.988   4.304   4.428  0.1959  1.7708 -0.0816
   26MOL   H38024430   3.786   4.161   4.527 -0.0675 -2.3046  0.3945
   26MOL   H38124431   3.867   4.160   4.669  0.2054  0.4077  0.4673
   26MOL   H38224432   4.030   4.054   4.427 -1.2583 -0.3532  0.1508
   26MOL   H38324433   4.048   4.016   4.587  1.1306 -1.3071 -1.6368
   26MOL   H38424434   3.828   3.893   4.572 -1.4746  0.7093 -0.3927
   26MOL   H38524435   3.948   3.839   4.452  1.1253  1.4581 -0.2451
   26MOL   N38624436   3.662   3.948   4.384  0.3066  0.2646 -0.3947
   26MOL   C38724437   3.555   3.962   4.286  0.8992 -0.2848  0.6029
   26MOL   C38824438   3.449   3.846   4.275 -0.1594 -0.4429 -1.2015
   26MOL   C38924439   3.414   3.782   4.393  0.3473 -0.2192 -0.0166
   26MOL   C39024440   3.312   3.691   4.395  0.0912  0.1650  0.4142
   26MOL   C39124441   3.253   3.644   4.278  0.0046 -0.4374 -0.3741
   26MOL   C39224442   3.294   3.704   4.162 -0.1973  0.1015  0.2137
   26MOL   C39324443   3.387   3.810   4.156 -0.3798  0.1370  0.0953
   26MOL   C39424444   3.416   3.886   4.032  0.7211  0.4589 -0.8540
   26MOL   N39524445   3.292   3.896   3.952 -0.2547 -0.7869  0.4090
   26MOL   C39624446   3.268   3.838   3.830 -0.3507 -0.7627 -0.1226
   26MOL   O39724447   3.355   3.768   3.779 -0.3325 -0.4491  0.6959
   26MOL   C39824448   3.142   3.865   3.753  0.2399 -0.6276  0.6382
   26MOL   C39924449   3.052   3.736   3.728 -0.7037  0.2275  0.2092
   26MOL   C40024450   2.919   3.763   3.655 -0.0469  0.1602 -0.2593
   26MOL   C40124451   2.842   3.634   3.621  0.3072 -0.6733  0.2123
   26MOL   C40224452   2.742   3.645   3.508  0.8459  0.0204 -0.5060
   26MOL   C40324453   2.623   3.734   3.534  0.5446 -0.4983 -0.4552
   26MOL   C40424454   2.617   3.869   3.466  0.0517 -0.2085  0.4643
   26MOL   C40524455   2.476   3.922   3.472 -0.0477  0.1017  0.8210
   26MOL   C40624456   2.462   4.062   3.397 -0.6495  0.6566  0.0108
   26MOL   O40724457   2.557   4.118   3.346  0.2708  0.3635  0.2406
   26MOL   H40824458   3.636   3.972   4.478  0.2951  1.9652 -0.8124
   26MOL   H40924459   3.516   4.062   4.304 -0.2456 -0.2464 -1.8567
   26MOL   H41024460   3.602   3.966   4.188 -3.3760 -0.1054 -1.5285
   26MOL   H41124461   3.458   3.810   4.487 -1.3597 -0.9953  1.0334
   26MOL   H41224462   3.274   3.635   4.479 -0.5824 -0.6273 -0.4144
   26MOL   H41324463   3.167   3.579   4.274 -0.5751  0.3320 -0.5229
   26MOL   H41424464   3.236   3.678   4.074  1.0319  0.1505 -0.6196
   26MOL   H41524465   3.496   3.840   3.974  0.2294 -2.1259  0.4707
   26MOL   H41624466   3.438   3.991   4.054  0.8243  0.0499  1.0717
   26MOL   H41724467   3.222   3.963   3.980 -0.5957 -0.9886  0.0484
   26MOL   H41824468   3.080   3.942   3.798 -0.6882  0.2688 -2.0986
   26MOL   H41924469   3.173   3.907   3.657  0.5020  1.7914  1.7322
   26MOL   H42024470   3.044   3.687   3.825  0.6576 -0.0868  0.1725
   26MOL   H42124471   3.112   3.663   3.675 -2.3960 -0.7117 -0.4771
   26MOL   H42224472   2.970   3.803   3.567  1.3274 -2.8696 -0.9245
   26MOL   H42324473   2.855   3.840   3.697  0.8945  1.8011 -1.7569
   26MOL   H42424474   2.915   3.556   3.602 -0.0611 -1.2212  1.0324
   26MOL   H42524475   2.795   3.603   3.714  0.5656 -0.9488  0.2531
   26MOL   H42624476   2.787   3.679   3.415  0.0601  0.1502 -0.8481
   26MOL   H42724477   2.699   3.545   3.498 -0.3587  0.6141 -1.4933
   26MOL   H42824478   2.618   3.747   3.642  0.2994  0.7576 -0.6091
   26MOL   H42924479   2.531   3.682   3.504 -0.1146  0.6714 -0.4999
   26MOL   H43024480   2.629   3.850   3.359 -1.1118  0.4260  0.2128
   26MOL   H43124481   2.693   3.940   3.498  0.9523 -0.4579 -1.0927
   26MOL   H43224482   2.454   3.930   3.579 -2.1150  0.1558  0.4146
   26MOL   H43324483   2.409   3.859   3.415 -0.8986 -1.4453  3.4287
   26MOL   N43424484   2.336   4.109   3.390  0.2093 -0.3302  0.3430
   26MOL   C43524485   2.307   4.228   3.304 -0.5651 -0.1297  0.0471
   26MOL   C43624486   2.253   4.198   3.172 -0.0307 -0.2024  0.3244
   26MOL   C43724487   2.315   4.259   3.064 -0.7952  0.5619  0.4758
   26MOL   C43824488   2.272   4.243   2.930  0.4771 -0.4021 -0.0515
   26MOL   C43924489   2.161   4.159   2.899 -0.0516  1.4697  0.4896
   26MOL   C44024490   2.096   4.098   3.012 -0.0193 -0.4453 -0.0191
   26MOL   C44124491   2.136   4.125   3.146 -0.0562  0.3140  0.9066
   26MOL   C44224492   2.049   4.069   3.257  0.0210 -0.0845 -0.0281
   26MOL   N44324493   2.057   3.925   3.261 -0.3531  1.1567  0.0106
   26MOL   C44424494   2.096   3.849   3.358 -0.0446 -0.0546  0.1363
   26MOL   O44524495   2.156   3.896   3.453  0.7298 -0.0998  0.3516
   26MOL   C44624496   2.066   3.698   3.340 -0.8991  0.2240  0.1110
   26MOL   C44724497   2.200   3.619   3.314  0.5934  0.1696 -0.3689
   26MOL   C44824498   2.259   3.644   3.178 -0.4834  0.3801 -0.6136
   26MOL   C44924499   2.388   3.569   3.156 -0.2377 -0.5076 -0.0894
   26MOL   C45024500   2.413   3.545   3.007  0.2161  0.2453 -0.1316
   26MOL   C45124501   2.537   3.463   2.977 -0.5694 -0.0412 -0.4380
   26MOL   C45224502   2.553   3.421   2.827 -0.5181 -0.1634  0.0187
   26MOL   C45324503   2.697   3.361   2.787 -0.4781 -0.2266 -0.4219
   26MOL   C45424504   2.811   3.463   2.785  0.4742 -0.1381  0.3258
   26MOL   O45524505   2.835   3.529   2.878  0.1781 -0.5954 -0.8662
   26MOL   H45624506   2.262   4.071   3.448 -0.3669  1.4553  0.8297
   26MOL   H45724507   2.400   4.284   3.295  0.0049 -0.7115  2.0405
   26MOL   H45824508   2.238   4.295   3.355  1.1680 -0.2792  2.6921
   26MOL   H45924509   2.401   4.323   3.072  0.0302 -0.6028  0.8864
   26MOL   H46024510   2.332   4.287   2.852 -0.9741  0.6578 -0.6103
   26MOL   H46124511   2.127   4.147   2.797 -0.3323  3.4837  0.3373
   26MOL   H46224512   2.004   4.042   3.002  0.7498 -1.4519 -1.6299
   26MOL   H46324513   1.948   4.101   3.229 -0.5267 -0.7575  1.1178
   26MOL   H46424514   2.059   4.112   3.357 -0.4314 -1.4391  0.6082
   26MOL   H46524515   2.010   3.881   3.184 -1.1296  1.8833  0.0571
   26MOL   H46624516   1.994   3.679   3.260  1.4080  0.3360 -2.0492
   26MOL   H46724517   2.026   3.687   3.440 -1.1282  2.7523  0.3242
   26MOL   H46824518   2.177   3.514   3.333 -1.4409  0.9231  1.4405
   26MOL   H46924519   2.266   3.657   3.392  2.6472 -0.5577 -1.6965
   26MOL   H47024520   2.183   3.608   3.110  0.2695 -1.2766 -0.5935
   26MOL   H47124521   2.275   3.749   3.152 -0.2773 -0.2962 -3.3047
   26MOL   H47224522   2.458   3.642   3.199 -3.4774  1.6007  1.7980
   26MOL   H47324523   2.399   3.482   3.220  2.1338 -0.7612 -0.7732
   26MOL   H47424524   2.326   3.496   2.963  0.3119 -0.2655  0.2471
   26MOL   H47524525   2.407   3.644   2.962 -1.4504  1.1136  1.9553
   26MOL   H47624526   2.524   3.370   3.032 -0.8231  1.2279  1.7049
   26MOL   H47724527   2.628   3.512   3.011  0.4464 -1.6990 -0.7227
   26MOL   H47824528   2.480   3.345   2.800  0.4269 -1.4606  1.0371
   26MOL   H47924529   2.534   3.509   2.766  1.2015 -0.2117 -0.6203
   26MOL   H48024530   2.732   3.295   2.866 -2.4798  0.3759  1.0201
   26MOL   H48124531   2.703   3.298   2.699  0.9617 -2.8434  1.4941
   26MOL   N48224532   2.875   3.482   2.665 -0.1517 -0.0704  0.0464
   26MOL   C48324533   2.972   3.586   2.628  0.1039 -0.5997 -0.2251
   26MOL   C48424534   3.091   3.536   2.548  0.2186  0.0541  0.0422
   26MOL   C48524535   3.084   3.416   2.472 -0.3037  0.0360  0.5126
   26MOL   C48624536   3.189   3.376   2.391  0.7331 -0.2135  0.2521
   26MOL   C48724537   3.309   3.456   2.378  0.6414 -0.3583 -0.3001
   26MOL   C48824538   3.309   3.580   2.444 -0.4613  0.2506  0.4388
   26MOL   C48924539   3.200   3.623   2.526  0.4538  0.3042  0.1093
   26MOL   C49024540   3.196   3.759   2.595  0.0391 -0.2237 -0.1993
   26MOL   N49124541   3.301   3.855   2.551  0.4989 -0.1310  0.5328
   26MOL   C49224542   3.298   3.942   2.451  0.4539  0.2405  0.5453
   26MOL   O49324543   3.216   3.936   2.361  0.0014  0.2553 -0.1308
   26MOL   C49424544   3.395   4.061   2.456  0.2667  0.5359 -0.2836
   26MOL   C49524545   3.511   4.059   2.359  0.6706  0.4275 -0.5267
   26MOL   C49624546   3.491   4.123   2.229  0.6293 -0.2180 -0.4935
   26MOL   C49724547   3.625   4.126   2.145  0.1958  0.0990 -0.7266
   26MOL   C49824548   3.740   4.226   2.177  0.1152 -0.5755 -0.2078
   26MOL   C49924549   3.858   4.206   2.098  0.6162  0.1014 -0.0244
   26MOL   C50024550   3.959   4.113   2.176 -0.4060  0.1450  0.3747
   26MOL   C50124551   4.088   4.084   2.094  0.7344  0.2085 -0.0618
   26MOL   C50224552   4.186   4.016   2.186 -0.1313  0.1339 -0.7607
   26MOL   O50324553   4.161   3.991   2.302  0.4879  0.2850  0.0610
   26MOL   H50424554   2.848   3.417   2.592  2.3480  0.4613 -1.4085
   26MOL   H50524555   2.930   3.661   2.561  1.2189 -0.4810 -0.8010
   26MOL   H50624556   3.004   3.626   2.724  0.7426 -2.5113  0.3816
   26MOL   H50724557   2.996   3.354   2.487  0.1848 -0.1813  2.7314
   26MOL   H50824558   3.177   3.273   2.359 -2.9460  0.6180 -1.3977
   26MOL   H50924559   3.396   3.420   2.325  0.7552 -0.4163 -0.0756
   26MOL   H51024560   3.397   3.641   2.430 -1.3654  1.1009 -1.7206
   26MOL   H51124561   3.206   3.752   2.704 -3.2637 -2.7351  0.0312
   26MOL   H51224562   3.103   3.815   2.583  1.4519  2.1386 -0.4906
   26MOL   H51324563   3.385   3.849   2.607  1.2365 -0.0746 -0.5613
   26MOL   H51424564   3.430   4.074   2.559  0.7937  1.5588 -0.5819
   26MOL   H51524565   3.335   4.152   2.442 -0.8091  0.4068  2.9586
   26MOL   H51624566   3.525   3.953   2.340 -1.1926  0.1714 -0.5989
   26MOL   H51724567   3.601   4.100   2.404  1.9885 -3.9417  1.0005
   26MOL   H51824568   3.412   4.072   2.176  2.8472 -0.9831 -3.1681
   26MOL   H51924569   3.466   4.228   2.247  0.0275 -0.3890 -0.3187
   26MOL   H52024570   3.671   4.027   2.146 -2.1427 -1.0220 -0.2934
   26MOL   H52124571   3.597   4.152   2.043 -1.5814 -0.4773 -0.4026
   26MOL   H52224572   3.691   4.324   2.171 -0.4011 -0.8833 -1.2463
   26MOL   H52324573   3.761   4.224   2.284  0.6950  2.1862 -0.2399
   26MOL   H52424574   3.912   4.299   2.077  1.0506 -0.1946 -0.2341
   26MOL   H52524575   3.835   4.159   2.003  2.1311  0.5800 -0.6492
   26MOL   H52624576   3.988   4.165   2.267  1.8209 -2.0638  0.9760
   26MOL   H52724577   3.915   4.017   2.203  1.5471 -0.9460 -0.2483
   26MOL   H52824578   4.141   4.176   2.069  0.4946  0.7250  1.2898
   26MOL   H52924579   4.062   4.027   2.005 -0.3197  2.3740 -1.1640
   26MOL   N53024580   4.302   3.998   2.124  0.6659 -0.2884 -0.4192
   26MOL   C53124581   4.417   3.943   2.199 -0.1235 -0.5243 -0.1187
   26MOL   C53224582   4.550   3.940   2.118 -0.4203 -0.0335 -0.1911
   26MOL   C53324583   4.643   4.046   2.133 -0.8448  1.5607 -1.6403
   26MOL   C53424584   4.766   4.038   2.060 -0.0922  0.1816  0.1842
   26MOL   C53524585   4.795   3.928   1.981  0.4571  0.0980  0.1623
   26MOL   C53624586   4.702   3.825   1.961  0.4435  0.0407  0.2584
   26MOL   C53724587   4.580   3.834   2.031 -0.8970  0.3728 -0.0962
   26MOL   C53824588   4.491   3.718   2.010  0.6649  0.4102  0.1466
   26MOL   N53924589   4.381   3.736   1.918  0.0001  0.7787  0.0019
   26MOL   C54024590   4.282   3.647   1.908  0.2947 -0.1108 -0.1971
   26MOL   O54124591   4.283   3.551   1.984 -0.6170  0.3573 -0.2195
   26MOL   C54224592   4.172   3.672   1.802  0.0692 -0.0540  0.2384
   26MOL   C54324593   4.058   3.765   1.848 -0.1124 -0.0442  0.4619
   26MOL   C54424594   3.927   3.764   1.772  0.2281  0.0025 -0.3468
   26MOL   C54524595   3.820   3.836   1.847  1.5400  0.1759  0.5074
   26MOL   C54624596   3.690   3.846   1.756 -0.4613 -0.3515  0.4607
   26MOL   C54724597   3.564   3.905   1.826 -0.9439 -0.2532  0.4035
   26MOL   C54824598   3.500   3.818   1.932 -0.1712 -0.0174 -1.0309
   26MOL   C54924599   3.349   3.846   1.951 -0.3843  0.1141 -0.2184
   26MOL   C55024600   3.269   3.728   2.011 -0.2810  0.2952  0.5109
   26MOL   O55124601   3.265   3.625   1.940 -0.0292 -0.4075  0.5417
   26MOL   H55224602   4.321   4.034   2.031  3.1372  0.9696  0.5333
   26MOL   H55324603   4.390   3.845   2.237  1.7087 -0.6918  0.8082
   26MOL   H55424604   4.431   4.001   2.291  3.5469 -0.9478 -0.3290
   26MOL   H55524605   4.613   4.127   2.197 -1.0164 -1.4298  2.3148
   26MOL   H55624606   4.837   4.118   2.070 -0.4247  0.6296 -0.9059
   26MOL   H55724607   4.893   3.923   1.936 -0.3538 -1.9865 -1.4829
   26MOL   H55824608   4.714   3.736   1.900  1.1800 -0.5814  1.2884
   26MOL   H55924609   4.468   3.677   2.108  0.0988 -1.1823 -0.6243
   26MOL   H56024610   4.549   3.636   1.967 -0.7538 -0.5663  0.0366
   26MOL   H56124611   4.381   3.825   1.870  0.7626  1.3085  0.9482
   26MOL   H56224612   4.130   3.573   1.785  0.0680 -0.3601  1.9051
   26MOL   H56324613   4.215   3.701   1.707  0.2136 -0.4588  0.1801
   26MOL   H56424614   4.097   3.867   1.850  0.0287 -0.0017 -2.3415
   26MOL   H56524615   4.032   3.740   1.950 -2.4159 -0.7398 -0.2800
   26MOL   H56624616   3.944   3.809   1.674  1.7140 -0.8673 -0.5090
   26MOL   H56724617   3.887   3.666   1.749 -0.1304  0.5760 -2.2504
   26MOL   H56824618   3.802   3.773   1.933 -2.6049  0.8911  0.2654
   26MOL   H56924619   3.854   3.926   1.897 -0.8175  1.1029  0.5019
   26MOL   H57024620   3.721   3.908   1.672  0.2922  0.7338  1.5299
   26MOL   H57124621   3.666   3.749   1.714  0.5838 -0.4746  0.1276
   26MOL   H57224622   3.490   3.930   1.751 -0.5577  0.7244  0.3405
   26MOL   H57324623   3.590   4.001   1.870 -2.0209 -0.4526  1.5073
   26MOL   H57424624   3.534   3.716   1.912 -0.0679 -0.3811  0.8657
   26MOL   H57524625   3.536   3.854   2.029 -4.4334 -2.0263  1.4342
   26MOL   H57624626   3.309   3.869   1.852 -2.8585  1.6623  1.0787
   26MOL   H57724627   3.327   3.944   1.995  1.6799  1.2091 -1.5609
   26MOL   N57824628   3.201   3.749   2.126 -0.2719 -0.1616 -0.4914
   26MOL   C57924629   3.099   3.659   2.186 -0.0976  0.2411 -0.7544
   26MOL   C58024630   2.968   3.658   2.103  0.4135  1.1350 -0.4031
   26MOL   C58124631   2.920   3.776   2.048 -0.4444  0.3251 -0.3149
   26MOL   C58224632   2.796   3.784   1.983  0.6619  0.8337 -0.2471
   26MOL   C58324633   2.725   3.667   1.976  0.2859  0.2972  0.0096
   26MOL   C58424634   2.776   3.544   2.017  0.6952 -0.2627 -0.2708
   26MOL   C58524635   2.894   3.537   2.085 -0.0754 -0.6200  0.4388
   26MOL   C58624636   2.950   3.400   2.114 -0.1349  0.7316  0.1995
   26MOL   N58724637   3.063   3.381   2.028  0.1432 -0.1448 -0.2518
   26MOL   C58824638   3.147   3.279   2.018  0.0307  0.1584  0.0359
   26MOL   O58924639   3.138   3.178   2.092 -0.7034 -0.1490 -0.3109
   26MOL   C59024640   3.279   3.307   1.935  0.2129 -0.4079 -0.2976
   26MOL   C59124641   3.351   3.178   1.887  0.2944 -0.0665  0.3395
   26MOL   C59224642   3.270   3.088   1.796  0.9273  0.2840 -0.1720
   26MOL   C59324643   3.359   2.985   1.723  0.2207  0.4345  0.4272
   26MOL   C59424644   3.266   2.904   1.627 -1.0023  0.2773  0.1374
   26MOL   C59524645   3.342   2.815   1.525  0.3743  0.3434  0.3365
   26MOL   C59624646   3.374   2.675   1.563  0.2672 -0.6357 -0.6797
   26MOL   C59724647   3.455   2.608   1.453  0.5432  0.5574  0.4919
   26MOL   C59824648   3.467   2.456   1.460  0.9269  0.3884 -0.1252
   26MOL   O59924649   3.476   2.394   1.565  0.1632  0.2408  0.0072
   26MOL   H60024650   3.220   3.829   2.184  1.1064  1.4752 -3.1337
   26MOL   H60124651   3.081   3.704   2.283  3.0655 -0.5269  0.2415
   26MOL   H60224652   3.140   3.559   2.204 -1.7616 -0.1214  1.1883
   26MOL   H60324653   2.961   3.875   2.066  1.7035 -0.4459 -0.8289
   26MOL   H60424654   2.753   3.875   1.943 -1.2213  0.7246  1.4301
   26MOL   H60524655   2.631   3.657   1.925  0.3570  0.6108 -0.1872
   26MOL   H60624656   2.719   3.458   1.984  1.1487  0.1934 -2.2964
   26MOL   H60724657   2.866   3.331   2.102  0.6089 -0.1425 -0.0086
   26MOL   H60824658   2.978   3.389   2.218  0.8442  1.8186  0.0559
   26MOL   H60924659   3.099   3.465   1.986 -0.8273  0.1317 -0.5547
   26MOL   H61024660   3.351   3.366   1.991 -0.9716  0.5110  0.3029
   26MOL   H61124661   3.244   3.360   1.847  0.9668  0.8337  0.1465
   26MOL   H61224662   3.393   3.122   1.970  1.4570 -0.9635 -0.8193
   26MOL   H61324663   3.442   3.217   1.840  0.8139 -1.2372  0.3785
   26MOL   H61424664   3.196   3.036   1.857  0.9744 -0.2197 -0.5415
   26MOL   H61524665   3.227   3.157   1.725 -3.1519 -2.3830 -0.4398
   26MOL   H61624666   3.430   3.038   1.660  0.5325  2.5005  2.4427
   26MOL   H61724667   3.426   2.921   1.781  0.6918 -0.4876 -1.0934
   26MOL   H61824668   3.194   2.856   1.693 -1.0671 -0.1377 -0.2387
   26MOL   H61924669   3.196   2.974   1.580 -1.4225  0.6734  1.3337
   26MOL   H62024670   3.438   2.860   1.497  0.9334 -1.7274 -1.1914
   26MOL   H62124671   3.281   2.806   1.436  0.5899  1.6067  0.0528
   26MOL   H62224672   3.426   2.685   1.658  0.0712  1.4153 -0.7788
   26MOL   H62324673   3.284   2.616   1.581  0.1957  0.0660  1.3771
   26MOL   H62424674   3.414   2.635   1.357 -1.5328  0.9381  1.4657
   26MOL   H62524675   3.559   2.641   1.457  1.1099 -1.0755 -0.1805
   26MOL   N62624676   3.473   2.392   1.341 -0.1663  0.0859 -0.6870
   26MOL   C62724677   3.484   2.244   1.335 -0.0713  0.3061 -0.1218
   26MOL   C62824678   3.468   2.189   1.200 -0.2090 -0.2277 -0.0191
   26MOL   C62924679   3.360   2.105   1.174 -0.2142 -0.0664 -0.4227
   26MOL   C63024680   3.339   2.050   1.045  0.6503  0.1976 -0.4633
   26MOL   C63124681   3.424   2.085   0.938 -0.3315 -0.0505 -0.9773
   26MOL   C63224682   3.534   2.168   0.967 -0.0443 -0.0629  0.9537
   26MOL   C63324683   3.558   2.216   1.093 -0.3996  0.4179  0.5837
   26MOL   C63424684   3.689   2.296   1.109 -0.3295  0.8518 -0.8341
   26MOL   N63524685   3.702   2.403   1.015 -0.5018 -0.0213  1.0778
   26MOL   C63624686   3.633   2.513   1.026  0.7090 -0.5383 -0.4640
   26MOL   O63724687   3.526   2.515   1.093 -0.1256 -0.0009  0.0756
   26MOL   C63824688   3.687   2.644   0.959  0.0809  0.2468 -0.3951
   26MOL   C63924689   3.598   2.766   0.981 -0.8176  0.5697  0.0266
   26MOL   C64024690   3.583   2.823   1.126 -0.2562  0.5209  1.0552
   26MOL   C64124691   3.534   2.970   1.122  0.2718 -0.4887  0.4196
   26MOL   C64224692   3.482   3.006   1.262  0.1537  0.1496  0.3306
   26MOL   C64324693   3.399   3.135   1.261  0.2462 -0.4549 -0.2656
   26MOL   C64424694   3.406   3.211   1.392 -0.3324 -0.6841 -0.0449
   26MOL   C64524695   3.312   3.338   1.399  0.2134 -0.2372 -0.2818
   26MOL   C64624696   3.158   3.311   1.396 -0.9250  0.1640  0.4452
   26MOL   O64724697   3.094   3.288   1.497 -0.1437 -0.0896 -0.1538
   26MOL   H64824698   3.473   2.440   1.253 -0.0306 -2.3762 -2.0620
   26MOL   H64924699   3.411   2.195   1.400  0.8433 -2.6124 -1.2177
   26MOL   H65024700   3.578   2.213   1.380 -1.3341 -1.4448  1.3947
   26MOL   H65124701   3.297   2.089   1.260 -0.8712  1.6239 -0.5848
   26MOL   H65224702   3.257   1.984   1.019 -1.3464  1.7803  1.6026
   26MOL   H65324703   3.403   2.042   0.842 -0.4720 -0.1561 -0.8976
   26MOL   H65424704   3.599   2.187   0.883  0.3190 -1.3677  0.9284
   26MOL   H65524705   3.781   2.245   1.078 -0.5812  0.6028 -1.1721
   26MOL   H65624706   3.709   2.328   1.211 -1.5960 -0.5264 -0.1400
   26MOL   H65724707   3.779   2.392   0.951 -1.2090  0.2667  0.1736
   26MOL   H65824708   3.709   2.628   0.854 -1.0735  0.0516 -0.6165
   26MOL   H65924709   3.780   2.650   1.015  0.7859 -1.4609 -1.3507
   26MOL   H66024710   3.506   2.758   0.923 -0.7896 -0.4029  0.1065
   26MOL   H66124711   3.661   2.840   0.930  0.2036 -0.5411 -0.3451
   26MOL   H66224712   3.515   2.757   1.179  0.0828 -1.0501 -0.4077
   26MOL   H66324713   3.680   2.815   1.175  0.7214 -1.8072 -1.1194
   26MOL   H66424714   3.609   3.040   1.085 -0.1249 -0.8507 -1.1262
   26MOL   H66524715   3.448   2.983   1.055 -0.1574 -1.5371  0.7536
   26MOL   H66624716   3.422   2.923   1.299 -0.8346  0.9616  0.5707
   26MOL   H66724717   3.571   3.002   1.323  1.2059  3.1065 -0.9151
   26MOL   H66824718   3.298   3.104   1.236  0.3020 -0.5955 -0.3145
   26MOL   H66924719   3.425   3.199   1.177 -0.1839  0.0634 -0.0057
   26MOL   H67024720   3.382   3.146   1.476  1.6651  0.9250  1.8086
   26MOL   H67124721   3.510   3.243   1.393 -0.5777  0.1730 -1.0832
   26MOL   H67224722   3.332   3.415   1.325  1.3843 -0.2130  0.0347
   26MOL   H67324723   3.337   3.381   1.496 -1.3230  0.3277 -0.1352
   26MOL   N67424724   3.107   3.313   1.272  0.3503  0.4227  0.1571
   26MOL   C67524725   2.972   3.273   1.237 -0.0063 -0.3078 -0.5195
   26MOL   C67624726   2.873   3.391   1.232  0.5185 -0.1355  0.0253
   26MOL   C67724727   2.911   3.529   1.253  0.4577 -0.3097 -0.0784
   26MOL   C67824728   2.824   3.639   1.236  0.3713 -0.5254 -1.0558
   26MOL   C67924729   2.694   3.619   1.215 -0.4478  0.6323 -0.5182
   26MOL   C68024730   2.648   3.487   1.197 -0.9326 -0.8079 -0.3180
   26MOL   C68124731   2.738   3.375   1.200  0.4501 -0.3748 -0.2780
   26MOL   C68224732   2.691   3.239   1.159  0.0997 -0.0938  0.2329
   26MOL   N68324733   2.547   3.235   1.118  0.0879  0.1250  0.5619
   26MOL   C68424734   2.493   3.209   0.998  0.9414  0.7850  0.9596
   26MOL   O68524735   2.373   3.221   0.982 -0.0460 -0.0761 -0.3738
   26MOL   C68624736   2.587   3.154   0.887  0.2074  0.2986 -0.6725
   26MOL   C68724737   2.512   3.112   0.759  0.4563  0.2728 -0.0854
   26MOL   C68824738   2.479   3.235   0.661  0.4487 -0.0148 -0.7200
   26MOL   C68924739   2.368   3.206   0.559  0.4416 -0.0243 -0.1499
   26MOL   C69024740   2.343   3.320   0.460  0.4025  0.2246 -0.3808
   26MOL   C69124741   2.458   3.346   0.360 -0.0733 -0.5722  0.0457
   26MOL   C69224742   2.432   3.463   0.259  0.3112 -0.2589 -0.6928
   26MOL   C69324743   2.550   3.516   0.176  0.2091 -0.5293  0.2433
   26MOL   C69424744   2.648   3.607   0.252 -0.1762 -0.7412 -0.5999
   26MOL   O69524745   2.672   3.586   0.376  0.1807  0.7282 -0.2803
   26MOL   H69624746   3.154   3.341   1.188  0.8030 -0.6960  0.0333
   26MOL   H69724747   2.944   3.200   1.313 -1.0972  0.3023 -0.3253
   26MOL   H69824748   2.969   3.223   1.140  0.1743  0.8203 -1.1099
   26MOL   H69924749   3.015   3.552   1.273  0.1534  0.1824  0.9507
   26MOL   H70024750   2.842   3.740   1.268 -0.7019 -0.3373 -1.0403
   26MOL   H70124751   2.621   3.699   1.213 -0.4855  0.6197  0.2848
   26MOL   H70224752   2.542   3.481   1.175 -1.3188  2.8356  0.1505
   26MOL   H70324753   2.712   3.174   1.243 -0.4716  0.2295  0.6305
   26MOL   H70424754   2.756   3.200   1.080  1.3065 -0.5674  1.4566
   26MOL   H70524755   2.482   3.242   1.196 -0.7543 -0.7133 -0.0526
   26MOL   H70624756   2.617   3.061   0.934 -1.0590  0.4262  0.4436
   26MOL   H70724757   2.665   3.228   0.869  1.0237 -0.2174  0.6641
   26MOL   H70824758   2.422   3.053   0.777  1.3216 -0.4731  2.0518
   26MOL   H70924759   2.580   3.041   0.712 -1.0281 -2.0083  1.0870
   26MOL   H71024760   2.439   3.320   0.717 -0.8834 -0.8209 -0.4096
   26MOL   H71124761   2.572   3.269   0.616 -0.3112  0.7095 -1.7793
   26MOL   H71224762   2.398   3.114   0.509  0.8381 -0.0347  0.1057
   26MOL   H71324763   2.275   3.175   0.607 -0.5112  4.2446  0.9124
   26MOL   H71424764   2.245   3.310   0.413  0.2577 -1.6737  0.3027
   26MOL   H71524765   2.311   3.408   0.518 -0.0892  0.0591 -0.3993
   26MOL   H71624766   2.473   3.256   0.301 -1.2886  0.0915 -1.3074
   26MOL   H71724767   2.541   3.375   0.425 -0.3818  0.1824  0.1055
   26MOL   H71824768   2.384   3.546   0.312  1.9877  1.5855 -2.0016
   26MOL   H71924769   2.360   3.424   0.187  1.5212 -0.7729 -1.6257
   26MOL   H72024770   2.504   3.570   0.093  0.9416  0.5229  0.5173
   26MOL   H72124771   2.616   3.435   0.144 -0.4582 -1.0048  0.0536
   26MOL   N72224772   2.711   3.706   0.184 -0.0940 -0.2916 -0.6667
   26MOL   C72324773   2.818   3.787   0.239 -0.2090 -0.2016  0.5666
   26MOL   C72424774   2.957   3.737   0.197  0.8603 -0.4891  0.3470
   26MOL   C72524775   2.971   3.676   0.072 -0.9547  0.8040  0.7193
   26MOL   C72624776   3.098   3.642   0.014  0.0519 -0.9271  0.1973
   26MOL   C72724777   3.211   3.659   0.090  0.1520  0.0546  0.5720
   26MOL   C72824778   3.198   3.720   0.219 -0.3605  0.3980  0.0076
   26MOL   C72924779   3.071   3.762   0.267  0.1298  0.5594  0.2689
   26MOL   C73024780   3.066   3.844   0.393 -0.2801 -0.1217  0.3098
   26MOL   N73124781   3.061   3.987   0.379  0.3358  0.3031  0.0580
   26MOL   C73224782   3.056   4.079   0.477  1.0053 -0.0614 -0.5255
   26MOL   O73324783   3.018   4.045   0.590  0.3705 -0.5383  0.0992
   26MOL   C73424784   3.088   4.229   0.442  0.2520 -0.0402 -0.7775
   26MOL   C73524785   3.240   4.255   0.439 -0.1791  0.0463  0.6486
   26MOL   C73624786   3.264   4.397   0.502 -0.2775 -0.1536  0.2432
   26MOL   C73724787   3.413   4.427   0.477  0.2859  1.0017  0.0651
   26MOL   C73824788   3.444   4.556   0.548 -0.0726 -0.1155  0.2396
   26MOL   C73924789   3.572   4.628   0.507  0.0302  0.2668 -0.0626
   26MOL   C74024790   3.630   4.706   0.627  0.0922 -0.4633 -0.8558
   26MOL   C74124791   3.540   4.810   0.702 -0.1493  0.3251  0.2764
   26MOL   C74224792   3.511   4.937   0.637 -0.2815 -1.5280 -0.3850
   26MOL   O74324793   3.537   4.956   0.517 -0.0859 -0.0999 -0.5764
   26MOL   H74424794   2.702   3.709   0.083 -3.0314  0.3709 -0.4214
   26MOL   H74524795   2.803   3.795   0.347 -0.2761  0.5524  0.4986
   26MOL   H74624796   2.799   3.890   0.209  0.5554 -0.2596 -0.1185
   26MOL   H74724797   2.896   3.663   7.786  0.6574  0.8735 -0.9176
   26MOL   H74824798   3.116   3.598   7.707 -0.8738 -0.5985 -0.1256
   26MOL   H74924799   3.307   3.633   0.047  0.3691 -0.6955  1.4977
   26MOL   H75024800   3.289   3.731   0.277  1.2320 -1.0960 -2.1342
   26MOL   H75124801   3.152   3.823   0.457 -0.8592 -1.2501  0.7427
   26MOL   H75224802   2.985   3.811   0.459 -0.7764  1.8932  0.7520
   26MOL   H75324803   3.078   4.025   0.287 -0.9100 -1.1612 -0.7968
   26MOL   H75424804   3.041   4.294   0.516 -2.8472 -1.7485 -1.1786
   26MOL   H75524805   3.043   4.258   0.347 -0.6916  0.1142 -0.2905
   26MOL   H75624806   3.286   4.240   0.342 -1.7405  0.6762 -0.1981
   26MOL   H75724807   3.286   4.188   0.512 -0.0002 -0.5456 -0.0003
   26MOL   H75824808   3.204   4.476   0.455  0.6419 -0.6524 -1.8273
   26MOL   H75924809   3.239   4.394   0.608  1.2285 -2.1401  0.5710
   26MOL   H76024810   3.489   4.354   0.504 -0.4483  0.1079 -0.2567
   26MOL   H76124811   3.425   4.432   0.369  3.6994 -2.6288  0.2063
   26MOL   H76224812   3.362   4.628   0.536 -0.6538 -0.6597  0.9656
   26MOL   H76324813   3.442   4.526   0.652 -2.2187 -0.3351  0.1733
   26MOL   H76424814   3.549   4.695   0.424  0.3002  0.3263 -0.0913
   26MOL   H76524815   3.649   4.560   0.469  0.5121  0.3302  0.7897
   26MOL   H76624816   3.662   4.632   0.700  1.1151  0.0695 -0.7483
   26MOL   H76724817   3.723   4.748   0.590 -0.0863  1.2647  0.5830
   26MOL   H76824818   3.457   4.762   0.753  0.2483 -0.6638  0.0005
   26MOL   H76924819   3.603   4.845   0.784  0.4357 -0.5679  0.2173
   26MOL   N77024820   3.461   5.041   0.711  0.1650 -0.0755  0.0753
   26MOL   C77124821   3.445   5.176   0.668 -0.2263 -0.2595 -0.4199
   26MOL   C77224822   3.393   5.268   0.781 -0.0442 -0.4375 -0.2769
   26MOL   C77324823   3.488   5.341   0.859 -0.7560  0.4820 -0.7588
   26MOL   C77424824   3.455   5.442   0.947 -0.4319 -0.2265  0.7864
   26MOL   C77524825   3.317   5.469   0.953  1.1088 -0.5489  0.0809
   26MOL   C77624826   3.218   5.399   0.888 -0.1951 -0.5066 -0.8274
   26MOL   C77724827   3.254   5.295   0.803 -0.6373  0.5021  0.3565
   26MOL   C77824828   3.156   5.212   0.722  0.4710  0.9218  0.4277
   26MOL   N77924829   3.142   5.080   0.776  0.5133 -0.1790  0.2557
   26MOL   C78024830   3.035   4.996   0.778 -0.2425 -1.2887 -0.0710
   26MOL   O78124831   2.926   5.043   0.740  0.9600  0.4543  0.0299
   26MOL   C78224832   3.042   4.856   0.837 -0.3650 -0.2706 -0.9134
   26MOL   C78324833   2.964   4.751   0.758 -0.3036  0.0492  0.2533
   26MOL   C78424834   2.961   4.610   0.834 -1.1789  0.1505  0.2759
   26MOL   C78524835   2.915   4.490   0.744 -1.1071  0.2289 -0.0223
   26MOL   C78624836   2.884   4.363   0.822 -0.5871 -0.5244 -0.4907
   26MOL   C78724837   2.759   4.372   0.908  0.0883 -0.2648  0.2738
   26MOL   C78824838   2.633   4.407   0.832 -0.3399  0.0278  0.0942
   26MOL   C78924839   2.596   4.310   0.722  0.4483 -0.9272 -0.4931
   26MOL   C79024840   2.450   4.315   0.681 -0.5142  1.1171  0.2880
   26MOL   O79124841   2.372   4.287   0.770  0.0555  0.1684  0.3471
   26MOL   H79224842   3.455   5.017   0.809  1.5058 -1.6807 -0.2061
   26MOL   H79324843   3.538   5.226   0.640  0.0353  0.1586  1.1427
   26MOL   H79424844   3.389   5.184   0.575  1.3916 -0.1120 -1.3809
   26MOL   H79524845   3.593   5.337   0.831 -0.5594  2.0416 -0.3022
   26MOL   H79624846   3.529   5.499   1.001 -1.2025  0.9264  0.6526
   26MOL   H79724847   3.281   5.553   1.012 -0.5269 -1.6479  0.6747
   26MOL   H79824848   3.113   5.424   0.901  0.1307 -0.6375  2.3770
   26MOL   H79924849   3.166   5.214   0.613  0.3971 -0.2835  0.3931
   26MOL   H80024850   3.061   5.264   0.732  1.0703  2.3196 -0.9377
   26MOL   H80124851   3.228   5.048   0.818  0.9775 -0.5419 -0.9572
   26MOL   H80224852   2.999   4.867   0.937 -0.1443 -0.2379 -0.8226
   26MOL   H80324853   3.148   4.831   0.832 -0.3783 -0.7005  0.7067
   26MOL   H80424854   3.013   4.729   0.663  1.1702 -0.7772  1.2001
   26MOL   H80524855   2.864   4.780   0.725  0.7428  1.7314 -1.5718
   26MOL   H80624856   2.891   4.620   0.917 -0.9631  0.1730  0.4548
   26MOL   H80724857   3.060   4.583   0.871 -1.0693 -1.5695 -1.1945
   26MOL   H80824858   2.837   4.547   0.694 -0.0398 -1.1654 -3.4558
   26MOL   H80924859   2.996   4.481   0.670 -0.5259  0.4963  0.5754
   26MOL   H81024860   2.888   4.269   0.767  0.9634 -0.5401 -0.3958
   26MOL   H81124861   2.962   4.340   0.895  0.0631 -2.9199 -1.8739
   26MOL   H81224862   2.785   4.447   0.982  1.0736  0.5913 -0.9188
   26MOL   H81324863   2.748   4.278   0.962 -1.2990  0.9859  2.2320
   26MOL   H81424864   2.644   4.506   0.786 -1.2925  0.5531  0.9669
   26MOL   H81524865   2.556   4.419   0.909  1.3751 -1.3704  2.0826
   26MOL   H81624866   2.607   4.204   0.744  1.1831 -0.9447 -0.8998
   26MOL   H81724867   2.668   4.308   0.640 -0.1035 -0.6379 -0.9918
   26MOL   N81824868   2.424   4.346   0.554  0.3927  0.4589  0.2051
   26MOL   C81924869   2.292   4.365   0.493  0.1952 -0.8449  1.2236
   26MOL   C82024870   2.288   4.479   0.387  0.0240 -0.4916 -0.3327
   26MOL   C82124871   2.396   4.571   0.380  0.4944 -0.5872  0.8439
   26MOL   C82224872   2.400   4.673   0.290  0.0774 -0.0018  0.6807
   26MOL   C82324873   2.297   4.696   0.202  0.0963 -0.0754  0.1883
   26MOL   C82424874   2.188   4.614   0.206  0.1791 -0.5120 -0.3747
   26MOL   C82524875   2.178   4.504   0.298  0.1412 -0.5358  0.2917
   26MOL   C82624876   2.053   4.429   0.297 -0.5358  0.0356  0.1555
   26MOL   N82724877   2.065   4.295   0.242 -0.0054 -0.0285 -0.0781
   26MOL   C82824878   1.973   4.199   0.266  0.2537 -0.3380 -0.3848
   26MOL   O82924879   1.868   4.218   0.329 -0.6019 -0.3076  0.3234
   26MOL   C83024880   2.005   4.056   0.222  0.1636  0.1818 -0.2397
   26MOL   C83124881   1.964   4.015   0.073  0.4656 -0.2172  0.4229
   26MOL   C83224882   2.053   4.044   7.744  0.0927 -0.1008 -0.0590
   26MOL   C83324883   2.091   4.193   7.724  0.4867 -0.5650 -0.1068
   26MOL   C83424884   2.175   4.206   7.601 -0.5681  0.0684  0.0220
   26MOL   C83524885   2.265   4.329   7.598 -0.0622 -0.6055 -0.6879
   26MOL   C83624886   2.210   4.468   7.638  0.4230 -0.2143 -0.5182
   26MOL   C83724887   2.319   4.573   7.628 -0.8092 -0.4660  0.3018
   26MOL   C83824888   2.269   4.711   7.641  0.2110 -0.4200 -0.3611
   26MOL   O83924889   2.156   4.736   7.687  0.0119 -0.3877  0.2756
   26MOL   H84024890   2.507   4.342   0.497  2.7971  1.0899  3.5136
   26MOL   H84124891   2.265   4.271   0.446 -2.6263  0.3271  0.4111
   26MOL   H84224892   2.212   4.388   0.563 -1.6391 -1.0125 -0.7627
   26MOL   H84324893   2.480   4.557   0.447  0.5652 -1.2484  0.6144
   26MOL   H84424894   2.483   4.742   0.283 -0.2752  0.1103 -3.8757
   26MOL   H84524895   2.291   4.781   0.135 -0.3536  0.2792  0.6689
   26MOL   H84624896   2.106   4.639   0.140  1.1210  0.0344 -1.3401
   26MOL   H84724897   1.975   4.488   0.250  0.7073  1.5280 -0.0853
   26MOL   H84824898   2.037   4.436   0.404 -1.6459  1.1449 -0.0722
   26MOL   H84924899   2.149   4.273   0.191  0.8688  2.3334  0.2684
   26MOL   H85024900   1.940   3.996   0.286  1.6652 -0.9395  0.2666
   26MOL   H85124901   2.105   4.015   0.237 -0.4224 -0.9934  0.5022
   26MOL   H85224902   1.870   4.064   0.049  0.2120 -1.1264 -0.4626
   26MOL   H85324903   1.942   3.909   0.064 -0.5676 -0.2230  2.5882
   26MOL   H85424904   2.000   4.014   7.653  0.7183  1.1411 -0.8592
   26MOL   H85524905   2.139   3.982   7.764  0.8130  0.1179 -2.2666
   26MOL   H85624906   2.009   4.263   7.708  0.6800 -0.0135  1.2689
   26MOL   H85724907   2.141   4.237   0.020  0.6403 -0.1311 -0.4163
   26MOL   H85824908   2.221   4.109   7.587 -3.3133 -1.4660  1.2980
   26MOL   H85924909   2.106   4.215   7.516 -1.6222  0.7166  0.9303
   26MOL   H86024910   2.311   4.329   7.499  0.2767  2.1213 -0.5638
   26MOL   H86124911   2.342   4.316   7.674 -0.0198 -0.6657 -0.7418
   26MOL   H86224912   2.164   4.464   7.737  0.0504 -2.5612 -0.7584
   26MOL   H86324913   2.125   4.492   7.574 -0.6376  1.8205  1.5526
   26MOL   H86424914   2.404   4.569   7.697 -0.4376 -1.3892 -0.1951
   26MOL   H86524915   2.373   4.572   7.533 -0.1005 -1.2626  0.7024
   26MOL   N86624916   2.356   4.807   7.601 -0.8278  0.0545  0.3231
   26MOL   C86724917   2.326   4.951   7.595  0.3124 -0.0492 -0.5187
   26MOL   C86824918   2.297   4.996   7.460 -0.1720 -0.5541 -0.2997
   26MOL   C86924919   2.404   5.030   7.381 -0.1160  1.0285 -0.3156
   26MOL   C87024920   2.398   5.071   7.243  0.2367 -0.0220 -0.4287
   26MOL   C87124921   2.271   5.081   7.187 -0.8300  0.8925 -0.1176
   26MOL   C87224922   2.156   5.056   7.274  0.4426 -0.0696  0.3122
   26MOL   C87324923   2.167   5.021   7.414 -0.1341  0.0480 -0.2439
   26MOL   C87424924   2.039   4.983   7.488  0.2522  0.0433  0.1507
   26MOL   N87524925   1.919   5.055   7.440 -0.0337 -0.1477 -0.3147
   26MOL   C87624926   1.829   5.006   7.361  0.3073 -0.3669 -0.1506
   26MOL   O87724927   1.832   4.889   7.316 -0.3009 -0.3923  0.3295
   26MOL   C87824928   1.715   5.097   7.319  0.2386  0.0424 -0.2269
   26MOL   C87924929   1.748   5.161   7.186  0.0751  0.0813 -0.5320
   26MOL   C88024930   1.717   5.073   7.070 -0.3150  0.1655  0.3494
   26MOL   C88124931   1.736   5.143   6.931 -0.5859  1.3468 -0.2853
   26MOL   C88224932   1.693   5.048   6.821  0.5174 -0.5151 -0.1803
   26MOL   C88324933   1.674   5.127   6.688 -0.2890  0.0278 -0.4212
   26MOL   C88424934   1.596   5.048   6.580  0.0131 -0.3454 -0.1768
   26MOL   C88524935   1.684   4.925   6.533 -0.2955  0.0026  0.0878
   26MOL   C88624936   1.635   4.889   6.387 -0.3530  0.7277 -0.4228
   26MOL   O88724937   1.524   4.840   6.368  0.5466  1.0377  0.5706
   26MOL   H88824938   2.427   4.783   7.533 -1.1233  0.4343 -0.1266
   26MOL   H88924939   2.255   4.991   7.667  0.8421  0.8880 -0.5179
   26MOL   H89024940   2.402   5.009   7.647  0.9609 -0.4583 -1.0056
   26MOL   H89124941   2.504   5.020   7.422  1.0338  1.9295 -2.8115
   26MOL   H89224942   2.483   5.093   7.180  2.2275  1.4154  2.6373
   26MOL   H89324943   2.251   5.110   7.085 -0.2570  0.7423 -0.2793
   26MOL   H89424944   2.060   5.060   7.226 -0.1933 -0.6038  1.5323
   26MOL   H89524945   2.050   5.015   7.592  1.7852 -1.2745  0.4242
   26MOL   H89624946   2.026   4.875   7.483  2.7188 -0.3697  1.5825
   26MOL   H89724947   1.898   5.144   7.484 -0.5317  0.6017 -2.0418
   26MOL   H89824948   1.693   5.174   7.394  2.1237 -0.8358  1.2621
   26MOL   H89924949   1.625   5.036   7.311 -1.5157  2.7093 -1.8871
   26MOL   H90024950   1.854   5.190   7.179 -0.2474  1.9069  1.4265
   26MOL   H90124951   1.693   5.254   7.170 -1.1677 -0.1336  2.3143
   26MOL   H90224952   1.775   4.980   7.075 -1.1155 -0.4175 -0.9195
   26MOL   H90324953   1.611   5.051   7.081 -0.7015  0.0433 -3.0783
   26MOL   H90424954   1.667   5.228   6.932  0.6381  2.3454  1.3545
   26MOL   H90524955   1.837   5.176   6.908 -0.7854  0.7721 -2.0865
   26MOL   H90624956   1.755   4.960   6.802  1.8769  0.6288 -1.1290
   26MOL   H90724957   1.603   4.996   6.852  0.0079  0.6034  0.2431
   26MOL   H90824958   1.771   5.160   6.651  0.5604 -0.6866  1.1362
   26MOL   H90924959   1.625   5.223   6.703 -0.1323  0.0703 -0.1754
   26MOL   H91024960   1.502   5.014   6.625  0.1362  1.5913  1.5932
   26MOL   H91124961   1.569   5.116   6.499 -0.6850 -1.8902 -1.2719
   26MOL   H91224962   1.790   4.950   6.526 -0.1037 -1.0860 -1.0624
   26MOL   H91324963   1.677   4.836   6.596 -2.5600  0.0632 -0.0583
   26MOL   N91424964   1.702   4.926   6.279 -0.1684  0.2810  0.0813
   26MOL   C91524965   1.828   4.995   6.276 -0.3773 -0.5779 -0.3091
   26MOL   C91624966   1.888   5.031   6.133  0.0380 -0.7103  0.0078
   26MOL   C91724967   1.810   5.026   6.015 -0.0261  0.2373 -0.0282
   26MOL   C91824968   1.861   5.068   5.892  0.6293  0.1035  0.1352
   26MOL   C91924969   1.993   5.104   5.882 -0.1166  1.2953 -0.1637
   26MOL   C92024970   2.072   5.123   5.999  0.6960 -0.9202 -0.4106
   26MOL   C92124971   2.019   5.084   6.124  0.7685 -0.3913  0.9524
   26MOL   C92224972   2.114   5.090   6.244  0.6099  0.4556  0.3095
   26MOL   N92324973   2.071   5.163   6.367 -0.0034  0.0633 -0.5829
   26MOL   C92424974   2.096   5.296   6.393  0.0690  0.4431 -0.0983
   26MOL   O92524975   2.149   5.369   6.311 -0.1762  0.5480  0.5208
   26MOL   C92624976   2.047   5.345   6.532  0.7866 -0.0340  0.1003
   26MOL   C92724977   2.050   5.494   6.560  0.2299  0.1944  0.6197
   26MOL   C92824978   1.956   5.553   6.667  0.2272 -0.5812 -0.9345
   26MOL   C92924979   1.951   5.473   6.797  0.6269  0.2449 -0.7647
   26MOL   C93024980   1.865   5.545   6.902  0.2038 -0.3685 -0.5134
   26MOL   C93124981   1.885   5.481   7.045  0.2933 -0.3875  1.0341
   26MOL   C93224982   1.781   5.545   7.140 -0.7313 -0.0084  0.2984
   26MOL   C93324983   1.783   5.693   7.153  0.7612  0.3516 -0.7311
   26MOL   C93424984   1.902   5.762   7.219  1.1730 -0.3408  0.3499
   26MOL   O93524985   1.972   5.702   7.301 -0.3590 -0.1010 -0.0039
   26MOL   H93624986   1.654   4.915   6.191  1.0277 -0.4464 -0.4888
   26MOL   H93724987   1.828   5.084   6.339 -0.8391 -0.5466 -0.3581
   26MOL   H93824988   1.903   4.929   6.321  2.3080  3.0973  0.8986
   26MOL   H93924989   1.709   4.988   6.019 -0.2173  0.8805  1.7448
   26MOL   H94024990   1.794   5.040   5.812  1.6108 -0.0487 -0.6450
   26MOL   H94124991   2.045   5.118   5.788 -0.5517 -1.8041 -0.9160
   26MOL   H94224992   2.171   5.166   5.996 -0.1879  1.7225  3.9539
   26MOL   H94324993   2.215   5.125   6.225  0.8536  1.4529  3.1420
   26MOL   H94424994   2.131   4.989   6.280 -2.0232  1.1141  3.6384
   26MOL   H94524995   2.035   5.107   6.443  0.0427  1.0266  0.1573
   26MOL   H94624996   2.119   5.296   6.598  1.3138  1.0336  0.3360
   26MOL   H94724997   1.945   5.308   6.542  0.7301  0.3351  1.0254
   26MOL   H94824998   2.022   5.546   6.468  1.2920 -2.8026 -1.4688
   26MOL   H94924999   2.153   5.517   6.585 -0.6526  3.4879  1.4899
   26MOL   H95025000   1.985   5.652   6.704  0.5557 -0.8812 -0.3729
   26MOL   H95125001   1.856   5.569   6.626  0.2254  0.0047 -0.7122
   26MOL   H95225002   1.914   5.373   6.778 -2.3950  1.0473  0.5185
   26MOL   H95325003   2.050   5.456   6.840  0.3232 -0.5984 -0.3960
   26MOL   H95425004   1.762   5.538   6.867  0.0089 -0.2271  0.0191
   26MOL   H95525005   1.898   5.648   6.918  0.3430 -0.1876 -1.8839
   26MOL   H95625006   1.862   5.375   7.035  0.8964 -0.3489 -1.0911
   26MOL   H95725007   1.980   5.508   7.090  0.6090  0.6148 -0.2043
   26MOL   H95825008   1.787   5.494   7.236 -2.4395 -0.0413  0.3929
   26MOL   H95925009   1.689   5.510   7.094 -0.4283  0.5131 -0.7325
   26MOL   H96025010   1.696   5.719   7.215 -0.6147  1.9795 -3.2753
   26MOL   H96125011   1.765   5.746   7.060  0.9294  2.7889  0.6028
   26MOL   H96225012   1.902   5.867   7.190  2.2406 -0.2234  0.7275
   27MOL     N125013   0.560   3.766   3.922  0.2318 -0.2010  0.3270
   27MOL     C225014   0.556   3.886   3.848  0.6043  0.2588  0.4194
   27MOL     C325015   0.556   4.025   3.913 -0.0473 -0.5932  0.3472
   27MOL     C425016   0.679   4.100   3.902  0.7050 -0.0712  1.0779
   27MOL     C525017   0.693   4.220   3.967 -0.5049  1.4379 -0.3447
   27MOL     C625018   0.602   4.264   4.062 -0.8871  0.0739  0.3578
   27MOL     C725019   0.484   4.189   4.071  0.0785 -0.4567  0.4657
   27MOL     C825020   0.463   4.066   4.005 -0.7292 -0.1937 -0.2487
   27MOL     C925021   0.361   3.961   4.054 -0.2620 -0.3557  0.4616
   27MOL    N1025022   0.255   4.009   4.141  0.0586  0.3530  0.5960
   27MOL    C1125023   0.263   4.012   4.274  0.5492  0.2976  0.0385
   27MOL    O1225024   0.362   3.970   4.332  0.1936  0.1310 -0.1218
   27MOL    C1325025   0.146   4.090   4.343 -0.6535  0.6675 -0.2577
   27MOL    C1425026   0.205   4.199   4.435 -0.5018  0.0069  0.0981
   27MOL    C1525027   0.261   4.339   4.378  0.4730  0.2744  0.0224
   27MOL    C1625028   0.183   4.387   4.261 -0.8024  0.5838  0.5738
   27MOL    C1725029   0.236   4.520   4.211  0.4791  0.0652 -0.5709
   27MOL    C1825030   0.155   4.560   4.087 -0.2292 -0.3892  0.2982
   27MOL    C1925031   0.171   4.703   4.045 -0.2406  0.3247 -0.1508
   27MOL    C2025032   0.306   4.751   3.993  0.2402 -0.4843 -0.0003
   27MOL    C2125033   0.347   4.898   4.018 -0.2200  0.9575  0.2510
   27MOL    O2225034   0.264   4.976   4.072  0.0876  0.7688 -0.8790
   27MOL    H2325035   0.474   3.717   3.900  0.3007 -0.3569  0.4049
   27MOL    H2425036   0.637   3.899   3.776  0.4203 -0.4315  0.0809
   27MOL    H2525037   0.468   3.891   3.785  1.1923  3.0655 -0.2480
   27MOL    H2625038   0.767   4.063   3.852  0.7406  0.6530  0.5997
   27MOL    H2725039   0.771   4.293   3.950  0.7285  0.0663 -0.6802
   27MOL    H2825040   0.615   4.363   4.104 -1.5500  0.0615  0.5874
   27MOL    H2925041   0.409   4.217   4.144 -0.5893  0.3118 -0.5062
   27MOL    H3025042   0.406   3.872   4.098  1.0732  0.5214  0.8632
   27MOL    H3125043   0.309   3.934   3.962 -1.4104  1.7551  0.4766
   27MOL    H3225044   0.172   4.048   4.097  0.6869  0.8800 -0.1301
   27MOL    H3325045   0.079   4.023   4.396 -0.6976  0.9789  0.0778
   27MOL    H3425046   0.088   4.137   4.263  1.5236  1.1790 -1.5919
   27MOL    H3525047   0.282   4.162   4.503 -1.8860 -1.3713  0.9531
   27MOL    H3625048   0.128   4.224   4.508  0.6249  3.5206  0.2126
   27MOL    H3725049   0.250   4.414   4.456 -0.5074  1.2153 -0.9967
   27MOL    H3825050   0.366   4.346   4.352  0.3099  0.8642 -0.4752
   27MOL    H3925051   0.188   4.313   4.181  0.3586  2.5307 -1.2152
   27MOL    H4025052   0.079   4.392   4.295 -0.0733 -0.4359  3.0435
   27MOL    H4125053   0.230   4.593   4.291  2.7617 -0.4391  0.0908
   27MOL    H4225054   0.341   4.517   4.181  0.9506 -1.1095  1.1281
   27MOL    H4325055   0.049   4.552   4.112 -0.4768  0.9542 -0.3012
   27MOL    H4425056   0.174   4.490   4.006 -0.6275 -0.3195  0.1447
   27MOL    H4525057   0.094   4.742   3.979 -0.1612  2.5633  1.0260
   27MOL    H4625058   0.158   4.745   4.145 -1.3330  1.1659 -0.6407
   27MOL    H4725059   0.297   4.744   3.884  2.8997  1.4216 -0.4182
   27MOL    H4825060   0.390   4.686   4.018  0.2543 -0.2525  0.5629
   27MOL    H4925061   0.635   3.708   3.888  0.1710  1.3837 -2.7500
   27MOL    N5025062   0.466   4.943   3.976  0.3835  0.5902  0.5726
   27MOL    C5125063   0.505   5.081   3.976  0.8268  0.2604  0.4294
   27MOL    C5225064   0.595   5.117   4.091  0.0410  0.2138 -0.2084
   27MOL    C5325065   0.647   5.022   4.178  0.1850 -0.5148 -0.1455
   27MOL    C5425066   0.720   5.062   4.292  0.5222 -0.4341 -0.0154
   27MOL    C5525067   0.760   5.196   4.313  0.5582  0.8761 -0.1725
   27MOL    C5625068   0.722   5.291   4.214  1.3225  0.4393 -0.4702
   27MOL    C5725069   0.636   5.254   4.104  0.8184  0.4245 -0.9466
   27MOL    C5825070   0.596   5.368   4.007 -0.1502  0.1196 -0.6636
   27MOL    N5925071   0.697   5.369   3.913  0.0481  0.5874  0.1153
   27MOL    C6025072   0.702   5.461   3.813 -0.6415  0.6241  1.0828
   27MOL    O6125073   0.607   5.538   3.797 -0.8488  0.1799 -0.0304
   27MOL    C6225074   0.818   5.462   3.711  0.0331  0.6796 -0.0646
   27MOL    C6325075   0.818   5.598   3.623 -0.0736 -0.4082 -0.5590
   27MOL    C6425076   0.949   5.624   3.552 -0.1838 -0.3232  0.4467
   27MOL    C6525077   0.997   5.502   3.462  0.5385  0.1938 -0.4716
   27MOL    C6625078   1.109   5.539   3.371 -0.2896  0.1206 -0.0465
   27MOL    C6725079   1.237   5.585   3.443  0.2096 -0.0346  0.0834
   27MOL    C6825080   1.357   5.608   3.353  0.3081 -0.7268  0.2393
   27MOL    C6925081   1.338   5.728   3.261 -0.1949  0.7118  0.1319
   27MOL    C7025082   1.456   5.760   3.164  0.1412  0.0808  0.5092
   27MOL    O7125083   1.535   5.673   3.128 -0.2079 -0.1987  0.1959
   27MOL    H7225084   0.533   4.880   3.935  0.0758  1.3755 -1.1904
   27MOL    H7325085   0.414   5.141   3.976  0.0538 -0.8907  0.8630
   27MOL    H7425086   0.557   5.104   3.883  0.7790  1.5514  0.7180
   27MOL    H7525087   0.622   4.918   4.162  0.1832 -0.9363  2.3506
   27MOL    H7625088   0.745   4.991   4.369  1.2182 -0.3485 -0.1621
   27MOL    H7725089   0.823   5.223   4.396 -0.9557  2.6659  0.4337
   27MOL    H7825090   0.740   5.397   4.230 -1.0602  1.1968 -2.3660
   27MOL    H7925091   0.594   5.451   4.078 -0.0876  0.4504 -1.0476
   27MOL    H8025092   0.497   5.360   3.964  0.7918 -1.8254 -2.5792
   27MOL    H8125093   0.775   5.305   3.914  1.8412  2.7340  0.5801
   27MOL    H8225094   0.818   5.370   3.652  0.4069  0.8513 -0.3268
   27MOL    H8325095   0.914   5.451   3.761 -0.8503  2.2093  2.0210
   27MOL    H8425096   0.798   5.679   3.693  1.6654 -1.1897  0.8867
   27MOL    H8525097   0.741   5.587   3.547  2.4960 -2.0790 -3.0095
   27MOL    H8625098   0.955   5.708   3.482  0.6741 -0.4357  0.3768
   27MOL    H8725099   1.030   5.650   3.620  2.6397  1.1087 -3.3016
   27MOL    H8825100   1.027   5.417   3.523  2.0133 -0.6825 -2.3839
   27MOL    H8925101   0.910   5.470   3.404 -1.5991  0.4595  2.4787
   27MOL    H9025102   1.135   5.448   3.318 -2.3996  0.2850 -1.4329
   27MOL    H9125103   1.076   5.611   3.295 -0.2554 -1.0314 -1.1632
   27MOL    H9225104   1.267   5.513   3.518 -1.4463 -0.1471  0.6494
   27MOL    H9325105   1.220   5.673   3.506 -3.6388  1.2332 -2.4734
   27MOL    H9425106   1.368   5.522   3.287  0.8400  1.0041 -1.9894
   27MOL    H9525107   1.436   5.628   3.425  0.9869  1.2577 -1.0075
   27MOL    H9625108   1.311   5.817   3.317 -2.9517  0.0435 -0.0576
   27MOL    H9725109   1.251   5.708   3.199  2.0321 -2.1503 -2.2498
   27MOL    N9825110   1.470   5.885   3.126 -0.5483 -0.6063 -0.3720
   27MOL    C9925111   1.563   5.946   3.035 -0.2851  0.0461  0.2197
   27MOL   C10025112   1.514   5.966   2.889  0.0911 -0.3045  0.0401
   27MOL   C10125113   1.413   6.058   2.862 -0.6309  0.3672 -0.6021
   27MOL   C10225114   1.359   6.080   2.737  0.1925 -0.1839 -0.5805
   27MOL   C10325115   1.407   6.008   2.631 -0.1648  0.0128 -0.3854
   27MOL   C10425116   1.507   5.919   2.651  0.4542 -0.6897  0.3552
   27MOL   C10525117   1.572   5.899   2.778 -0.2531  0.2391  0.3692
   27MOL   C10625118   1.672   5.791   2.797  0.2630 -0.0870 -0.2226
   27MOL   N10725119   1.725   5.729   2.678 -0.5482  0.4132 -0.2139
   27MOL   C10825120   1.823   5.758   2.592 -0.7481  0.4227  0.0871
   27MOL   O10925121   1.882   5.861   2.591 -0.1199  0.4302 -0.0971
   27MOL   C11025122   1.851   5.656   2.479  0.0051  0.3430  0.5765
   27MOL   C11125123   1.806   5.685   2.335 -0.9967  0.0784 -0.5337
   27MOL   C11225124   1.847   5.576   2.225 -0.6192  0.6005 -0.5984
   27MOL   C11325125   1.828   5.634   2.084  0.1153 -0.4211  0.4945
   27MOL   C11425126   1.882   5.545   1.969 -0.3875 -0.2601 -0.0129
   27MOL   C11525127   1.897   5.621   1.834  0.1948 -0.1654  0.5278
   27MOL   C11625128   2.001   5.739   1.841  0.2842  0.3169 -0.0554
   27MOL   C11725129   2.034   5.802   1.702 -0.1828  0.3109 -0.0145
   27MOL   C11825130   1.933   5.914   1.669  0.4580 -0.3903  0.1426
   27MOL   O11925131   1.817   5.909   1.716  0.3420  0.3153 -0.2099
   27MOL   H12025132   1.413   5.958   3.167 -0.1342  0.6110 -1.8986
   27MOL   H12125133   1.586   6.043   3.079  0.3898 -0.1743  0.3577
   27MOL   H12225134   1.659   5.898   3.051  0.6909  2.4184  1.7423
   27MOL   H12325135   1.370   6.114   2.943 -1.2777 -3.1970  1.6136
   27MOL   H12425136   1.279   6.153   2.740  3.3673  3.4425 -0.6731
   27MOL   H12525137   1.368   6.023   2.531  1.0369  0.2393 -0.8239
   27MOL   H12625138   1.531   5.858   2.564 -2.7299 -1.3560 -0.1109
   27MOL   H12725139   1.630   5.712   2.860 -0.0944 -0.6829 -1.1923
   27MOL   H12825140   1.754   5.832   2.855  0.5542 -2.2182  0.9167
   27MOL   H12925141   1.691   5.635   2.661  0.8829 -0.2427  0.4223
   27MOL   H13025142   1.804   5.563   2.510 -0.1864  0.8960  2.0001
   27MOL   H13125143   1.958   5.635   2.468  0.0326  1.5441 -1.5290
   27MOL   H13225144   1.846   5.781   2.306 -0.2230 -0.0002  0.2662
   27MOL   H13325145   1.697   5.697   2.332 -1.3975 -2.9390  0.0545
   27MOL   H13425146   1.953   5.550   2.237 -1.2722 -2.4807 -1.0884
   27MOL   H13525147   1.795   5.480   2.231 -1.2884  1.0038  0.1222
   27MOL   H13625148   1.720   5.647   2.075  0.6286  4.4128 -0.0213
   27MOL   H13725149   1.872   5.733   2.082  1.2946 -0.9484 -1.7598
   27MOL   H13825150   1.983   5.511   1.992  0.2270  0.3473 -1.7386
   27MOL   H13925151   1.827   5.453   1.950 -0.4627 -0.1457 -0.3492
   27MOL   H14025152   1.804   5.669   1.803  0.2156  0.5263  1.4790
   27MOL   H14125153   1.939   5.560   1.755 -0.5924  0.8814 -0.7107
   27MOL   H14225154   1.963   5.820   1.902  0.1774  0.0199  0.2772
   27MOL   H14325155   2.094   5.714   1.891  0.0764 -0.2144  0.0728
   27MOL   H14425156   2.027   5.723   1.628 -0.4984  1.0603 -0.7884
   27MOL   H14525157   2.132   5.850   1.702  1.5296 -3.0531  0.9160
   27MOL   N14625158   1.978   6.019   1.590 -0.3633 -0.0552 -0.2256
   27MOL   C14725159   1.902   6.138   1.552  0.6645 -0.5601 -0.5067
   27MOL   C14825160   1.938   6.259   1.638  0.2956 -0.8070  0.2780
   27MOL   C14925161   2.055   6.328   1.603  0.5099  0.1364 -0.6799
   27MOL   C15025162   2.080   6.456   1.654 -0.4184  0.2055  0.1702
   27MOL   C15125163   1.995   6.502   1.752 -0.2837  0.3405  0.0171
   27MOL   C15225164   1.876   6.439   1.784 -0.4576  0.0615  0.0143
   27MOL   C15325165   1.847   6.313   1.734 -0.4274 -0.7435 -0.1516
   27MOL   C15425166   1.717   6.245   1.776 -0.0417  0.0758  0.2248
   27MOL   N15525167   1.741   6.133   1.861  0.0901 -0.6939 -0.0441
   27MOL   C15625168   1.730   6.137   1.992 -0.8905  0.1679  0.2067
   27MOL   O15725169   1.670   6.221   2.059 -1.0652  0.5850 -0.0801
   27MOL   C15825170   1.800   6.021   2.063 -1.2244 -0.3816  0.3825
   27MOL   C15925171   1.946   6.060   2.109  0.4325 -0.0080 -0.6442
   27MOL   C16025172   2.052   6.107   2.009 -0.5094  0.2850 -0.4097
   27MOL   C16125173   2.168   6.183   2.083  0.4688  0.1999  0.1957
   27MOL   C16225174   2.274   6.256   1.995  1.1375  0.5202 -0.2786
   27MOL   C16325175   2.368   6.350   2.070  0.3796  0.4178 -0.1943
   27MOL   C16425176   2.459   6.432   1.970 -0.7279  0.0387  0.1359
   27MOL   C16525177   2.580   6.350   1.917  0.0012  0.0893  0.2596
   27MOL   C16625178   2.702   6.316   2.008  0.2477 -0.9617  0.7650
   27MOL   O16725179   2.758   6.409   2.062  0.1790  0.0480  0.1025
   27MOL   H16825180   2.070   6.019   1.548  0.5143  0.5982  1.6182
   27MOL   H16925181   1.795   6.121   1.541  0.2314  1.5642  0.1674
   27MOL   H17025182   1.930   6.162   1.450 -2.3181  0.7960 -1.0692
   27MOL   H17125183   2.123   6.286   1.529  0.4168 -0.8811 -0.1907
   27MOL   H17225184   2.162   6.522   1.628 -2.2296  1.6793 -1.9303
   27MOL   H17325185   2.017   6.593   1.806 -1.9838 -0.1733  1.6311
   27MOL   H17425186   1.808   6.476   1.860 -0.0576  0.4193  0.2025
   27MOL   H17525187   1.672   6.203   1.686  2.4988  2.8700 -2.4627
   27MOL   H17625188   1.635   6.306   1.814  0.7020  1.0755  0.2504
   27MOL   H17725189   1.788   6.049   1.831  1.1717 -0.1191 -0.0005
   27MOL   H17825190   1.804   5.938   1.993 -0.1593 -0.2403  0.2651
   27MOL   H17925191   1.749   5.980   2.151 -0.7207  1.3912  1.5270
   27MOL   H18025192   1.981   5.976   2.171 -2.4255  0.0959  1.2252
   27MOL   H18125193   1.924   6.139   2.180 -0.4340  1.4292 -2.4719
   27MOL   H18225194   2.088   6.022   1.952  1.3911  0.5920  0.2838
   27MOL   H18325195   2.015   6.184   1.941  0.6487  1.8040  0.6290
   27MOL   H18425196   2.121   6.256   2.149  0.4753  1.9890 -1.7221
   27MOL   H18525197   2.227   6.116   2.146  1.4221  1.2636  0.4552
   27MOL   H18625198   2.337   6.189   1.937  2.8436  0.4945  1.5447
   27MOL   H18725199   2.225   6.318   1.921 -1.3043 -1.9114 -0.7694
   27MOL   H18825200   2.426   6.309   2.153  0.5162 -0.1765 -0.5818
   27MOL   H18925201   2.304   6.420   2.123 -0.3632 -1.0202  0.8487
   27MOL   H19025202   2.394   6.471   1.892  1.3433  0.7659 -1.2724
   27MOL   H19125203   2.496   6.508   2.039  1.0776 -2.2045  1.7163
   27MOL   H19225204   2.631   6.421   1.852  1.6713 -1.6136 -0.3334
   27MOL   H19325205   2.558   6.268   1.849  1.7153  0.4773 -0.8130
   27MOL   N19425206   2.743   6.192   2.016 -0.0927  0.0831  0.3611
   27MOL   C19525207   2.873   6.156   2.069  0.5543 -0.4025  0.1676
   27MOL   C19625208   2.976   6.137   1.968 -0.1309 -0.4376 -0.3474
   27MOL   C19725209   2.949   6.059   1.854 -0.5537  0.6677  0.3808
   27MOL   C19825210   3.036   6.035   1.749  0.1151 -0.3157  0.4314
   27MOL   C19925211   3.157   6.097   1.752 -0.1670  0.0195 -0.0504
   27MOL   C20025212   3.192   6.180   1.862  0.2826 -1.0603  0.1483
   27MOL   C20125213   3.102   6.205   1.966  0.1966 -0.0903 -0.3456
   27MOL   C20225214   3.142   6.311   2.065 -0.3160  0.0234  0.2518
   27MOL   N20325215   3.047   6.422   2.061  0.3659  0.1251 -0.1136
   27MOL   C20425216   3.069   6.552   2.059  0.3798  0.0215 -0.0177
   27MOL   O20525217   3.172   6.599   2.109  0.1294  0.2058  0.3045
   27MOL   C20625218   2.971   6.645   1.991  0.9728 -0.4429  0.0245
   27MOL   C20725219   2.907   6.594   1.860  0.1321 -0.3666  0.4217
   27MOL   C20825220   2.998   6.537   1.749  0.3668  0.1198  0.2502
   27MOL   C20925221   3.119   6.619   1.709  0.2364 -0.0607  0.1454
   27MOL   C21025222   3.181   6.586   1.576 -0.7707  0.8714 -0.0196
   27MOL   C21125223   3.284   6.688   1.517  0.1270 -0.6658  0.3482
   27MOL   C21225224   3.315   6.670   1.369 -0.3763 -0.5855 -0.4099
   27MOL   C21325225   3.447   6.744   1.325  0.2696  0.4890 -0.3667
   27MOL   C21425226   3.574   6.671   1.366  0.1832 -0.2831 -0.3839
   27MOL   O21525227   3.588   6.646   1.484 -0.0006  0.1423  0.6615
   27MOL   H21625228   2.688   6.117   1.977 -2.8108  1.1958  1.9181
   27MOL   H21725229   2.900   6.225   2.149 -1.7029  1.2234 -0.4259
   27MOL   H21825230   2.863   6.065   2.128 -2.9868 -0.3338 -0.2457
   27MOL   H21925231   2.852   6.014   1.840  0.3066 -0.5356 -1.9361
   27MOL   H22025232   3.003   5.994   1.656 -0.9009 -0.0645  0.6736
   27MOL   H22125233   3.228   6.074   1.674 -0.6939 -1.0144 -0.2273
   27MOL   H22225234   3.289   6.227   1.852 -0.5453  0.5232 -0.6984
   27MOL   H22325235   3.239   6.357   2.044 -0.7438  0.5686 -0.5523
   27MOL   H22425236   3.151   6.275   2.168 -0.2533  1.5719  0.8055
   27MOL   H22525237   2.953   6.399   2.030  0.6718 -0.7751 -0.4013
   27MOL   H22625238   3.015   6.743   1.971 -1.2950  0.3209 -1.3932
   27MOL   H22725239   2.891   6.666   2.062  1.2924 -0.0465  0.2709
   27MOL   H22825240   2.818   6.533   1.870 -1.2314  1.4019 -0.6462
   27MOL   H22925241   2.872   6.678   1.800  0.1823  0.3837  1.4315
   27MOL   H23025242   3.033   6.436   1.770  4.4983  1.8678  2.4586
   27MOL   H23125243   2.934   6.522   1.662 -1.4866 -2.0853  1.9147
   27MOL   H23225244   3.083   6.721   1.694  1.6303 -0.1201 -4.1675
   27MOL   H23325245   3.202   6.618   1.780 -0.9605 -1.0075  1.5703
   27MOL   H23425246   3.222   6.485   1.579  1.9112  1.9332  0.9411
   27MOL   H23525247   3.095   6.578   1.511 -0.0123 -2.9410 -0.7055
   27MOL   H23625248   3.367   6.675   1.586 -1.1111 -0.0353  1.9952
   27MOL   H23725249   3.243   6.786   1.541 -2.3818 -1.7478  0.6109
   27MOL   H23825250   3.235   6.694   1.298  0.3680  1.2500 -0.6482
   27MOL   H23925251   3.339   6.564   1.359  0.0733 -0.5443  0.2098
   27MOL   H24025252   3.436   6.758   1.217 -1.4530 -0.4335 -0.3371
   27MOL   H24125253   3.448   6.846   1.364 -0.4375  0.0055  0.9368
   27MOL   N24225254   3.662   6.650   1.271 -0.5800 -0.2586  0.0168
   27MOL   C24325255   3.799   6.604   1.286 -0.8391  0.3488  0.1059
   27MOL   C24425256   3.844   6.516   1.172 -0.0282 -0.3237  0.1500
   27MOL   C24525257   3.755   6.479   1.071 -0.2825  0.1285  0.7156
   27MOL   C24625258   3.788   6.391   0.965  0.8851 -1.0475  0.1604
   27MOL   C24725259   3.918   6.350   0.948  0.2516  0.2881 -0.4038
   27MOL   C24825260   4.010   6.381   1.049  0.2004  1.0107 -0.5248
   27MOL   C24925261   3.976   6.461   1.161 -0.5935 -0.2709 -0.0772
   27MOL   C25025262   4.083   6.486   1.271 -0.3488  0.3267 -0.1533
   27MOL   N25125263   4.203   6.393   1.274 -0.1125  0.3417  0.1534
   27MOL   C25225264   4.304   6.395   1.360 -0.0818  0.3449  0.3586
   27MOL   O25325265   4.410   6.334   1.340  0.4131 -0.0067  0.4061
   27MOL   C25425266   4.283   6.480   1.483  0.1636  0.5767  0.8782
   27MOL   C25525267   4.402   6.504   1.576  0.1634  0.0766  0.4514
   27MOL   C25625268   4.381   6.615   1.682 -0.0724  0.6113  0.7077
   27MOL   C25725269   4.489   6.645   1.787 -0.2709 -0.0354  0.5892
   27MOL   C25825270   4.508   6.524   1.882  0.0064 -0.3706  0.6157
   27MOL   C25925271   4.593   6.560   2.009  0.3221  0.0517 -0.2425
   27MOL   C26025272   4.745   6.534   1.992 -0.2550 -0.3371  0.5977
   27MOL   C26125273   4.800   6.393   1.966  0.3407  0.5146  0.3719
   27MOL   C26225274   4.950   6.386   1.966 -0.0506  0.3001  0.6856
   27MOL   O26325275   5.016   6.488   1.967 -0.6480  0.0040  0.2288
   27MOL   H26425276   3.647   6.691   1.179  1.7886 -1.6238 -1.0327
   27MOL   H26525277   3.856   6.695   1.302 -3.3758  1.9284  0.3707
   27MOL   H26625278   3.807   6.550   1.381 -1.4063 -1.8050 -1.0229
   27MOL   H26725279   3.655   6.518   1.067  0.0908  1.2519  2.1294
   27MOL   H26825280   3.714   6.382   0.886 -1.0714  1.5707  1.6016
   27MOL   H26925281   3.954   6.310   0.854 -1.8314 -0.1880 -1.0399
   27MOL   H27025282   4.114   6.358   1.027  0.1787  1.1320 -0.7452
   27MOL   H27125283   4.040   6.468   1.370  0.6985  0.6055  0.3606
   27MOL   H27225284   4.112   6.590   1.259 -0.2902  0.4756  1.1948
   27MOL   H27325285   4.220   6.330   1.198 -3.0172 -2.2148  1.5298
   27MOL   H27425286   4.206   6.426   1.540  1.2785 -1.6340  0.3516
   27MOL   H27525287   4.249   6.579   1.453  0.3238  0.6031  0.7892
   27MOL   H27625288   4.489   6.518   1.512  0.9152  0.1395  1.4668
   27MOL   H27725289   4.431   6.414   1.630  1.7937 -0.2249 -0.8605
   27MOL   H27825290   4.286   6.592   1.730 -0.4412  0.4135 -0.1081
   27MOL   H27925291   4.364   6.706   1.624  0.7811  0.5589  0.3586
   27MOL   H28025292   4.582   6.674   1.737  0.1516 -0.5207  1.0941
   27MOL   H28125293   4.462   6.725   1.855  1.3601  0.7882  0.2962
   27MOL   H28225294   4.412   6.483   1.913 -0.3690 -0.0870 -0.1426
   27MOL   H28325295   4.547   6.439   1.826  1.3341 -1.0351  2.4993
   27MOL   H28425296   4.553   6.491   2.084  1.2165  1.2485  1.3882
   27MOL   H28525297   4.566   6.662   2.037  0.0831 -0.3586  1.0578
   27MOL   H28625298   4.790   6.600   1.918 -0.0571 -0.6116  0.4700
   27MOL   H28725299   4.786   6.571   2.086  0.6473 -0.2365  0.1673
   27MOL   H28825300   4.759   6.341   2.053  1.9761  0.4149  1.0942
   27MOL   H28925301   4.773   6.353   1.868  1.1981 -1.6463  0.9896
   27MOL   N29025302   5.002   6.264   1.968 -0.1792 -0.2505 -0.3317
   27MOL   C29125303   5.148   6.235   2.002  0.0166 -0.0507  0.4398
   27MOL   C29225304   5.169   6.092   2.016  0.2666 -0.2547  0.0820
   27MOL   C29325305   5.176   6.043   2.148  0.0400 -0.4291 -0.4366
   27MOL   C29425306   5.186   5.908   2.183  0.1203 -0.7720  1.2865
   27MOL   C29525307   5.190   5.814   2.076  0.6690 -0.2585  0.2894
   27MOL   C29625308   5.174   5.854   1.946 -0.4213 -0.7352  0.9006
   27MOL   C29725309   5.167   5.996   1.914  0.7121  0.0163  1.2827
   27MOL   C29825310   5.149   6.035   1.770 -0.0549 -0.3340 -0.1796
   27MOL   N29925311   5.013   6.017   1.721  0.5575 -0.5055 -0.0124
   27MOL   C30025312   4.979   5.983   1.598 -0.6273  0.3400  0.7292
   27MOL   O30125313   5.056   5.999   1.503 -0.1246  0.1446 -0.2331
   27MOL   C30225314   4.854   5.893   1.587  0.0906 -1.0855  0.0251
   27MOL   C30325315   4.756   5.935   1.481  0.2634 -0.1899  0.2538
   27MOL   C30425316   4.689   6.075   1.497 -0.0428 -0.0616  0.0754
   27MOL   C30525317   4.562   6.085   1.588  0.8568  0.4320 -0.4208
   27MOL   C30625318   4.591   6.107   1.741  0.2831 -1.3399 -0.2917
   27MOL   C30725319   4.462   6.123   1.828  0.3081 -0.5452  0.5687
   27MOL   C30825320   4.490   6.173   1.973 -0.2067 -0.2826 -0.4392
   27MOL   C30925321   4.374   6.233   2.059 -0.5521 -0.0336 -0.6360
   27MOL   C31025322   4.275   6.122   2.110 -0.2367 -0.8570 -0.7122
   27MOL   O31125323   4.305   6.005   2.096  0.1074 -0.3568  0.1718
   27MOL   H31225324   4.932   6.193   1.980 -1.1374  0.5611 -1.0503
   27MOL   H31325325   5.208   6.270   1.919  1.2986 -0.1390  1.3260
   27MOL   H31425326   5.182   6.277   2.097  0.2057  0.0346  0.3344
   27MOL   H31525327   5.182   6.108   2.233  0.5277  1.8117 -2.1440
   27MOL   H31625328   5.190   5.876   2.286  1.3685  0.9138  1.7788
   27MOL   H31725329   5.198   5.707   2.085 -0.1779 -0.4915 -1.5641
   27MOL   H31825330   5.175   5.791   1.858 -1.0091  0.5613 -0.0658
   27MOL   H31925331   5.210   5.976   1.702  0.1950  2.3665 -2.4126
   27MOL   H32025332   5.178   6.139   1.753  0.4070 -0.3217  0.6862
   27MOL   H32125333   4.941   6.002   1.790  2.2722 -2.0537  1.4993
   27MOL   H32225334   4.902   5.799   1.559  2.4878 -0.3304  1.4543
   27MOL   H32325335   4.801   5.884   1.682  0.3183  0.3343  0.2906
   27MOL   H32425336   4.684   5.854   1.469  0.9463 -0.8058  0.2945
   27MOL   H32525337   4.811   5.949   1.387 -0.4744  1.0996  0.0124
   27MOL   H32625338   4.653   6.098   1.397 -0.0022 -0.0230  0.0703
   27MOL   H32725339   4.764   6.142   1.539 -0.4487 -0.9678  2.3639
   27MOL   H32825340   4.510   6.176   1.555 -0.6180 -1.3726 -3.2945
   27MOL   H32925341   4.493   6.001   1.580 -1.4297  2.0344  1.7550
   27MOL   H33025342   4.648   6.021   1.775  0.8461 -0.3609  1.2770
   27MOL   H33125343   4.657   6.190   1.765 -2.4305  0.3100  1.6971
   27MOL   H33225344   4.420   6.024   1.841  0.8280 -1.0567 -1.4164
   27MOL   H33325345   4.385   6.185   1.782  2.2749  0.8282 -0.9872
   27MOL   H33425346   4.550   6.097   2.024  3.4071  2.2774 -0.7150
   27MOL   H33525347   4.573   6.244   1.975 -0.3619 -0.0961 -0.6608
   27MOL   H33625348   4.402   6.307   2.134  1.1512  0.9333 -2.2089
   27MOL   H33725349   4.317   6.298   1.991  0.0785  0.4777 -0.6783
   27MOL   N33825350   4.160   6.168   2.163 -0.9637  0.2066 -0.1819
   27MOL   C33925351   4.079   6.082   2.241  0.1076  0.3246 -0.6387
   27MOL   C34025352   3.935   6.104   2.211  0.4073 -0.6575  0.5312
   27MOL   C34125353   3.888   6.098   2.075 -0.1520  1.1490  0.3122
   27MOL   C34225354   3.760   6.129   2.035  0.0393 -0.4635 -0.2275
   27MOL   C34325355   3.665   6.160   2.132  0.4024  0.2267  0.2628
   27MOL   C34425356   3.706   6.167   2.269  0.0248  0.1963 -0.5208
   27MOL   C34525357   3.839   6.139   2.310 -0.4361 -0.1938  0.0814
   27MOL   C34625358   3.872   6.152   2.458 -0.3083  0.1064  0.5270
   27MOL   N34725359   3.970   6.254   2.475 -0.2602  0.1615  0.3204
   27MOL   C34825360   4.045   6.277   2.583 -0.4237  0.3432  0.1514
   27MOL   O34925361   4.024   6.218   2.693  0.4075 -0.0468 -0.0608
   27MOL   C35025362   4.162   6.376   2.556  0.9646  0.0828  0.3947
   27MOL   C35125363   4.296   6.314   2.594  0.4650 -0.1619  0.7257
   27MOL   C35225364   4.341   6.180   2.523 -0.1760 -0.2451  0.9374
   27MOL   C35325365   4.438   6.088   2.605 -0.3178  0.7072 -0.2319
   27MOL   C35425366   4.509   5.980   2.518  0.1204 -0.0931 -0.3321
   27MOL   C35525367   4.621   6.044   2.441 -0.1297 -0.5788  0.3707
   27MOL   C35625368   4.664   5.968   2.323  0.1770 -0.0728  0.0982
   27MOL   C35725369   4.791   6.011   2.252 -0.5569 -0.3868  0.2455
   27MOL   C35825370   4.801   5.961   2.107 -0.4462 -0.0537  0.0603
   27MOL   O35925371   4.826   6.030   2.012 -0.3550 -0.0514 -0.1946
   27MOL   H36025372   4.131   6.263   2.146  0.0053  0.3557 -1.0133
   27MOL   H36125373   4.098   5.979   2.211  0.7915  0.8284 -1.9820
   27MOL   H36225374   4.115   6.093   2.343 -0.8160 -2.6979  0.0471
   27MOL   H36325375   3.957   6.098   1.992  1.2594  0.7235  1.4625
   27MOL   H36425376   3.720   6.121   1.935 -0.7990 -1.1008  0.1571
   27MOL   H36525377   3.563   6.168   2.099  0.3971 -0.0619  0.2070
   27MOL   H36625378   3.643   6.186   2.355  0.5466  0.3527 -0.1731
   27MOL   H36725379   3.915   6.060   2.496 -0.1626  0.2330  0.6708
   27MOL   H36825380   3.793   6.179   2.528  1.0803  0.0138  2.1685
   27MOL   H36925381   3.962   6.320   2.399 -2.8771 -0.7614 -0.2629
   27MOL   H37025382   4.146   6.470   2.608  0.5310  0.9521 -1.2940
   27MOL   H37125383   4.153   6.403   2.451  1.9316 -0.2669  0.2129
   27MOL   H37225384   4.274   6.282   2.696 -1.2566  0.0738  0.4422
   27MOL   H37325385   4.376   6.388   2.599 -0.0493  0.3471  1.7309
   27MOL   H37425386   4.261   6.118   2.483 -0.1746  0.7800 -0.7205
   27MOL   H37525387   4.384   6.212   2.428  2.7534 -2.7246  1.3496
   27MOL   H37625388   4.387   6.031   2.683 -1.2067  3.1989  1.0533
   27MOL   H37725389   4.508   6.149   2.662 -1.7889 -1.2681  3.9195
   27MOL   H37825390   4.548   5.899   2.581  3.3381  1.3317 -0.3588
   27MOL   H37925391   4.435   5.931   2.455  0.9554 -1.5300 -0.2379
   27MOL   H38025392   4.709   6.049   2.505 -1.6705 -0.0258  2.4890
   27MOL   H38125393   4.598   6.144   2.406 -0.1638 -0.3638  0.9950
   27MOL   H38225394   4.660   5.860   2.338 -1.7952  0.1125  1.0505
   27MOL   H38325395   4.584   5.972   2.248  0.0031 -2.1970  0.1425
   27MOL   H38425396   4.877   5.985   2.314 -1.0935  0.1127  1.2109
   27MOL   H38525397   4.792   6.119   2.241  2.7511 -0.5621 -1.7405
   27MOL   N38625398   4.777   5.831   2.101  0.0826 -0.3270 -0.5628
   27MOL   C38725399   4.755   5.760   1.977  0.0307  0.6804 -0.2646
   27MOL   C38825400   4.647   5.649   1.986 -0.3706 -0.1234 -0.4084
   27MOL   C38925401   4.588   5.623   2.110 -0.1129  0.9199  0.7424
   27MOL   C39025402   4.484   5.524   2.114  0.5484 -0.8219  0.2213
   27MOL   C39125403   4.451   5.448   2.004  0.0535 -0.5674  0.4502
   27MOL   C39225404   4.501   5.482   1.880 -0.5237  0.6336  0.2747
   27MOL   C39325405   4.603   5.578   1.872  0.4339 -0.1829  0.6355
   27MOL   C39425406   4.661   5.608   1.732  0.2893 -0.0730 -0.2575
   27MOL   N39525407   4.640   5.510   1.630  0.4879  0.6590 -0.2573
   27MOL   C39625408   4.716   5.405   1.596 -0.4603  0.3183  0.3376
   27MOL   O39725409   4.807   5.352   1.667 -0.1724 -0.4542  0.2132
   27MOL   C39825410   4.697   5.352   1.451  0.3062 -0.2779  0.0707
   27MOL   C39925411   4.670   5.206   1.440  0.7229 -1.1947 -0.6061
   27MOL   C40025412   4.535   5.170   1.505 -0.4171  0.6008 -0.2302
   27MOL   C40125413   4.495   5.028   1.485  0.2684  0.0194  0.3923
   27MOL   C40225414   4.358   4.988   1.555 -0.4257 -0.0100 -0.0824
   27MOL   C40325415   4.312   4.861   1.494  1.0480  1.0209  0.0005
   27MOL   C40425416   4.179   4.823   1.560 -0.3049  0.0509 -0.1077
   27MOL   C40525417   4.103   4.707   1.494  0.5290  0.1456  0.0554
   27MOL   C40625418   4.189   4.576   1.477 -0.0367 -0.2528  0.1705
   27MOL   O40725419   4.277   4.551   1.558  0.4504  0.4484  0.0158
   27MOL   H40825420   4.769   5.775   2.184 -0.9875  0.8725  0.1661
   27MOL   H40925421   4.721   5.827   1.898 -0.0261 -0.4917 -1.2532
   27MOL   H41025422   4.846   5.711   1.942  2.1638  3.0834  1.7201
   27MOL   H41125423   4.600   5.688   2.195  0.9838  1.9124 -0.1527
   27MOL   H41225424   4.425   5.502   2.202 -1.0261 -0.1907 -0.6581
   27MOL   H41325425   4.365   5.384   2.017  1.0702 -1.8277  1.0908
   27MOL   H41425426   4.449   5.430   1.801  0.9153  0.8989 -0.8961
   27MOL   H41525427   4.767   5.631   1.734  0.1190  0.7382 -0.2029
   27MOL   H41625428   4.605   5.698   1.707  1.4149  1.1857  1.6244
   27MOL   H41725429   4.553   5.526   1.580 -0.5139  1.2296  1.5965
   27MOL   H41825430   4.619   5.416   1.410 -1.0118 -1.7387  0.2736
   27MOL   H41925431   4.788   5.373   1.394 -0.3887  1.3758 -0.4608
   27MOL   H42025432   4.740   5.140   1.492  0.6177 -1.5751 -0.9435
   27MOL   H42125433   4.672   5.169   1.338  0.4457 -1.6329 -0.4493
   27MOL   H42225434   4.451   5.236   1.482 -0.1388  0.8109 -0.6617
   27MOL   H42325435   4.550   5.186   1.611 -0.9107 -0.6556  0.0402
   27MOL   H42425436   4.479   5.023   1.377  1.4296 -0.4153  0.2326
   27MOL   H42525437   4.570   4.956   1.520 -0.8928 -0.6366  1.5885
   27MOL   H42625438   4.364   4.985   1.664  1.0247  0.0530 -0.1497
   27MOL   H42725439   4.281   5.058   1.524  1.4890  2.1405 -0.1673
   27MOL   H42825440   4.381   4.778   1.505 -0.4666 -0.4335 -1.3477
   27MOL   H42925441   4.302   4.878   1.386 -0.9841 -1.5686 -0.2661
   27MOL   H43025442   4.104   4.901   1.573  0.6311  1.0007 -0.3052
   27MOL   H43125443   4.211   4.784   1.657  0.4101 -2.8594 -1.4547
   27MOL   H43225444   4.075   4.739   1.394  1.7349 -1.9773 -1.0148
   27MOL   H43325445   4.014   4.671   1.545  0.1229  0.2141 -0.6091
   27MOL   N43425446   4.169   4.493   1.374 -0.5822 -0.5181  0.0597
   27MOL   C43525447   4.240   4.375   1.332  0.0943 -0.0583 -0.7314
   27MOL   C43625448   4.283   4.358   1.189  0.2985 -0.4924  0.0488
   27MOL   C43725449   4.259   4.467   1.099 -0.4423 -0.3725  0.1044
   27MOL   C43825450   4.279   4.454   0.964  0.2816  0.0688 -0.2326
   27MOL   C43925451   4.345   4.337   0.922  0.6440  0.1977 -0.4117
   27MOL   C44025452   4.371   4.230   1.001 -0.5623 -0.1331 -0.3787
   27MOL   C44125453   4.328   4.233   1.137  0.4659 -0.2799  0.2740
   27MOL   C44225454   4.344   4.111   1.224 -0.3033 -0.4720  0.2310
   27MOL   N44325455   4.482   4.077   1.235  0.0246 -0.3085 -0.4034
   27MOL   C44425456   4.537   3.952   1.236 -0.7334  0.7387  0.2286
   27MOL   O44525457   4.473   3.849   1.263  0.1022  0.4937 -0.2315
   27MOL   C44625458   4.681   3.937   1.234  0.1120 -0.2203  0.3494
   27MOL   C44725459   4.730   3.913   1.088 -0.7223 -0.1324 -0.7907
   27MOL   C44825460   4.885   3.933   1.069 -0.2018  0.0916  0.0344
   27MOL   C44925461   4.963   3.863   1.176  0.0273 -0.4060  0.3781
   27MOL   C45025462   4.965   3.710   1.176  0.0612  0.4062 -0.3140
   27MOL   C45125463   5.090   3.657   1.253  0.6184 -0.4624 -0.1615
   27MOL   C45225464   5.094   3.503   1.264 -0.3308  0.0821 -0.1244
   27MOL   C45325465   5.211   3.447   1.352  0.4798 -0.7761 -0.2750
   27MOL   C45425466   5.219   3.486   1.505  0.1235 -0.2347  1.2255
   27MOL   O45525467   5.237   3.603   1.540  0.4214  0.5147  0.1586
   27MOL   H45625468   4.086   4.511   1.318 -0.4004  0.4790  0.0953
   27MOL   H45725469   4.174   4.294   1.364  0.0810 -0.0563 -0.7526
   27MOL   H45825470   4.330   4.369   1.393 -1.8454 -2.4746  2.0863
   27MOL   H45925471   4.227   4.561   1.140 -2.4746 -1.1490  0.3214
   27MOL   H46025472   4.275   4.535   0.893  1.1377  0.1196 -0.2326
   27MOL   H46125473   4.376   4.335   0.818  1.8882  0.5370 -0.0599
   27MOL   H46225474   4.409   4.137   0.961 -1.4098 -1.1729  1.1888
   27MOL   H46325475   4.283   4.027   1.193 -2.7206  0.6593  1.7690
   27MOL   H46425476   4.308   4.134   1.325  1.7006 -3.9459  1.8180
   27MOL   H46525477   4.556   4.146   1.239  1.7203 -2.1521  0.5149
   27MOL   H46625478   4.710   3.848   1.290  1.3104  0.3366  0.6295
   27MOL   H46725479   4.721   4.025   1.283 -0.2461 -0.2811  0.7517
   27MOL   H46825480   4.688   3.983   1.015  1.0147  1.3406 -0.4060
   27MOL   H46925481   4.706   3.810   1.061  2.9266 -1.3694  0.3832
   27MOL   H47025482   4.918   3.898   0.971 -0.1458  1.2501 -0.3603
   27MOL   H47125483   4.897   4.041   1.072 -2.5880  0.3868  0.0118
   27MOL   H47225484   5.059   3.902   1.142 -0.8643  0.3536 -1.3378
   27MOL   H47325485   4.935   3.904   1.273  1.4702  0.5815  0.3953
   27MOL   H47425486   4.877   3.670   1.227  0.1877  1.2252  0.5449
   27MOL   H47525487   4.964   3.677   1.071  0.4882 -1.4443  0.2378
   27MOL   H47625488   5.087   3.706   1.351  0.8774  2.5963 -1.6142
   27MOL   H47725489   5.172   3.706   1.200  1.0540  0.7837  1.6178
   27MOL   H47825490   4.998   3.468   1.302 -0.1548  0.0887  0.3386
   27MOL   H47925491   5.098   3.462   1.163 -0.1306 -1.4636  0.4939
   27MOL   H48025492   5.204   3.338   1.351  0.1656 -0.7785  1.5404
   27MOL   H48125493   5.304   3.480   1.306 -1.1819  1.7546 -1.9523
   27MOL   N48225494   5.219   3.378   1.590  0.2434  0.1266  0.4599
   27MOL   C48325495   5.255   3.388   1.729  0.5532  0.7233 -0.2093
   27MOL   C48425496   5.140   3.360   1.823  0.2890 -0.1149  0.4680
   27MOL   C48525497   5.125   3.232   1.869 -0.2369 -0.8005  0.3051
   27MOL   C48625498   5.019   3.192   1.949 -0.0729  0.8170  1.2383
   27MOL   C48725499   4.926   3.285   1.985 -0.0705  0.4552 -0.7478
   27MOL   C48825500   4.933   3.418   1.940  0.2193  0.1439  0.6432
   27MOL   C48925501   5.043   3.458   1.860 -0.1449  0.0556 -0.0032
   27MOL   C49025502   5.065   3.602   1.827 -0.2337  0.2385 -0.2649
   27MOL   N49125503   5.174   3.675   1.894 -0.3059 -0.2953 -0.6988
   27MOL   C49225504   5.201   3.806   1.879  0.0626 -0.4288 -0.5026
   27MOL   O49325505   5.119   3.883   1.827 -0.7653 -0.0560 -0.4881
   27MOL   C49425506   5.342   3.849   1.922 -0.4511 -0.1242  0.0255
   27MOL   C49525507   5.383   3.990   1.886 -0.1406 -0.3758  0.1293
   27MOL   C49625508   5.502   4.031   1.966  0.0762 -0.0990  0.4022
   27MOL   C49725509   5.540   4.175   1.938 -0.9162 -0.3232 -0.7038
   27MOL   C49825510   5.585   4.209   1.793  0.9946 -0.3245 -0.1377
   27MOL   C49925511   5.547   4.348   1.748 -0.6347  0.0298  0.8787
   27MOL   C50025512   5.638   4.462   1.792 -0.6717 -0.5766 -0.4736
   27MOL   C50125513   5.578   4.603   1.766  0.1247  0.0036 -0.3942
   27MOL   C50225514   5.683   4.714   1.802 -0.1528 -0.0191  0.3538
   27MOL   O50325515   5.786   4.718   1.736 -0.2013  0.0438  0.3632
   27MOL   H50425516   5.220   3.283   1.557 -1.6315  0.5151 -0.7995
   27MOL   H50525517   5.341   3.325   1.752  0.1560 -0.5822 -2.2179
   27MOL   H50625518   5.305   3.483   1.751  0.8266  0.7778 -1.0652
   27MOL   H50725519   5.190   3.151   1.839 -0.1164  0.2961 -2.5323
   27MOL   H50825520   5.003   3.089   1.975  0.3624  0.5663  0.5552
   27MOL   H50925521   4.842   3.241   2.038  0.9045 -0.7197 -0.1603
   27MOL   H51025522   4.858   3.488   1.974 -0.7763 -0.9713  0.7509
   27MOL   H51125523   4.972   3.659   1.838  0.5749  1.7680 -1.1856
   27MOL   H51225524   5.068   3.627   1.721  1.7051  1.3276  0.0312
   27MOL   H51325525   5.239   3.624   1.954  0.1399 -0.5068 -1.3579
   27MOL   H51425526   5.416   3.783   1.878 -1.5193 -1.1352 -0.2784
   27MOL   H51525527   5.364   3.848   2.029  1.4212 -1.4472 -0.3658
   27MOL   H51625528   5.304   4.063   1.903  0.1321  0.2103 -1.0783
   27MOL   H51725529   5.397   3.991   1.778  2.2707 -0.0407  0.4060
   27MOL   H51825530   5.485   4.015   2.073  1.9314 -2.0412  0.4384
   27MOL   H51925531   5.585   3.965   1.939 -0.3856 -0.8797  0.8666
   27MOL   H52025532   5.445   4.225   1.958 -0.9576 -0.8887  0.5229
   27MOL   H52125533   5.607   4.201   2.020 -1.3085 -0.5527 -0.3059
   27MOL   H52225534   5.688   4.215   1.760  0.9796 -1.7879 -0.4824
   27MOL   H52325535   5.533   4.142   1.723 -0.7752  0.8785 -0.0099
   27MOL   H52425536   5.453   4.372   1.797 -2.3186 -0.4040 -2.0166
   27MOL   H52525537   5.542   4.357   1.639 -0.4315  0.8487  0.9340
   27MOL   H52625538   5.658   4.459   1.899 -1.5687 -0.8925 -0.3100
   27MOL   H52725539   5.733   4.444   1.741 -0.6547 -1.1856 -0.2387
   27MOL   H52825540   5.482   4.621   1.815  0.4368  0.8438 -0.0804
   27MOL   H52925541   5.561   4.602   1.659  1.2359 -0.1651 -0.5739
   27MOL   N53025542   5.648   4.789   1.906 -0.2436 -0.0944 -0.1003
   27MOL   C53125543   5.742   4.875   1.991  0.6904 -0.6240  0.0542
   27MOL   C53225544   5.698   5.021   1.997  0.7492 -0.3085  0.1553
   27MOL   C53325545   5.767   5.109   1.909  0.3575  0.9864 -0.8410
   27MOL   C53425546   5.752   5.253   1.922 -1.4183 -0.6093  0.3050
   27MOL   C53525547   5.666   5.299   2.025 -0.2409 -0.8687  0.8907
   27MOL   C53625548   5.585   5.213   2.099  0.2720  0.1671 -0.2814
   27MOL   C53725549   5.601   5.076   2.086  0.4123  0.1002 -0.5373
   27MOL   C53825550   5.516   4.981   2.169  0.4794 -0.3875  0.2687
   27MOL   N53925551   5.405   4.928   2.088 -0.5016 -0.1292  0.1977
   27MOL   C54025552   5.368   4.804   2.078  0.6952 -0.3858  0.6318
   27MOL   O54125553   5.443   4.711   2.101  0.6430  0.3756  0.2907
   27MOL   C54225554   5.234   4.775   2.022  0.3336 -0.2085  0.3809
   27MOL   C54325555   5.155   4.682   2.113 -0.1177 -0.5565 -0.0759
   27MOL   C54425556   5.015   4.650   2.060  0.3704  0.4095 -0.0654
   27MOL   C54525557   4.947   4.550   2.145  0.5840 -0.1044 -0.0807
   27MOL   C54625558   4.819   4.501   2.085 -0.0322  0.2131 -0.7302
   27MOL   C54725559   4.747   4.409   2.183 -0.0445  0.3673  0.1060
   27MOL   C54825560   4.693   4.483   2.316  0.6384  0.3419 -0.3137
   27MOL   C54925561   4.606   4.393   2.407  0.4765 -0.2623 -0.5014
   27MOL   C55025562   4.473   4.351   2.336  0.0388 -0.6316  0.6624
   27MOL   O55125563   4.441   4.234   2.346  0.1498 -0.1061 -0.7585
   27MOL   H55225564   5.559   4.765   1.946 -0.7988  0.1571 -1.2000
   27MOL   H55325565   5.846   4.872   1.960  1.1597 -0.3999  1.5756
   27MOL   H55425566   5.741   4.846   2.096  1.6637  0.7354  0.4396
   27MOL   H55525567   5.831   5.067   1.832  1.4663  2.6480 -0.8543
   27MOL   H55625568   5.808   5.326   1.866 -3.3401  0.7501  0.1376
   27MOL   H55725569   5.646   5.404   2.037 -0.9491 -0.9926  0.8435
   27MOL   H55825570   5.520   5.259   2.173  0.0360  1.9760 -1.5707
   27MOL   H55925571   5.474   5.043   2.249 -1.1122  0.4631 -1.2119
   27MOL   H56025572   5.572   4.902   2.219  3.1114  0.4234 -1.2993
   27MOL   H56125573   5.332   4.994   2.065 -1.2775 -1.1410 -0.3057
   27MOL   H56225574   5.257   4.718   1.932  0.1214 -2.1842  1.5502
   27MOL   H56325575   5.178   4.863   1.992 -0.1363  0.1272  2.1940
   27MOL   H56425576   5.131   4.732   2.207 -1.7021  1.4674 -1.5149
   27MOL   H56525577   5.217   4.594   2.123 -1.3334 -1.4747 -0.5145
   27MOL   H56625578   4.961   4.744   2.046  2.3662  1.1891 -2.8450
   27MOL   H56725579   5.034   4.613   1.959  1.6940  1.3938 -0.1995
   27MOL   H56825580   5.002   4.458   2.164 -1.1529 -1.1065  0.1530
   27MOL   H56925581   4.943   4.605   2.239  1.1619  1.3588 -0.8969
   27MOL   H57025582   4.753   4.585   2.064  0.1603  0.2088 -1.3525
   27MOL   H57125583   4.842   4.461   1.987 -1.4299  1.0836 -1.4352
   27MOL   H57225584   4.800   4.316   2.200 -0.6475  0.2148  1.1873
   27MOL   H57325585   4.666   4.375   2.118 -0.0426  1.2681 -0.3853
   27MOL   H57425586   4.780   4.510   2.375  0.1884  2.8581 -0.7478
   27MOL   H57525587   4.635   4.573   2.295 -1.3425 -0.5177  1.3671
   27MOL   H57625588   4.579   4.444   2.500 -0.6064 -0.6754 -0.5776
   27MOL   H57725589   4.656   4.301   2.437  0.6077 -0.7798 -2.2611
   27MOL   N57825590   4.398   4.445   2.276  0.7409 -0.8454 -0.3270
   27MOL   C57925591   4.259   4.428   2.242  0.3119  0.0129 -0.1261
   27MOL   C58025592   4.220   4.499   2.117  0.2090 -0.5606 -0.0434
   27MOL   C58125593   4.145   4.611   2.142  0.7490  0.5978 -0.4644
   27MOL   C58225594   4.100   4.689   2.035 -0.0289  0.2076  0.4647
   27MOL   C58325595   4.146   4.664   1.902 -0.1205  0.1663 -0.1951
   27MOL   C58425596   4.224   4.548   1.878  0.0304  0.7199 -0.7125
   27MOL   C58525597   4.266   4.464   1.986  0.8335 -0.1648 -0.0509
   27MOL   C58625598   4.350   4.336   1.956 -0.0052 -0.2201  0.2657
   27MOL   N58725599   4.324   4.277   1.830  0.3150 -0.1831 -0.1539
   27MOL   C58825600   4.308   4.152   1.794  0.3652  0.4224  0.6398
   27MOL   O58925601   4.344   4.055   1.862  0.4862  0.8617 -0.0675
   27MOL   C59025602   4.226   4.138   1.663 -0.2418 -0.4809 -0.1830
   27MOL   C59125603   4.079   4.151   1.693  0.5012 -0.5259  0.1872
   27MOL   C59225604   3.992   4.186   1.570 -0.5801 -0.2963 -0.3480
   27MOL   C59325605   3.979   4.079   1.453 -0.6203  0.8833 -0.6611
   27MOL   C59425606   3.870   4.118   1.349 -0.0387  0.1815  0.1943
   27MOL   C59525607   3.908   4.231   1.253 -0.0668 -0.1665  0.1397
   27MOL   C59625608   3.801   4.273   1.149 -0.1852  0.1643 -0.2685
   27MOL   C59725609   3.852   4.374   1.044 -0.6132  0.6662  0.2638
   27MOL   C59825610   3.896   4.513   1.099  0.4138  0.3100 -0.3176
   27MOL   O59925611   3.907   4.529   1.217 -0.1249  0.8830 -0.3964
   27MOL   H60025612   4.432   4.540   2.281  1.4581 -1.0789 -0.6056
   27MOL   H60125613   4.205   4.469   2.327 -0.5971 -1.3708 -0.0315
   27MOL   H60225614   4.230   4.323   2.237  3.0653 -0.7852 -0.7681
   27MOL   H60325615   4.109   4.633   2.242  0.5660 -0.9522 -0.1714
   27MOL   H60425616   4.030   4.769   2.053  0.2630  0.4185  0.6752
   27MOL   H60525617   4.114   4.725   1.819  0.2100 -0.4921 -0.8093
   27MOL   H60625618   4.248   4.530   1.774  2.3703  0.8647 -0.2259
   27MOL   H60725619   4.328   4.253   2.024 -0.2393 -0.0081  0.4483
   27MOL   H60825620   4.456   4.358   1.965 -0.5765  2.1137  1.8257
   27MOL   H60925621   4.318   4.351   1.762 -2.5769  1.4209  1.7398
   27MOL   H61025622   4.230   4.047   1.603  1.6626 -0.1859 -0.5323
   27MOL   H61125623   4.256   4.226   1.606  1.5692 -0.5174  0.6527
   27MOL   H61225624   4.056   4.230   1.764  0.6988 -0.6716  0.4113
   27MOL   H61325625   4.040   4.058   1.734 -1.0471 -0.5755 -1.3210
   27MOL   H61425626   3.890   4.199   1.608 -1.3849 -1.6915 -1.9349
   27MOL   H61525627   4.022   4.281   1.526  1.1379 -0.3781  0.6303
   27MOL   H61625628   4.074   4.044   1.412  0.7218  1.3993  1.8760
   27MOL   H61725629   3.951   3.985   1.501 -0.6782 -0.7547 -3.7507
   27MOL   H61825630   3.856   4.025   1.294 -0.3205 -0.3911  1.2256
   27MOL   H61925631   3.779   4.147   1.401  1.0605  0.9828  1.7103
   27MOL   H62025632   3.993   4.198   1.192 -0.9728 -1.3113 -0.5194
   27MOL   H62125633   3.946   4.318   1.307 -1.5855  0.6269 -0.0324
   27MOL   H62225634   3.770   4.182   1.096 -1.6924 -0.6001  1.8478
   27MOL   H62325635   3.708   4.307   1.196 -0.2005  1.2072 -1.0444
   27MOL   H62425636   3.948   4.335   1.010 -0.8127  0.0712  0.3858
   27MOL   H62525637   3.786   4.377   0.957 -0.7492 -0.7008  0.3167
   27MOL   N62625638   3.917   4.613   1.013  1.0447  0.3975  0.3671
   27MOL   C62725639   3.945   4.751   1.057 -0.2678  0.5650 -0.3755
   27MOL   C62825640   3.898   4.852   0.950  0.2724  0.7237  0.2108
   27MOL   C62925641   3.799   4.936   0.999 -0.1655 -0.1314  0.4414
   27MOL   C63025642   3.762   5.050   0.929  0.0268 -0.0323  0.1674
   27MOL   C63125643   3.829   5.086   0.807 -0.0648  0.1865 -0.1768
   27MOL   C63225644   3.928   4.996   0.756 -1.0751  0.5246 -0.0187
   27MOL   C63325645   3.964   4.877   0.827  0.3367  0.4091 -0.3515
   27MOL   C63425646   4.075   4.788   0.768  0.1488 -0.0698 -0.6811
   27MOL   N63525647   4.049   4.715   0.645  0.6048 -1.0278  0.0322
   27MOL   C63625648   3.981   4.598   0.651  0.3055  0.0702  0.1383
   27MOL   O63725649   3.920   4.555   0.746  0.1993 -0.1100 -0.6147
   27MOL   C63825650   3.986   4.513   0.525  0.2562 -0.2928  0.2738
   27MOL   C63925651   4.090   4.402   0.535 -0.1160  0.2431 -0.2827
   27MOL   C64025652   4.032   4.286   0.607  0.8579 -0.2243  0.1162
   27MOL   C64125653   4.117   4.157   0.604  0.3309 -0.9786  0.3675
   27MOL   C64225654   4.062   4.042   0.691 -0.0808 -0.6409  0.4499
   27MOL   C64325655   4.152   3.918   0.693 -0.1512 -0.5437 -0.5275
   27MOL   C64425656   4.235   3.902   0.822 -0.2856 -0.4940  0.4345
   27MOL   C64525657   4.326   3.773   0.830  0.9939 -0.4331  0.2024
   27MOL   C64625658   4.460   3.796   0.752 -0.1604  0.0108 -0.2113
   27MOL   O64725659   4.537   3.868   0.803  0.0063  0.0617  0.8116
   27MOL   H64825660   3.914   4.594   0.914  0.7464 -2.8910  0.9273
   27MOL   H64925661   4.054   4.753   1.059 -0.2256 -1.6398  0.7633
   27MOL   H65025662   3.895   4.759   1.154 -0.5852 -1.3847 -0.3627
   27MOL   H65125663   3.751   4.923   1.095 -1.8227 -2.3175 -0.6246
   27MOL   H65225664   3.696   5.122   0.975 -0.7873 -1.9863  2.1581
   27MOL   H65325665   3.800   5.178   0.758 -2.9690  0.8491  2.6047
   27MOL   H65425666   3.980   5.024   0.666 -0.4798  0.5751  0.3364
   27MOL   H65525667   4.115   4.720   0.843  1.6236  1.3540 -0.1521
   27MOL   H65625668   4.158   4.857   0.753  0.8714 -1.1405 -1.7127
   27MOL   H65725669   4.103   4.730   0.561  0.6677 -0.8751  0.1003
   27MOL   H65825670   4.001   4.572   0.435 -0.4689  0.0296  0.3657
   27MOL   H65925671   3.887   4.468   0.515  0.6035 -1.3281  1.3529
   27MOL   H66025672   4.173   4.431   0.598  2.7417 -3.0304 -2.3559
   27MOL   H66125673   4.127   4.370   0.437 -1.0208 -0.2996 -0.4586
   27MOL   H66225674   4.028   4.319   0.711 -0.4489  2.8379 -0.8619
   27MOL   H66325675   3.929   4.260   0.586  2.0862 -3.5339 -2.2807
   27MOL   H66425676   4.129   4.128   0.500 -1.5461 -2.7103  0.6129
   27MOL   H66525677   4.219   4.181   0.634 -0.4491  0.3171  2.1127
   27MOL   H66625678   4.045   4.081   0.791  1.9962  2.3583 -0.2999
   27MOL   H66725679   3.961   4.022   0.656 -0.0798  0.4851 -0.2397
   27MOL   H66825680   4.215   3.902   0.606  1.8401 -1.4920  1.0520
   27MOL   H66925681   4.087   3.832   0.677  1.5626 -1.9037 -0.2662
   27MOL   H67025682   4.296   3.991   0.808 -1.0389 -0.1839 -0.9047
   27MOL   H67125683   4.167   3.917   0.906 -0.2421  1.0629  0.2061
   27MOL   H67225684   4.264   3.688   0.801  0.3640  0.0643  0.0856
   27MOL   H67325685   4.350   3.766   0.936  2.7252 -1.2061 -0.2286
   27MOL   N67425686   4.488   3.731   0.638 -0.1592  0.8446 -0.3777
   27MOL   C67525687   4.393   3.662   0.548 -0.8388 -0.0027 -0.0819
   27MOL   C67625688   4.458   3.550   0.467 -0.5636  0.9602  0.5683
   27MOL   C67725689   4.585   3.581   0.410 -0.0146  0.2679  0.0672
   27MOL   C67825690   4.648   3.487   0.327  0.2253  0.7228  0.4064
   27MOL   C67925691   4.593   3.363   0.301  0.0191  0.3360 -0.6016
   27MOL   C68025692   4.466   3.326   0.354 -0.0413 -0.6789 -0.0292
   27MOL   C68125693   4.395   3.429   0.430 -0.0615  0.1719  0.8508
   27MOL   C68225694   4.254   3.402   0.471  0.0464 -0.0051 -0.0832
   27MOL   N68325695   4.259   3.290   0.562 -0.0721  0.4607  0.4744
   27MOL   C68425696   4.292   3.305   0.690  0.8219  0.1122 -0.6543
   27MOL   O68525697   4.316   3.411   0.745 -0.1134 -0.3941 -0.4580
   27MOL   C68625698   4.301   3.175   0.766 -0.5611 -0.0463  0.2594
   27MOL   C68725699   4.290   3.185   0.922  0.1364 -0.1782  0.7115
   27MOL   C68825700   4.285   3.046   0.996 -0.7154 -0.3773  0.7378
   27MOL   C68925701   4.156   2.975   0.988  0.3574 -0.1536  0.5357
   27MOL   C69025702   4.159   2.832   1.054 -0.0433 -0.2330  0.4933
   27MOL   C69125703   4.032   2.750   1.051  0.5011  0.0768  0.1748
   27MOL   C69225704   4.037   2.615   1.135 -0.2493  0.8853  0.4512
   27MOL   C69325705   4.135   2.502   1.081  0.7213  0.3052  0.0579
   27MOL   C69425706   4.071   2.429   0.962  0.1290  0.3297 -0.3502
   27MOL   O69525707   3.954   2.436   0.936 -0.2090  0.7107 -0.4091
   27MOL   H69625708   4.576   3.770   0.607 -1.0928  2.1375 -1.4690
   27MOL   H69725709   4.349   3.731   0.477  0.7109 -1.0002 -2.0522
   27MOL   H69825710   4.319   3.618   0.614 -0.5019 -1.2651 -0.5414
   27MOL   H69925711   4.623   3.682   0.403 -1.6999  0.9439  0.5080
   27MOL   H70025712   4.735   3.516   0.270  0.1827  1.9704  0.9619
   27MOL   H70125713   4.640   3.290   0.236 -1.2410 -0.9456 -0.0987
   27MOL   H70225714   4.417   3.237   0.320 -0.4963 -1.0533  1.5795
   27MOL   H70325715   4.198   3.358   0.389  0.4735 -1.5793  0.4538
   27MOL   H70425716   4.189   3.475   0.518 -0.0260  0.4313 -0.8603
   27MOL   H70525717   4.266   3.197   0.522 -0.2507  0.1172  1.2259
   27MOL   H70625718   4.393   3.123   0.737  0.1742  1.2700  0.1943
   27MOL   H70725719   4.216   3.114   0.736  0.0827 -1.5238  1.3827
   27MOL   H70825720   4.202   3.244   0.949  1.0998  0.6084  2.2078
   27MOL   H70925721   4.370   3.249   0.961  1.1282 -0.3686 -0.9416
   27MOL   H71025722   4.372   2.993   0.958 -0.2777  2.0814 -1.8877
   27MOL   H71125723   4.308   3.061   1.102  1.7400 -1.0901  0.3415
   27MOL   H71225724   4.081   3.041   1.031  0.8469  0.5962  0.2475
   27MOL   H71325725   4.131   2.955   0.884 -0.6554 -1.3751  1.0020
   27MOL   H71425726   4.244   2.770   1.025 -0.1726  1.0334 -2.7810
   27MOL   H71525727   4.181   2.845   1.160 -1.2215  1.5750  0.5412
   27MOL   H71625728   4.015   2.726   0.946  0.5513  0.2946  0.1167
   27MOL   H71725729   3.948   2.813   1.080  0.3019  0.7423 -1.8036
   27MOL   H71825730   3.935   2.580   1.148  1.0048 -3.3787 -0.6405
   27MOL   H71925731   4.078   2.641   1.233  2.6980 -1.4186 -0.1107
   27MOL   H72025732   4.168   2.437   1.162  2.5934  0.6376 -0.4205
   27MOL   H72125733   4.225   2.556   1.052  1.6895 -2.1827 -1.7725
   27MOL   N72225734   4.158   2.352   0.885  0.1840  0.3533 -0.0809
   27MOL   C72325735   4.121   2.277   0.767 -0.0570  0.0989 -0.5440
   27MOL   C72425736   4.012   2.172   0.798  0.2656 -0.0593  0.0183
   27MOL   C72525737   4.002   2.092   0.913 -0.0040 -0.1281 -0.0301
   27MOL   C72625738   3.902   1.996   0.934 -0.5008  0.5000 -0.2623
   27MOL   C72725739   3.798   1.983   0.838  0.5004 -0.6420  0.0114
   27MOL   C72825740   3.795   2.069   0.727  0.4064 -0.0177  0.0551
   27MOL   C72925741   3.900   2.167   0.709 -0.3846  0.3115 -0.4649
   27MOL   C73025742   3.885   2.250   0.581 -0.0588  0.2643 -0.3951
   27MOL   N73125743   3.838   2.386   0.614 -0.1346  0.8259 -0.1597
   27MOL   C73225744   3.845   2.485   0.531  0.3864  0.6360 -0.5816
   27MOL   O73325745   3.897   2.467   0.423 -0.0142  0.1305  0.1889
   27MOL   C73425746   3.773   2.612   0.564 -0.6223 -0.1261  0.3330
   27MOL   C73525747   3.868   2.722   0.610 -0.3026  0.7984  0.4074
   27MOL   C73625748   3.806   2.852   0.641 -0.6378  0.1746 -0.4974
   27MOL   C73725749   3.904   2.974   0.645 -0.0681  0.1368  0.2957
   27MOL   C73825750   3.829   3.106   0.674 -0.8986 -0.3397  0.2607
   27MOL   C73925751   3.928   3.215   0.708  0.2176  0.0895  0.9558
   27MOL   C74025752   3.854   3.348   0.746 -0.2340  0.2279 -0.4629
   27MOL   C74125753   3.952   3.467   0.770 -0.2946 -0.6034  0.1564
   27MOL   C74225754   3.881   3.590   0.824  0.3857 -0.4761  0.9155
   27MOL   O74325755   3.854   3.689   0.757  0.0617  0.4830  0.6492
   27MOL   H74425756   4.254   2.357   0.915  0.1959 -1.0730  0.1491
   27MOL   H74525757   4.209   2.221   0.733 -0.8660 -1.8075  0.3970
   27MOL   H74625758   4.096   2.347   0.687  2.5195  0.2695 -1.2610
   27MOL   H74725759   4.076   2.102   0.992 -1.4298  0.7196  1.2422
   27MOL   H74825760   3.882   1.934   1.020  0.0655  0.8598  0.1302
   27MOL   H74925761   3.719   1.911   0.849 -0.8867  1.0705  1.6273
   27MOL   H75025762   3.699   2.076   0.677  0.5205 -0.6391 -0.2601
   27MOL   H75125763   3.813   2.205   0.513 -2.5170  3.8766 -0.3297
   27MOL   H75225764   3.975   2.248   0.520 -0.0013  0.4822 -0.3167
   27MOL   H75325765   3.785   2.398   0.699  3.1750 -1.5826  2.3547
   27MOL   H75425766   3.690   2.594   0.633 -0.8167  0.0433  0.1451
   27MOL   H75525767   3.720   2.642   0.474 -2.3497  2.7034  2.1914
   27MOL   H75625768   3.938   2.741   0.528 -1.8118 -3.2074 -1.9473
   27MOL   H75725769   3.924   2.686   0.696 -3.2835 -1.0721  1.6148
   27MOL   H75825770   3.728   2.878   0.569 -0.7622  2.3633  0.3903
   27MOL   H75925771   3.738   2.846   0.726  1.6632 -2.9018  1.2404
   27MOL   H76025772   3.981   2.960   0.720 -0.6188  1.7313  1.1864
   27MOL   H76125773   3.967   2.990   0.557 -0.2411 -0.2726  0.0951
   27MOL   H76225774   3.759   3.124   0.592 -0.0104 -0.0444 -0.4522
   27MOL   H76325775   3.780   3.084   0.768  0.2133 -0.8267  0.7276
   27MOL   H76425776   3.992   3.232   0.621 -1.2758  1.4992  0.0929
   27MOL   H76525777   3.999   3.189   0.786  0.3249 -0.4172  0.6858
   27MOL   H76625778   3.769   3.367   0.680 -2.7047 -0.5239  2.3678
   27MOL   H76725779   3.802   3.321   0.838  0.8298 -3.2541 -0.8191
   27MOL   H76825780   4.041   3.434   0.823 -0.4502 -1.2184  0.0334
   27MOL   H76925781   4.001   3.484   0.674 -2.1790 -0.3737 -0.7833
   27MOL   N77025782   3.845   3.584   0.949  0.0414  0.5271 -0.4159
   27MOL   C77125783   3.789   3.690   1.019 -0.1927  0.2666 -0.2065
   27MOL   C77225784   3.750   3.652   1.167 -0.0361 -0.7150 -0.4792
   27MOL   C77325785   3.814   3.729   1.270  0.5609  0.2692  0.4762
   27MOL   C77425786   3.775   3.710   1.401 -0.4959  0.0195  0.0537
   27MOL   C77525787   3.687   3.611   1.439  0.4762  0.4272 -0.0263
   27MOL   C77625788   3.624   3.538   1.342 -0.1883  0.3142  0.6531
   27MOL   C77725789   3.649   3.563   1.204  1.2461 -0.0852 -0.0999
   27MOL   C77825790   3.560   3.496   1.103  0.4123 -0.3581  0.9206
   27MOL   N77925791   3.443   3.576   1.089 -0.1625  0.2248 -0.5740
   27MOL   C78025792   3.322   3.527   1.062  0.5180  1.5408  0.1427
   27MOL   O78125793   3.301   3.405   1.043  0.1035 -0.3973  0.0671
   27MOL   C78225794   3.221   3.633   1.056 -0.7839  0.8833  0.2049
   27MOL   C78325795   3.149   3.653   0.919  0.4377 -0.2594 -0.2228
   27MOL   C78425796   3.039   3.553   0.886 -0.1435  0.3712 -0.9070
   27MOL   C78525797   2.984   3.574   0.752 -0.0693 -0.0824  0.6380
   27MOL   C78625798   2.841   3.517   0.740  0.1098  0.1167 -0.1845
   27MOL   C78725799   2.733   3.591   0.818 -0.2988 -0.2227 -0.4032
   27MOL   C78825800   2.588   3.535   0.805  0.6720  0.0749 -0.3114
   27MOL   C78925801   2.502   3.584   0.685  0.7358 -0.4994 -1.1119
   27MOL   C79025802   2.494   3.736   0.652  0.0022  0.0151  0.9370
   27MOL   O79125803   2.474   3.809   0.746  0.0471  0.1725  0.3192
   27MOL   H79225804   3.881   3.505   1.000  0.1019  1.1825  0.5607
   27MOL   H79325805   3.863   3.769   1.006  0.8617 -0.8940 -1.3716
   27MOL   H79425806   3.693   3.717   0.975 -0.8016 -3.6352 -1.4339
   27MOL   H79525807   3.896   3.793   1.241  1.5271 -1.3690 -0.4764
   27MOL   H79625808   3.834   3.763   1.475  0.4730  0.7261 -1.2189
   27MOL   H79725809   3.657   3.597   1.542  1.8334  0.2833  0.3631
   27MOL   H79825810   3.551   3.461   1.359  0.1981 -0.1468  0.2089
   27MOL   H79925811   3.531   3.402   1.149 -1.1037 -0.2862  0.1529
   27MOL   H80025812   3.624   3.464   1.021  0.9438  0.7759  0.8844
   27MOL   H80125813   3.460   3.675   1.075 -0.5744  0.4315  0.3335
   27MOL   H80225814   3.257   3.733   1.079 -0.1925  1.0637 -1.4486
   27MOL   H80325815   3.145   3.609   1.131 -1.0341 -1.6773 -0.8077
   27MOL   H80425816   3.218   3.649   0.834 -0.1386 -2.0143 -0.6330
   27MOL   H80525817   3.093   3.747   0.914 -0.1147 -0.6064 -0.6141
   27MOL   H80625818   2.955   3.570   0.953 -0.6073  1.2683 -1.7103
   27MOL   H80725819   3.068   3.448   0.900 -0.8774  0.6217  2.9568
   27MOL   H80825820   2.979   3.677   0.715 -0.3481 -0.1859  0.3910
   27MOL   H80925821   3.044   3.529   0.674 -1.1694  2.7010 -1.9149
   27MOL   H81025822   2.820   3.517   0.633 -1.3355  0.5053  0.0871
   27MOL   H81125823   2.823   3.415   0.775  0.7995 -0.2116 -0.7774
   27MOL   H81225824   2.740   3.700   0.820  1.1645 -0.3100 -0.0520
   27MOL   H81325825   2.754   3.589   0.925  0.2795 -0.9171 -0.5247
   27MOL   H81425826   2.533   3.564   0.895  0.6204  0.5995 -0.5117
   27MOL   H81525827   2.592   3.427   0.816  0.4649  0.2480  1.8519
   27MOL   H81625828   2.398   3.556   0.703  0.0366  2.6331 -0.0385
   27MOL   H81725829   2.543   3.538   0.595  2.2923 -1.3442  0.0128
   27MOL   N81825830   2.507   3.778   0.527 -0.2136 -0.0645 -0.2272
   27MOL   C81925831   2.504   3.917   0.497 -0.2258  0.4640  0.5964
   27MOL   C82025832   2.495   3.948   0.343  0.9217 -0.3634  0.3148
   27MOL   C82125833   2.410   3.874   0.265 -0.1905 -0.3671  0.3121
   27MOL   C82225834   2.393   3.904   0.132  0.0471 -0.3711  0.4793
   27MOL   C82325835   2.444   4.025   0.080 -0.4277  0.2685  0.0997
   27MOL   C82425836   2.532   4.101   0.159 -0.0306 -0.3086 -0.5143
   27MOL   C82525837   2.567   4.058   0.289  0.2176 -0.6617 -0.3746
   27MOL   C82625838   2.684   4.125   0.373  0.4673 -0.0756 -0.5536
   27MOL   N82725839   2.765   4.222   0.292  0.0963 -0.5469 -0.6102
   27MOL   C82825840   2.744   4.355   0.299  0.3505  0.4752  0.5176
   27MOL   O82925841   2.644   4.399   0.357  0.0269  0.2265  0.1319
   27MOL   C83025842   2.839   4.455   0.235 -0.2094 -0.0364  0.2881
   27MOL   C83125843   2.888   4.570   0.331 -0.0297  1.2869  0.1829
   27MOL   C83225844   2.947   4.689   0.254 -0.0049 -0.0759 -0.3079
   27MOL   C83325845   2.972   4.817   0.332  0.0949  0.4550  0.2190
   27MOL   C83425846   3.053   4.915   0.244  0.2330 -0.2926  0.7565
   27MOL   C83525847   3.122   5.019   0.334  0.3963  0.0240 -0.6255
   27MOL   C83625848   3.235   5.083   0.255  0.1282 -0.7961 -0.2283
   27MOL   C83725849   3.195   5.166   0.125  0.3204 -0.6050 -0.9621
   27MOL   C83825850   3.167   5.308   0.162  0.0860 -0.1890  0.0178
   27MOL   O83925851   3.055   5.339   0.196  0.4964 -0.0615 -0.2138
   27MOL   H84025852   2.531   3.706   0.460  0.3970  0.6070 -0.7417
   27MOL   H84125853   2.421   3.966   0.548 -1.2109  1.3220 -1.7501
   27MOL   H84225854   2.590   3.954   0.552  0.9218  0.5297 -1.2014
   27MOL   H84325855   2.364   3.788   0.312  0.9741  0.5845  3.3228
   27MOL   H84425856   2.336   3.847   0.061 -1.6883 -0.3232  1.8113
   27MOL   H84525857   2.428   4.054   7.768  0.6811  0.2421 -0.0877
   27MOL   H84625858   2.584   4.186   0.116 -1.1451  0.9166  0.5367
   27MOL   H84725859   2.748   4.040   0.397 -2.0914 -2.2590 -1.1117
   27MOL   H84825860   2.650   4.159   0.471  0.5501 -2.4009  0.3283
   27MOL   H84925861   2.859   4.195   0.268 -0.5773 -1.3911 -2.4312
   27MOL   H85025862   2.782   4.499   0.154 -0.1870  0.1845  0.3891
   27MOL   H85125863   2.922   4.407   0.184 -2.0114 -1.2354 -1.5337
   27MOL   H85225864   2.961   4.528   0.400 -0.4927 -0.9138 -0.6385
   27MOL   H85325865   2.803   4.606   0.390 -1.0072 -2.9958  1.5429
   27MOL   H85425866   2.878   4.724   0.177  1.0075  1.7611 -0.4170
   27MOL   H85525867   3.040   4.655   0.209  2.0658  0.3523  3.3907
   27MOL   H85625868   2.879   4.860   0.368  0.8924  1.7950  0.7374
   27MOL   H85725869   3.032   4.795   0.421 -1.0508 -0.7443  0.7124
   27MOL   H85825870   3.124   4.865   0.177 -0.9487  0.9424 -1.4731
   27MOL   H85925871   2.984   4.960   0.173 -0.2733  0.7390  1.8848
   27MOL   H86025872   3.143   4.985   0.435 -1.8360 -2.2468 -0.8799
   27MOL   H86125873   3.056   5.100   0.365  1.4683  1.1307 -1.2276
   27MOL   H86225874   3.295   4.998   0.224  0.3013  0.1168 -2.4968
   27MOL   H86325875   3.299   5.148   0.314  2.5438 -1.9210 -1.5436
   27MOL   H86425876   3.280   5.152   0.058  0.3634 -1.4292 -0.7322
   27MOL   H86525877   3.109   5.135   0.067  0.7656 -0.0456 -1.9494
   27MOL   N86625878   3.273   5.394   0.158 -0.1960 -0.9402 -0.1430
   27MOL   C86725879   3.280   5.532   0.214  0.1158 -0.3023 -0.1309
   27MOL   C86825880   3.422   5.592   0.211  0.5807 -0.2032  0.6363
   27MOL   C86925881   3.447   5.699   0.125  0.1444  0.1449  0.5359
   27MOL   C87025882   3.565   5.778   0.137 -0.1987  0.7317  0.1077
   27MOL   C87125883   3.663   5.736   0.231  0.0886  0.1674  0.1629
   27MOL   C87225884   3.648   5.615   0.304  0.3798 -0.2461 -0.4381
   27MOL   C87325885   3.527   5.543   0.295  0.2242  0.6397 -0.0090
   27MOL   C87425886   3.503   5.422   0.393  0.1270 -0.4456 -0.2604
   27MOL   N87525887   3.606   5.318   0.367 -0.2533 -0.1345  0.2479
   27MOL   C87625888   3.721   5.313   0.434  0.0516 -0.2467 -0.6377
   27MOL   O87725889   3.733   5.375   0.544  0.1012  0.4078  0.0489
   27MOL   C87825890   3.828   5.226   0.374  0.1129 -0.0136 -0.7983
   27MOL   C87925891   3.940   5.311   0.318 -0.0875  0.2527 -0.0507
   27MOL   C88025892   4.072   5.236   0.289  0.4367 -0.0475 -0.2764
   27MOL   C88125893   4.118   5.161   0.415 -0.2419 -0.7998 -1.0140
   27MOL   C88225894   4.134   5.254   0.540  0.3312 -0.4089 -0.0611
   27MOL   C88325895   4.216   5.189   0.648 -0.8469 -0.4093  0.0608
   27MOL   C88425896   4.363   5.205   0.620 -0.6940 -0.4171  0.0964
   27MOL   C88525897   4.464   5.127   0.709  0.6658 -0.3527  0.1916
   27MOL   C88625898   4.510   4.997   0.634  0.6523 -0.3263  0.4705
   27MOL   O88725899   4.478   4.888   0.682 -0.2240 -0.6481  0.1562
   27MOL   H88825900   3.358   5.359   0.115 -1.0980 -1.3634 -1.5988
   27MOL   H88925901   3.198   5.584   0.165 -0.8688 -3.0362 -1.5249
   27MOL   H89025902   3.242   5.526   0.316 -0.6448 -0.3400 -0.4116
   27MOL   H89125903   3.357   5.734   0.076  0.6463 -0.1214 -0.5906
   27MOL   H89225904   3.586   5.859   0.068 -0.8253  1.0595  0.3014
   27MOL   H89325905   3.757   5.790   0.234 -1.0131  2.2011 -0.8578
   27MOL   H89425906   3.722   5.597   0.380  1.0468  3.6008 -0.0390
   27MOL   H89525907   3.407   5.372   0.387 -0.6192  1.0025 -0.6034
   27MOL   H89625908   3.511   5.452   0.498  1.4046 -1.3952 -0.0663
   27MOL   H89725909   3.595   5.265   0.282  2.8619  0.7917 -0.8138
   27MOL   H89825910   3.782   5.151   0.310 -0.8385  0.2518 -0.4295
   27MOL   H89925911   3.854   5.162   0.459 -0.7307  1.0020  0.2387
   27MOL   H90025912   3.967   5.397   0.381  1.6834  0.1497 -0.6422
   27MOL   H90125913   3.901   5.359   0.229  0.2696 -1.5316 -1.1726
   27MOL   H90225914   4.060   5.156   0.217 -0.1016 -1.3058  1.1712
   27MOL   H90325915   4.153   5.297   0.250  0.7177  0.5445  1.2005
   27MOL   H90425916   4.050   5.077   0.433  0.5885 -0.8261  2.4140
   27MOL   H90525917   4.219   5.126   0.396  0.4436 -0.1558  1.2871
   27MOL   H90625918   4.180   5.351   0.517 -0.4234  0.2257  1.0677
   27MOL   H90725919   4.035   5.282   0.575 -0.2254 -1.8224 -0.4760
   27MOL   H90825920   4.196   5.082   0.654 -1.5702 -0.3210 -0.7303
   27MOL   H90925921   4.198   5.225   0.750  0.5822 -2.1561  0.9669
   27MOL   H91025922   4.402   5.188   0.519  1.3246  1.2128  0.5477
   27MOL   H91125923   4.389   5.311   0.625 -4.3652  0.4883  1.3152
   27MOL   H91225924   4.553   5.184   0.735  0.7770 -1.6132  2.8189
   27MOL   H91325925   4.415   5.105   0.804 -1.5975  1.1478 -0.5969
   27MOL   N91425926   4.596   5.007   0.529 -0.1374  0.1294 -0.4655
   27MOL   C91525927   4.635   4.899   0.442 -0.1519 -0.4757 -0.3074
   27MOL   C91625928   4.651   4.946   0.299  0.4608  0.5828  0.4510
   27MOL   C91725929   4.641   5.084   0.265  0.0619  0.0446 -0.7931
   27MOL   C91825930   4.649   5.119   0.131  0.1897 -0.3274  0.5205
   27MOL   C91925931   4.687   5.025   0.030 -0.3725 -0.4083  0.3467
   27MOL   C92025932   4.709   4.892   0.066 -0.9978 -0.2790  0.6197
   27MOL   C92125933   4.686   4.848   0.198  0.0081  0.6500 -0.2431
   27MOL   C92225934   4.678   4.698   0.215 -0.6149  0.8165  0.7397
   27MOL   N92325935   4.766   4.634   0.311  0.9898 -0.0442  0.3491
   27MOL   C92425936   4.765   4.506   0.342  0.1815  0.1653  0.6094
   27MOL   O92525937   4.684   4.428   0.292 -0.6163 -0.2919 -0.4593
   27MOL   C92625938   4.880   4.458   0.430  0.0945  0.5281 -0.0272
   27MOL   C92725939   4.918   4.317   0.377 -0.2373 -0.0572 -0.0455
   27MOL   C92825940   5.005   4.314   0.244  0.4279  0.4884  0.2830
   27MOL   C92925941   5.037   4.184   0.182 -0.1985  0.1701 -0.5344
   27MOL   C93025942   5.128   4.203   0.053  0.6479  0.2870 -0.8476
   27MOL   C93125943   5.181   4.082   7.771 -0.2566 -0.4011 -0.1351
   27MOL   C93225944   5.292   4.114   7.670 -0.5993  0.6466 -0.3344
   27MOL   C93325945   5.366   3.994   7.610 -0.5118 -0.3191 -0.4460
   27MOL   C93425946   5.277   3.882   7.574 -0.0547  0.9369 -0.1978
   27MOL   O93525947   5.178   3.899   7.507  0.7167 -0.2768 -0.2502
   27MOL   H93625948   4.635   5.096   0.502  0.6681  0.2585  1.0738
   27MOL   H93725949   4.724   4.850   0.481 -0.0268 -1.2448 -1.5331
   27MOL   H93825950   4.565   4.815   0.441 -3.2896  2.0725 -0.5635
   27MOL   H93925951   4.632   5.161   0.340 -1.5439 -0.3170 -0.5846
   27MOL   H94025952   4.632   5.224   0.115 -1.8082 -0.6287  0.5498
   27MOL   H94125953   4.696   5.064   7.719 -1.1331  0.8103  0.7434
   27MOL   H94225954   4.726   4.821   7.777  0.6821  0.5659  0.1888
   27MOL   H94325955   4.702   4.660   0.116 -1.1478 -0.8554  1.2284
   27MOL   H94425956   4.574   4.676   0.240 -1.0377 -1.3208 -2.5701
   27MOL   H94525957   4.840   4.689   0.353  1.1027  1.6110 -1.8891
   27MOL   H94625958   4.851   4.451   0.535 -1.8836  0.4430 -0.5665
   27MOL   H94725959   4.961   4.530   0.415  1.2205 -1.0701 -1.8992
   27MOL   H94825960   4.831   4.253   0.366 -0.7385  0.7129 -0.6858
   27MOL   H94925961   4.973   4.259   0.451  2.1219  3.1998  0.8870
   27MOL   H95025962   4.962   4.371   0.161  0.7860 -2.0976 -1.7534
   27MOL   H95125963   5.104   4.353   0.267  0.1523 -0.3412  3.0330
   27MOL   H95225964   5.070   4.110   0.256 -3.1546 -0.9829 -0.3150
   27MOL   H95325965   4.949   4.130   0.148 -1.4395  0.5042  2.0001
   27MOL   H95425966   5.214   4.251   0.099 -2.1680  3.0298  1.8235
   27MOL   H95525967   5.098   4.283   7.776  1.9558  0.7643 -0.8732
   27MOL   H95625968   5.231   4.024   0.059  1.9766  0.2493 -1.0483
   27MOL   H95725969   5.091   4.036   7.731 -0.3343 -0.2481 -0.1384
   27MOL   H95825970   5.372   4.176   7.710 -0.3028  0.7202 -1.0330
   27MOL   H95925971   5.240   4.165   7.589  1.1615  1.1598 -1.1661
   27MOL   H96025972   5.451   3.967   7.673  1.5030 -1.6475 -3.6236
   27MOL   H96125973   5.410   4.035   7.520  0.1025 -3.2080 -1.5158
   27MOL   H96225974   5.299   3.781   7.607 -1.0115  0.7576 -0.0970
   28MOL     N125975   3.361   7.169   2.197 -0.6683 -0.4573 -0.3367
   28MOL     C225976   3.263   7.085   2.132 -0.2520 -0.5398  0.5777
   28MOL     C325977   3.286   7.071   1.984 -0.0446  0.1060  0.9665
   28MOL     C425978   3.335   6.947   1.937 -0.1618  0.0780  0.2792
   28MOL     C525979   3.353   6.923   1.801 -0.3233  0.2305 -0.4824
   28MOL     C625980   3.340   7.029   1.709  0.3012  0.3826  0.7034
   28MOL     C725981   3.292   7.159   1.752  0.1556 -0.3180 -0.1779
   28MOL     C825982   3.266   7.177   1.890  0.2795  0.7618 -0.3472
   28MOL     C925983   3.205   7.310   1.937  1.3408 -0.2559  0.5864
   28MOL    N1025984   3.069   7.294   1.958  0.4375 -0.1989  0.6809
   28MOL    C1125985   2.997   7.355   2.050  0.7248 -0.5941 -0.2147
   28MOL    O1225986   3.037   7.451   2.117 -0.2147 -0.5246  0.2330
   28MOL    C1325987   2.854   7.297   2.063 -0.2869  0.0486  0.1542
   28MOL    C1425988   2.805   7.286   2.211  0.0391  0.6475  0.1078
   28MOL    C1525989   2.712   7.404   2.253  0.1647  0.0567 -0.1535
   28MOL    C1625990   2.662   7.383   2.397 -0.5149 -0.2768  0.5540
   28MOL    C1725991   2.574   7.254   2.420 -0.2223  0.1924 -0.0519
   28MOL    C1825992   2.460   7.265   2.514 -0.9075  0.0373  0.0438
   28MOL    C1925993   2.410   7.131   2.568  0.1507  0.0739  0.5509
   28MOL    C2025994   2.326   7.151   2.699  1.1852  0.1799 -0.1818
   28MOL    C2125995   2.179   7.216   2.686 -0.5154 -0.4379  0.3368
   28MOL    O2225996   2.175   7.333   2.666  0.2200  0.1536 -0.4928
   28MOL    H2325997   3.321   7.221   2.274  1.4775 -1.1235  1.2771
   28MOL    H2425998   3.260   6.987   2.180  1.6174  0.0140  1.9121
   28MOL    H2525999   3.171   7.143   2.138 -0.2944 -0.0451 -3.5923
   28MOL    H2626000   3.360   6.872   2.011  2.2495 -0.4152 -0.9896
   28MOL    H2726001   3.382   6.822   1.777  1.6589  0.5823  0.3752
   28MOL    H2826002   3.373   7.016   1.607  0.1966 -1.2379  0.8606
   28MOL    H2926003   3.278   7.242   1.685 -4.6645  0.1293  1.1921
   28MOL    H3026004   3.193   7.378   1.852 -1.5581  1.6878  2.4781
   28MOL    H3126005   3.254   7.363   2.019  1.0581  0.6265  0.1911
   28MOL    H3226006   3.029   7.237   1.885 -0.7823 -1.1887  2.1021
   28MOL    H3326007   2.844   7.197   2.021 -1.8718  1.1134 -2.0665
   28MOL    H3426008   2.783   7.355   2.004  0.3776  0.1437 -0.5651
   28MOL    H3526009   2.893   7.291   2.275  1.8864  2.3863 -2.4777
   28MOL    H3626010   2.771   7.185   2.235 -1.0876  1.3580  1.6010
   28MOL    H3726011   2.758   7.503   2.244 -0.2421  0.4461  1.8758
   28MOL    H3826012   2.625   7.411   2.188  0.1440  1.9399  0.0379
   28MOL    H3926013   2.746   7.380   2.466  1.1383  0.4434 -1.3554
   28MOL    H4026014   2.594   7.465   2.420 -3.7030 -2.4055 -0.8613
   28MOL    H4126015   2.531   7.202   2.335 -0.5436  0.2284  0.0890
   28MOL    H4226016   2.654   7.184   2.445  0.2035  1.0674  1.0919
   28MOL    H4326017   2.388   7.331   2.465 -0.4132 -0.4596 -1.3865
   28MOL    H4426018   2.491   7.331   2.596 -1.6831 -0.6480  0.8907
   28MOL    H4526019   2.353   7.082   2.489  1.8658  0.2827 -0.8324
   28MOL    H4626020   2.491   7.060   2.587 -1.0315 -1.3783  0.2798
   28MOL    H4726021   2.392   7.206   2.766 -0.2874  1.8551 -0.0548
   28MOL    H4826022   2.310   7.056   2.750 -0.5903  1.1546  1.1533
   28MOL    H4926023   3.414   7.102   2.250 -3.4070 -1.8131  0.7778
   28MOL    N5026024   2.066   7.146   2.697 -0.1747 -0.2681 -0.5788
   28MOL    C5126025   1.937   7.205   2.668 -0.3722 -0.4215  0.1790
   28MOL    C5226026   1.863   7.238   2.800 -0.1548  0.5646  0.1856
   28MOL    C5326027   1.818   7.134   2.885  0.1184 -0.9619 -0.4168
   28MOL    C5426028   1.755   7.154   3.008 -0.3093 -0.5735  0.4452
   28MOL    C5526029   1.721   7.288   3.048  0.0013  0.6397 -1.2825
   28MOL    C5626030   1.759   7.394   2.964  0.4572  0.5422  0.6223
   28MOL    C5726031   1.832   7.371   2.845  0.1268  0.6402  0.9820
   28MOL    C5826032   1.872   7.493   2.771 -0.0033  0.0364  0.4187
   28MOL    N5926033   1.756   7.559   2.712  0.0657  0.7682  0.0750
   28MOL    C6026034   1.726   7.540   2.581  0.1743 -0.0672 -0.4941
   28MOL    O6126035   1.793   7.465   2.506  0.0340  0.1996  0.1254
   28MOL    C6226036   1.599   7.600   2.533 -0.3560 -0.3749  0.5769
   28MOL    C6326037   1.620   7.691   2.410  0.4683  0.3455  0.9319
   28MOL    C6426038   1.494   7.690   2.326 -0.2302  0.1223 -1.2479
   28MOL    C6526039   1.511   7.768   2.191  0.0862  0.5206  0.3637
   28MOL    C6626040   1.380   7.752   2.114 -0.0540  0.5629 -0.4327
   28MOL    C6726041   1.397   0.047   1.988  0.2932  0.3179  0.6014
   28MOL    C6826042   1.292   0.037   1.874 -0.1841  0.5774 -0.1237
   28MOL    C6926043   1.341   0.106   1.744 -0.6070  0.3018 -0.1481
   28MOL    C7026044   1.468   0.046   1.682  0.5761 -0.5548 -1.1243
   28MOL    O7126045   1.456   7.727   1.625 -0.1195  0.2100  0.2758
   28MOL    H7226046   2.072   7.048   2.721  2.0624  0.2255  1.1077
   28MOL    H7326047   1.890   7.118   2.621 -0.5150  0.2993 -1.0192
   28MOL    H7426048   1.940   7.274   2.584  1.4951 -2.0485 -1.1556
   28MOL    H7526049   1.843   7.031   2.864  0.7143 -1.0090  0.5051
   28MOL    H7626050   1.732   7.072   3.074 -0.7709  1.3036  2.6980
   28MOL    H7726051   1.664   7.304   3.139 -2.7077 -3.2648 -2.1500
   28MOL    H7826052   1.731   7.492   2.999  1.4973  0.5428  1.5207
   28MOL    H7926053   1.960   7.474   2.710 -0.7540 -1.1562 -0.3107
   28MOL    H8026054   1.908   7.571   2.837 -0.7467  1.4103 -0.7637
   28MOL    H8126055   1.691   7.603   2.775 -3.7055 -2.6414 -1.1914
   28MOL    H8226056   1.538   7.657   2.603  0.0930  0.0306  0.6370
   28MOL    H8326057   1.520   7.526   2.519 -2.7385  1.9412  1.4494
   28MOL    H8426058   1.701   7.652   2.348  0.8978  1.0994  1.0087
   28MOL    H8526059   1.642   0.006   2.434  1.4535  0.1294  0.9787
   28MOL    H8626060   1.448   7.592   2.316  0.4957 -0.3228 -0.3181
   28MOL    H8726061   1.414   7.740   2.381  0.5739  0.5563 -0.4635
   28MOL    H8826062   1.529   0.081   2.223 -1.4002  0.6449  0.8740
   28MOL    H8926063   1.592   7.722   2.135 -0.5420 -1.1693  0.8055
   28MOL    H9026064   1.363   7.646   2.093  1.9820  0.0184  0.5601
   28MOL    H9126065   1.297   0.005   2.171 -1.8099 -0.1576 -2.3795
   28MOL    H9226066   1.496   0.025   1.949 -0.2129 -0.2960 -0.3798
   28MOL    H9326067   1.395   0.150   2.022 -2.2399  0.6990 -0.5387
   28MOL    H9426068   1.196   0.076   1.908 -0.3300  0.7823 -0.7638
   28MOL    H9526069   1.285   7.722   1.846  0.6194  0.8287 -1.3010
   28MOL    H9626070   1.367   0.211   1.760  1.1932 -0.1076 -0.2700
   28MOL    H9726071   1.267   0.102   1.664  1.1799  1.8574 -1.9276
   28MOL    N9826072   1.572   0.124   1.684  1.0764 -0.3293 -0.4491
   28MOL    C9926073   1.709   0.079   1.640 -0.2840  0.1406 -0.2241
   28MOL   C10026074   1.782   0.186   1.563  0.6093 -0.1011 -0.7005
   28MOL   C10126075   1.867   0.280   1.631 -0.3281  0.5120  0.1468
   28MOL   C10226076   1.931   0.379   1.559 -0.6853 -0.7102 -0.1039
   28MOL   C10326077   1.921   0.380   1.420 -0.2588  0.0267  0.1956
   28MOL   C10426078   1.837   0.293   1.348 -0.6369  0.9881 -0.5175
   28MOL   C10526079   1.767   0.199   1.419 -0.1721  0.2951 -1.0484
   28MOL   C10626080   1.657   0.122   1.350 -0.3240  0.9747  0.2385
   28MOL   N10726081   1.705   0.003   1.280 -0.2802  0.3652 -0.6171
   28MOL   C10826082   1.628   7.721   1.203  0.1574  0.4369  0.5034
   28MOL   O10926083   1.510   7.750   1.185 -0.8259  0.2640  0.4218
   28MOL   C11026084   1.700   7.604   1.129 -0.3234  0.5829 -0.1775
   28MOL   C11126085   1.777   7.644   1.006  0.1798 -0.3910 -0.5973
   28MOL   C11226086   1.920   7.697   1.030  0.4991 -0.2291  0.0371
   28MOL   C11326087   1.986   7.735   0.903 -0.1028  0.1411  0.6392
   28MOL   C11426088   2.131   7.768   0.919  0.4616 -0.3597 -0.1113
   28MOL   C11526089   2.149   0.113   1.000 -0.4018 -0.2768 -0.1007
   28MOL   C11626090   2.297   0.157   1.009 -0.8196  0.3711  0.0327
   28MOL   C11726091   2.316   0.291   1.091  0.0489  0.4198 -0.6357
   28MOL   C11826092   2.293   0.416   1.020  0.5799  0.0405  0.6068
   28MOL   O11926093   2.214   0.420   0.919  0.9460  0.3716 -0.0296
   28MOL   H12026094   1.575   0.211   1.735  1.6191 -0.7738  0.2881
   28MOL   H12126095   1.757   0.071   1.738  1.3855  0.9302 -0.9781
   28MOL   H12226096   1.706   7.772   1.589 -0.2885  0.0901 -0.1277
   28MOL   H12326097   1.879   0.280   1.739  2.0529 -1.2209 -0.0887
   28MOL   H12426098   1.981   0.461   1.609  0.3033 -1.3276 -0.0609
   28MOL   H12526099   1.978   0.456   1.368  1.2381 -0.6952  0.7691
   28MOL   H12626100   1.820   0.303   1.241  0.7758 -0.6924 -0.9130
   28MOL   H12726101   1.611   0.188   1.276 -0.3466  1.9637  1.1340
   28MOL   H12826102   1.567   0.089   1.400 -0.1076  1.0330  0.6648
   28MOL   H12926103   1.804   7.772   1.288 -0.2964  0.4984 -0.0822
   28MOL   H13026104   1.638   7.519   1.102  2.3057 -1.6266  0.4940
   28MOL   H13126105   1.767   7.557   1.202  0.3450  0.0816 -1.1149
   28MOL   H13226106   1.720   7.720   0.953  0.5803  2.7594  3.2703
   28MOL   H13326107   1.785   7.553   0.947  1.4489  0.4450 -1.7409
   28MOL   H13426108   1.935   7.787   1.089  0.3843 -0.6962  0.7896
   28MOL   H13526109   1.978   7.621   1.083 -0.8287  0.0040  1.8718
   28MOL   H13626110   1.977   7.655   0.829 -3.1474  1.4808 -0.5424
   28MOL   H13726111   1.938   0.032   0.857  3.6911  1.0485 -1.8578
   28MOL   H13826112   2.191   7.686   0.960  0.8422 -0.5051 -0.9613
   28MOL   H13926113   2.176   7.771   0.820 -1.8684  1.9213 -1.1682
   28MOL   H14026114   2.116   0.106   1.103  0.0290  0.9012  0.1285
   28MOL   H14126115   2.090   0.191   0.951 -0.2999  0.4896  0.9728
   28MOL   H14226116   2.349   0.084   1.070 -1.3767 -1.0289 -1.1353
   28MOL   H14326117   2.359   0.168   0.919 -1.9591  0.9777 -0.6828
   28MOL   H14426118   2.422   0.306   1.108 -0.2609  2.2497 -0.1282
   28MOL   H14526119   2.259   0.307   1.183 -0.0404 -0.3287 -0.5560
   28MOL   N14626120   2.356   0.526   1.071 -0.1780  0.6747  0.7160
   28MOL   C14726121   2.346   0.656   1.014  0.2888 -0.4675  0.1716
   28MOL   C14826122   2.481   0.722   1.009 -0.0743 -0.0351  0.0456
   28MOL   C14926123   2.541   0.729   0.886 -0.2919 -0.1199  0.0073
   28MOL   C15026124   2.663   0.790   0.875  0.0875 -0.1162  0.1258
   28MOL   C15126125   2.726   0.848   0.984  0.0528  0.2807  0.5413
   28MOL   C15226126   2.658   0.842   1.106  0.0676 -0.6281 -1.0302
   28MOL   C15326127   2.543   0.776   1.126 -0.5428  0.4611 -0.1504
   28MOL   C15426128   2.477   0.772   1.268  0.1802 -0.3788  0.6032
   28MOL   N15526129   2.553   0.699   1.369 -0.4248 -0.2224 -0.0353
   28MOL   C15626130   2.573   0.566   1.379  0.3894  1.0868 -0.6775
   28MOL   O15726131   2.528   0.489   1.288  0.2222  0.4161 -0.0776
   28MOL   C15826132   2.659   0.515   1.501  0.1924 -0.1293 -0.4703
   28MOL   C15926133   2.599   0.395   1.578  0.2521  0.6039 -0.2906
   28MOL   C16026134   2.505   0.438   1.692  0.1664 -0.0555  0.0015
   28MOL   C16126135   2.361   0.399   1.675  0.5267 -0.2281  0.2905
   28MOL   C16226136   2.282   0.459   1.567 -0.2324  0.1706  0.1503
   28MOL   C16326137   2.247   0.606   1.591 -0.2126 -0.1838  0.0035
   28MOL   C16426138   2.177   0.672   1.471 -0.4381  0.0429  0.3325
   28MOL   C16526139   2.192   0.829   1.472 -0.3710  0.1903  0.6939
   28MOL   C16626140   2.093   0.896   1.379  0.4960 -0.0185 -0.2418
   28MOL   O16726141   2.077   0.847   1.266 -0.6849 -0.1503 -0.3450
   28MOL   H16826142   2.412   0.501   1.152  2.3510  1.1563 -0.8158
   28MOL   H16926143   2.276   0.718   1.071 -0.9409 -0.6730 -1.0845
   28MOL   H17026144   2.315   0.647   0.910  1.0190  1.6757 -0.2759
   28MOL   H17126145   2.492   0.683   0.802  0.3656  0.4028 -0.6741
   28MOL   H17226146   2.716   0.799   0.781  0.2187  0.1072  0.2196
   28MOL   H17326147   2.820   0.900   0.977  1.0477 -1.5725 -0.1789
   28MOL   H17426148   2.692   0.899   1.191 -0.2542  1.3205 -2.1828
   28MOL   H17526149   2.373   0.739   1.263 -0.7967  2.3030  2.2867
   28MOL   H17626150   2.464   0.877   1.295  1.4396 -0.0032 -0.1982
   28MOL   H17726151   2.595   0.759   1.439 -1.5118 -0.9940  1.3053
   28MOL   H17826152   2.689   0.598   1.564  1.0144  0.5897 -1.7706
   28MOL   H17926153   2.744   0.476   1.444  1.1513  1.2219  0.0249
   28MOL   H18026154   2.680   0.336   1.621  0.3260  1.5325  0.8431
   28MOL   H18126155   2.563   0.323   1.503 -0.2555 -0.2364  0.7352
   28MOL   H18226156   2.546   0.403   1.787 -2.0664 -0.4927  0.8293
   28MOL   H18326157   2.511   0.546   1.702 -2.0946  0.1170 -0.3893
   28MOL   H18426158   2.366   0.290   1.663 -1.0289 -0.4122  1.1624
   28MOL   H18526159   2.321   0.416   1.774  0.0364  0.4092 -0.0128
   28MOL   H18626160   2.339   0.449   1.475 -0.3159 -1.7687  0.2907
   28MOL   H18726161   2.190   0.402   1.556  0.0156 -0.2568  0.2781
   28MOL   H18826162   2.340   0.661   1.608 -0.2417 -0.4546  1.0858
   28MOL   H18926163   2.185   0.623   1.679  0.3315 -1.0494  0.5589
   28MOL   H19026164   2.227   0.637   1.380  1.2768 -2.2916  2.1187
   28MOL   H19126165   2.079   0.628   1.454  0.1921 -0.8400 -1.1857
   28MOL   H19226166   2.289   0.864   1.438 -0.2083  0.4208  1.3875
   28MOL   H19326167   2.187   0.864   1.575 -0.6847  1.0858  0.3781
   28MOL   N19426168   2.021   0.997   1.429 -0.1856  0.2852  0.1100
   28MOL   C19526169   1.930   1.080   1.351 -0.3475  0.0465  0.1706
   28MOL   C19626170   1.789   1.040   1.395  0.2111  0.3033 -0.0516
   28MOL   C19726171   1.760   1.042   1.528 -0.3121  0.2743 -0.3063
   28MOL   C19826172   1.630   1.007   1.572  0.3907  0.2731  0.1486
   28MOL   C19926173   1.527   0.971   1.484  0.1497  0.1506  0.1617
   28MOL   C20026174   1.562   0.959   1.346  0.2675 -0.1174 -0.6072
   28MOL   C20126175   1.685   1.006   1.301 -0.2560  0.3218 -0.4274
   28MOL   C20226176   1.715   1.006   1.147  0.2935  0.7861 -0.1754
   28MOL   N20326177   1.812   0.901   1.100 -0.6535  0.1107 -0.9957
   28MOL   C20426178   1.814   0.862   0.972  0.3753  0.6155 -0.4847
   28MOL   O20526179   1.745   0.907   0.880  0.1726 -0.0539 -0.4485
   28MOL   C20626180   1.912   0.753   0.949 -0.5715 -0.4295 -0.0031
   28MOL   C20726181   2.019   0.825   0.867 -0.4090  0.0795  1.1625
   28MOL   C20826182   2.101   0.741   0.759  0.0263  0.2192 -0.4792
   28MOL   C20926183   2.215   0.817   0.706  0.2376  0.7852  0.0958
   28MOL   C21026184   2.296   0.729   0.611  0.1089  0.0113 -0.0422
   28MOL   C21126185   2.417   0.809   0.550 -0.2766 -0.6148 -0.3210
   28MOL   C21226186   2.484   0.737   0.429  0.0033 -0.1659 -0.9185
   28MOL   C21326187   2.533   0.596   0.458 -0.3635 -0.4029  0.1857
   28MOL   C21426188   2.576   0.521   0.327 -0.4185 -0.0020 -0.3353
   28MOL   O21526189   2.628   0.585   0.231 -0.0113 -0.1619  0.5026
   28MOL   H21626190   2.031   1.023   1.526 -1.0288  2.4658 -0.3628
   28MOL   H21726191   1.930   1.187   1.370  1.1962  0.7126 -3.1758
   28MOL   H21826192   1.956   1.078   1.245  0.9342  3.0647  0.3849
   28MOL   H21926193   1.834   1.071   1.600 -0.0583  0.5723 -0.6852
   28MOL   H22026194   1.605   0.992   1.676  2.5664 -0.3830  0.6031
   28MOL   H22126195   1.435   0.940   1.532 -0.7959  1.5955 -0.6781
   28MOL   H22226196   1.483   0.927   1.280  0.9353 -2.6891 -0.2012
   28MOL   H22326197   1.762   1.102   1.126  1.8473 -0.0773 -0.7773
   28MOL   H22426198   1.622   1.002   1.090 -1.2294  0.2114  2.2883
   28MOL   H22526199   1.861   0.843   1.166 -0.6018  0.6548 -0.5600
   28MOL   H22626200   1.855   0.669   0.913 -2.0407  0.4513  0.2299
   28MOL   H22726201   1.962   0.721   1.040 -0.0405  0.2828 -0.0337
   28MOL   H22826202   1.982   0.902   0.800  2.0057  0.7114  0.5119
   28MOL   H22926203   2.083   0.884   0.932  0.9510 -0.4087  0.2810
   28MOL   H23026204   2.135   0.645   0.797 -0.1412  0.2719 -0.1996
   28MOL   H23126205   2.037   0.709   0.676 -0.0330 -0.9813  0.0211
   28MOL   H23226206   2.184   0.905   0.650  0.2800  0.5391 -0.3179
   28MOL   H23326207   2.288   0.855   0.777 -1.1312  1.8130  0.9854
   28MOL   H23426208   2.328   0.634   0.654 -1.3379 -1.1429 -1.4815
   28MOL   H23526209   2.227   0.691   0.537 -2.3075  0.4189  1.9188
   28MOL   H23626210   2.494   0.821   0.627  0.3150 -2.9880 -0.5285
   28MOL   H23726211   2.379   0.907   0.521  1.2393 -0.0142 -0.3376
   28MOL   H23826212   2.571   0.789   0.388 -0.1083  1.2154  0.5297
   28MOL   H23926213   2.406   0.730   0.354  0.1986 -2.1459 -0.9536
   28MOL   H24026214   2.624   0.594   0.518 -1.2120 -4.9840  1.5563
   28MOL   H24126215   2.462   0.532   0.510 -0.2826  0.5585  1.5025
   28MOL   N24226216   2.577   0.386   0.324 -0.5174 -0.0268 -0.1093
   28MOL   C24326217   2.640   0.301   0.233  0.8454  0.0821  0.1899
   28MOL   C24426218   2.641   0.158   0.273  0.4924 -0.9929 -0.3774
   28MOL   C24526219   2.754   0.112   0.344  0.1032  0.3639 -0.3585
   28MOL   C24626220   2.767   7.771   0.398 -0.1631  0.4080 -0.7803
   28MOL   C24726221   2.653   7.687   0.385 -0.4121  0.2776 -0.1876
   28MOL   C24826222   2.540   7.734   0.311  0.4638 -0.9329 -0.3451
   28MOL   C24926223   2.532   0.071   0.255  0.1498 -0.2866 -0.9382
   28MOL   C25026224   2.413   0.101   0.172 -0.0429  0.0292  0.3326
   28MOL   N25126225   2.334   0.220   0.208  0.3373  0.3536 -0.1446
   28MOL   C25226226   2.294   0.322   0.129  0.0411 -0.2410 -0.1908
   28MOL   O25326227   2.302   0.312   0.006 -0.1707 -0.2490 -0.0851
   28MOL   C25426228   2.225   0.436   0.194 -0.1202  0.1896 -0.0200
   28MOL   C25526229   2.249   0.580   0.137  0.3040  0.3948 -0.3518
   28MOL   C25626230   2.143   0.672   0.196  0.2823  0.0700  0.2526
   28MOL   C25726231   2.175   0.819   0.175 -0.5380 -0.3785  0.0027
   28MOL   C25826232   2.103   0.914   0.269 -0.3968 -0.5744  0.6930
   28MOL   C25926233   2.146   1.060   0.257  0.0826  0.4050  0.9036
   28MOL   C26026234   2.107   1.141   0.388  0.4930 -0.4740  0.1417
   28MOL   C26126235   1.964   1.187   0.389  0.2459  0.2436 -0.7663
   28MOL   C26226236   1.934   1.313   0.299  0.8646 -0.0337 -0.6836
   28MOL   O26326237   2.015   1.400   0.282  0.3590 -0.1900 -0.0910
   28MOL   H26426238   2.529   0.337   0.398  0.6199 -2.5032 -0.9493
   28MOL   H26526239   2.613   0.306   0.128  2.6781 -2.3268 -0.4522
   28MOL   H26626240   2.742   0.336   0.213  1.7312 -2.7612 -0.4841
   28MOL   H26726241   2.832   0.184   0.369 -0.1786  0.2537  0.8998
   28MOL   H26826242   2.854   7.738   0.452  0.1752 -1.1484 -2.2532
   28MOL   H26926243   2.665   7.586   0.422  0.2683  0.6655  0.6711
   28MOL   H27026244   2.462   7.661   0.298 -0.5924  0.1625 -0.2065
   28MOL   H27126245   2.344   0.017   0.180  0.2429 -0.2586 -0.2618
   28MOL   H27226246   2.435   0.121   0.067  0.1294 -0.3326  0.2974
   28MOL   H27326247   2.344   0.229   0.308  1.0262 -0.7110 -0.1184
   28MOL   H27426248   2.234   0.421   0.302  2.5707 -2.8383 -0.6011
   28MOL   H27526249   2.120   0.411   0.184 -0.1827  0.4356  0.0211
   28MOL   H27626250   2.245   0.592   0.028 -0.4997  1.5455 -0.2034
   28MOL   H27726251   2.341   0.615   0.182 -1.5171  0.1302  3.7761
   28MOL   H27826252   2.143   0.658   0.304 -0.5149  0.1748  0.2643
   28MOL   H27926253   2.042   0.646   0.167  0.2171 -0.3185  0.8237
   28MOL   H28026254   2.282   0.837   0.184 -0.3183 -1.2687 -0.7895
   28MOL   H28126255   2.163   0.835   0.068  0.3340 -0.2495 -0.0750
   28MOL   H28226256   1.995   0.906   0.252 -1.0321  0.1377  3.9726
   28MOL   H28326257   2.122   0.876   0.369 -3.1749 -2.6046  0.5082
   28MOL   H28426258   2.113   1.100   0.161  2.7529 -0.5806 -0.4506
   28MOL   H28526259   2.254   1.070   0.266  0.1306  1.1208 -0.3473
   28MOL   H28626260   2.122   1.100   0.488 -1.2643 -0.7141  0.3282
   28MOL   H28726261   2.168   1.231   0.389  0.8884 -0.7425  0.3282
   28MOL   H28826262   1.895   1.105   0.369 -0.0028 -0.2170  1.8315
   28MOL   H28926263   1.949   1.212   0.494  1.8677 -2.3258  0.1337
   28MOL   N29026264   1.812   1.318   0.250  0.5937  0.7153 -0.0940
   28MOL   C29126265   1.751   1.434   0.188 -0.4493  0.2451 -0.5097
   28MOL   C29226266   1.773   1.444   0.039  0.2924 -0.1914  1.0667
   28MOL   C29326267   1.835   1.337   7.763 -0.5626 -0.0395 -0.4101
   28MOL   C29426268   1.837   1.321   7.626 -0.2044 -0.7269 -0.2304
   28MOL   C29526269   1.771   1.414   7.546  0.3844 -0.4008 -0.2538
   28MOL   C29626270   1.703   1.525   7.606 -0.3737 -0.1621 -0.5286
   28MOL   C29726271   1.714   1.541   7.747 -0.1729  0.1519  0.2437
   28MOL   C29826272   1.629   1.652   0.021 -0.5649 -0.0355  0.6535
   28MOL   N29926273   1.674   1.789   7.760 -0.0210  0.5409 -0.1608
   28MOL   C30026274   1.613   1.880   7.682  0.0665 -0.7182 -0.1461
   28MOL   O30126275   1.499   1.870   7.634 -0.2986  0.3342  0.1562
   28MOL   C30226276   1.696   2.004   7.641  0.5648 -0.0828  0.3373
   28MOL   C30326277   1.618   2.136   7.659  0.5423 -0.0966 -0.0086
   28MOL   C30426278   1.690   2.243   7.579  0.0220 -0.4990  0.3046
   28MOL   C30526279   1.638   2.381   7.618  0.9960 -0.0801  0.1821
   28MOL   C30626280   1.683   2.490   7.521  0.2795 -0.1977 -0.0376
   28MOL   C30726281   1.822   2.483   7.468  0.0021 -0.0813 -0.8830
   28MOL   C30826282   1.855   2.615   7.396 -0.4303 -0.7910 -0.0369
   28MOL   C30926283   2.000   2.626   7.353  0.9787  0.5614 -0.2208
   28MOL   C31026284   2.021   2.727   7.250  0.6399 -0.2378 -0.7809
   28MOL   O31126285   2.030   2.844   7.278 -0.1482  0.5090  0.0553
   28MOL   H31226286   1.750   1.251   0.293 -0.5132 -0.3111 -3.2177
   28MOL   H31326287   1.643   1.425   0.199 -0.2911  2.0589  2.8150
   28MOL   H31426288   1.787   1.526   0.234 -0.2406 -0.7258  1.2990
   28MOL   H31526289   1.881   1.259   0.032 -0.4214  0.6349  0.3801
   28MOL   H31626290   1.896   1.240   7.585 -0.3521 -0.5317 -0.8347
   28MOL   H31726291   1.774   1.406   7.438  0.1664 -0.3391 -0.2639
   28MOL   H31826292   1.661   1.601   7.542 -2.4456  0.6978  1.7989
   28MOL   H31926293   1.651   1.656   0.127 -0.9027  1.4900  0.6822
   28MOL   H32026294   1.521   1.638   0.007 -0.2704 -0.9927 -0.7813
   28MOL   H32126295   1.761   1.822   0.010 -0.7758  1.5688  0.6792
   28MOL   H32226296   1.788   2.012   7.699  0.1832  2.7336  0.6429
   28MOL   H32326297   1.725   1.988   7.537 -0.4627 -0.0690  0.0339
   28MOL   H32426298   1.618   2.171   7.762 -0.6208 -0.6756  0.1914
   28MOL   H32526299   1.519   2.132   7.614 -0.2124 -0.8628  1.7044
   28MOL   H32626300   1.680   2.234   7.471  0.3335  0.5161  0.1840
   28MOL   H32726301   1.797   2.248   7.600 -0.2074  0.6635  1.3074
   28MOL   H32826302   1.532   2.373   7.643  0.8065  0.2790 -0.5213
   28MOL   H32926303   1.690   2.416   7.708  0.9937  0.1084  0.1093
   28MOL   H33026304   1.614   2.479   7.437 -0.5654  0.5875  0.5548
   28MOL   H33126305   1.661   2.586   7.567 -2.8074  0.0245 -1.7980
   28MOL   H33226306   1.834   2.401   7.398  1.7212 -0.1911 -0.4680
   28MOL   H33326307   1.885   2.455   7.552 -0.5916 -0.8512 -0.6833
   28MOL   H33426308   1.783   2.629   7.316  0.6767  0.1421 -0.8876
   28MOL   H33526309   1.836   2.693   7.469 -2.0894 -0.6960 -0.5698
   28MOL   H33626310   2.055   2.638   7.447  0.0184  1.2483  0.2505
   28MOL   H33726311   2.035   2.529   7.317  1.4297  0.8775 -0.6380
   28MOL   N33826312   2.014   2.682   7.129 -0.1299 -0.1432  0.0441
   28MOL   C33926313   1.997   2.767   7.012  0.1833  0.0984 -0.2700
   28MOL   C34026314   1.955   2.682   6.887 -0.0395  0.4910  0.1628
   28MOL   C34126315   2.051   2.667   6.783  0.1495  0.3166  0.2411
   28MOL   C34226316   2.019   2.582   6.676  0.4394  0.0996  1.0051
   28MOL   C34326317   1.896   2.511   6.671 -0.0394 -0.3008  0.1537
   28MOL   C34426318   1.795   2.543   6.763 -0.0814  0.6067 -0.9873
   28MOL   C34526319   1.827   2.624   6.871 -0.4181 -0.6946 -0.4737
   28MOL   C34626320   1.718   2.648   6.978 -0.0649 -0.1628  0.2545
   28MOL   N34726321   1.666   2.786   6.983 -0.0772 -0.3193 -0.2595
   28MOL   C34826322   1.556   2.813   7.051  0.5247  0.7357  1.4753
   28MOL   O34926323   1.471   2.725   7.083 -0.1421  0.3544  0.0074
   28MOL   C35026324   1.520   2.958   7.083 -0.1574  0.1843  0.2461
   28MOL   C35126325   1.379   2.996   7.128  0.1368  0.1819 -0.1140
   28MOL   C35226326   1.260   2.965   7.037 -0.4816  0.4237 -0.6183
   28MOL   C35326327   1.217   3.068   6.930  0.2904  0.0968 -0.0954
   28MOL   C35426328   1.083   3.039   6.859  0.3553  0.2754  0.0835
   28MOL   C35526329   1.069   3.110   6.720  0.2863 -0.7926  0.4489
   28MOL   C35626330   1.148   3.040   6.610  0.3821 -0.5307 -0.1618
   28MOL   C35726331   1.142   3.110   6.470 -0.1874  0.1835  0.4081
   28MOL   C35826332   1.025   3.074   6.382  0.5991  0.1320  0.1240
   28MOL   O35926333   0.910   3.053   6.436 -0.4631 -0.1536 -0.0143
   28MOL   H36026334   2.005   2.582   7.117  2.4466 -0.4755  0.4871
   28MOL   H36126335   1.918   2.840   7.026 -0.4929 -0.6146 -0.3138
   28MOL   H36226336   2.087   2.828   7.004  0.3158  0.5454  3.7880
   28MOL   H36326337   2.147   2.715   6.795  0.4145 -0.8281  2.9606
   28MOL   H36426338   2.091   2.567   6.597 -0.1069  0.9807  0.3196
   28MOL   H36526339   1.874   2.438   6.594  2.2861  0.1678 -0.9834
   28MOL   H36626340   1.695   2.502   6.757 -0.4927  1.4487  0.0719
   28MOL   H36726341   1.761   2.628   7.076 -3.1250  0.1802  1.7456
   28MOL   H36826342   1.639   2.573   6.968 -0.2383  0.2889 -2.2697
   28MOL   H36926343   1.723   2.861   6.945 -0.1142  0.2079  0.6982
   28MOL   H37026344   1.555   3.015   6.998  1.7996 -3.2783 -1.3968
   28MOL   H37126345   1.582   2.994   7.165  0.6325  1.8270 -1.0548
   28MOL   H37226346   1.380   3.105   7.137 -0.1812  0.2178 -0.4949
   28MOL   H37326347   1.348   2.940   7.216  0.9221 -2.8253 -1.6902
   28MOL   H37426348   1.273   2.862   7.003 -0.2414 -0.3807  1.7434
   28MOL   H37526349   1.173   2.963   7.104 -1.9803 -3.1513 -2.5239
   28MOL   H37626350   1.304   3.070   6.865  0.6815 -3.9870  0.2131
   28MOL   H37726351   1.210   3.163   6.983 -2.1159  0.2552 -0.6249
   28MOL   H37826352   1.071   2.932   6.841 -1.1680  0.1415  1.8187
   28MOL   H37926353   0.993   3.070   6.912 -1.0287 -2.6612 -0.4492
   28MOL   H38026354   1.114   3.208   6.734 -0.7222 -0.3216  0.4468
   28MOL   H38126355   0.962   3.121   6.702  0.9160 -0.3569 -3.3465
   28MOL   H38226356   1.250   3.017   6.643  0.1326  0.1341  1.1194
   28MOL   H38326357   1.104   2.945   6.582  0.9158 -0.4877 -1.1589
   28MOL   H38426358   1.238   3.095   6.420 -1.1701 -2.3424 -0.8304
   28MOL   H38526359   1.142   3.216   6.492 -0.3251  0.0396  1.1126
   28MOL   N38626360   1.040   3.072   6.250  0.5326  0.3078  0.2477
   28MOL   C38726361   0.947   3.050   6.137 -0.0307 -0.7357  0.1610
   28MOL   C38826362   1.033   3.005   6.021  0.6441 -0.2539 -0.0099
   28MOL   C38926363   1.079   2.867   6.013  0.2718  1.1189 -0.1738
   28MOL   C39026364   1.159   2.827   5.902 -0.2055 -0.1642  0.0513
   28MOL   C39126365   1.205   2.918   5.807  0.0005 -0.0254  0.5829
   28MOL   C39226366   1.153   3.043   5.800  0.2109 -0.4084 -0.1946
   28MOL   C39326367   1.076   3.088   5.913 -0.4040 -0.0928  0.0089
   28MOL   C39426368   1.037   3.237   5.900  0.3203  0.0449 -0.0251
   28MOL   N39526369   1.097   3.314   6.006  0.2175 -0.0086 -0.6422
   28MOL   C39626370   1.081   3.449   6.015 -0.3983  0.1008  0.1629
   28MOL   O39726371   1.016   3.510   5.931  0.0150 -0.6665  0.6218
   28MOL   C39826372   1.153   3.527   6.121  0.3028 -0.6924 -0.2646
   28MOL   C39926373   1.070   3.560   6.247 -0.3144 -0.6419 -0.7665
   28MOL   C40026374   1.076   3.453   6.357  0.1568  0.0341 -0.2868
   28MOL   C40126375   0.955   3.436   6.448  0.1351  0.0917  0.0710
   28MOL   C40226376   0.953   3.550   6.544  0.0380 -0.4131  0.6501
   28MOL   C40326377   0.814   3.557   6.600  0.1776  0.4000 -0.6332
   28MOL   C40426378   0.795   3.689   6.685  0.0530  1.0706 -0.0358
   28MOL   C40526379   0.647   3.719   6.715  0.0890  0.4743 -0.0189
   28MOL   C40626380   0.568   3.755   6.593  0.9499 -0.0271 -0.3510
   28MOL   O40726381   0.624   3.813   6.502 -0.3099 -0.1017 -0.1926
   28MOL   H40826382   1.138   3.080   6.231  0.8624  2.2590  2.5610
   28MOL   H40926383   0.868   2.977   6.155 -0.5435 -0.3177 -0.3601
   28MOL   H41026384   0.904   3.149   6.119 -0.6599 -1.1063 -0.3863
   28MOL   H41126385   1.044   2.799   6.089 -2.9176  1.2911 -1.4273
   28MOL   H41226386   1.188   2.724   5.890 -0.2520 -0.4854  2.4874
   28MOL   H41326387   1.269   2.891   5.724 -2.0995 -0.7641 -0.8583
   28MOL   H41426388   1.169   3.110   5.716 -1.0338  2.3642  1.6849
   28MOL   H41526389   0.929   3.244   5.896  0.2958 -0.6002 -0.5174
   28MOL   H41626390   1.067   3.273   5.802  1.2709 -1.3315 -0.2587
   28MOL   H41726391   1.171   3.271   6.060 -0.0273 -0.1831 -0.4490
   28MOL   H41826392   1.239   3.473   6.160  0.4608 -0.9783 -1.0193
   28MOL   H41926393   1.187   3.620   6.076  1.2383  0.3061  2.4181
   28MOL   H42026394   0.964   3.552   6.223 -0.2411  2.3984 -2.2485
   28MOL   H42126395   1.077   3.662   6.284 -0.2676 -1.1637  0.7305
   28MOL   H42226396   1.175   3.463   6.402 -0.2074  1.3022  0.2767
   28MOL   H42326397   1.082   3.361   6.299 -0.4176 -0.3793  0.3012
   28MOL   H42426398   0.862   3.433   6.390  0.3294  0.7602 -0.2739
   28MOL   H42526399   0.950   3.342   6.504  0.1906  0.7344  1.1639
   28MOL   H42626400   1.030   3.561   6.620  1.1396  1.8041 -0.7133
   28MOL   H42726401   0.958   3.641   6.484 -0.1051  0.1088  1.4130
   28MOL   H42826402   0.792   3.477   6.670 -0.6724  1.4137  0.2863
   28MOL   H42926403   0.738   3.556   6.522  0.9340  0.8983 -1.3867
   28MOL   H43026404   0.837   3.771   6.627  1.6453 -1.2992 -2.3450
   28MOL   H43126405   0.859   3.690   6.773 -1.3588  1.1053  1.0172
   28MOL   H43226406   0.636   3.798   6.789  1.3727  2.0714 -1.4994
   28MOL   H43326407   0.592   3.644   6.772 -2.5421  0.4084 -2.5452
   28MOL   N43426408   0.439   3.720   6.597  0.2603 -0.6879 -0.5166
   28MOL   C43526409   0.354   3.743   6.479 -0.1581  0.1279  0.4223
   28MOL   C43626410   0.207   3.725   6.500  0.3923 -0.3114  0.3621
   28MOL   C43726411   0.155   3.662   6.615  0.2342  0.4172  0.1965
   28MOL   C43826412   0.014   3.643   6.636  0.2512  0.0821  0.2876
   28MOL   C43926413   7.716   3.697   6.542 -0.7820  0.4390 -0.1146
   28MOL   C44026414   7.769   3.762   6.427  0.8046 -0.0279  0.6900
   28MOL   C44126415   0.117   3.773   6.402 -0.9010  0.1650 -0.5474
   28MOL   C44226416   0.163   3.835   6.270 -0.2745  1.0160 -0.0163
   28MOL   N44326417   0.132   3.741   6.165 -0.2701 -0.1260 -0.1549
   28MOL   C44426418   0.211   3.639   6.126 -0.2992  0.0482 -0.7525
   28MOL   O44526419   0.331   3.630   6.152  0.2137  0.2723 -0.1363
   28MOL   C44626420   0.144   3.545   6.026 -0.2751  0.0330 -0.3146
   28MOL   C44726421   0.228   3.433   5.961  0.0479  1.3555  0.4789
   28MOL   C44826422   0.249   3.323   6.070  0.4573 -0.2906 -0.1629
   28MOL   C44926423   0.376   3.244   6.049  0.4342  0.1380  0.2742
   28MOL   C45026424   0.393   3.137   6.158 -0.3074 -0.4891  0.0162
   28MOL   C45126425   0.533   3.065   6.151 -0.0940 -0.5057 -1.1821
   28MOL   C45226426   0.545   2.936   6.225  0.6656 -0.0742 -0.1320
   28MOL   C45326427   0.570   2.950   6.379 -0.2024 -0.3615  1.0971
   28MOL   C45426428   0.638   2.829   6.436  0.2618 -0.1099  0.8373
   28MOL   O45526429   0.590   2.714   6.420 -0.5849 -0.0538 -0.1386
   28MOL   H45626430   0.399   3.683   6.682  1.8493 -0.6916  0.2526
   28MOL   H45726431   0.402   3.694   6.395  0.4690 -0.5341  1.1587
   28MOL   H45826432   0.365   3.850   6.461  1.3797  0.2842  2.0919
   28MOL   H45926433   0.219   3.627   6.696 -0.1628 -2.5662 -0.7234
   28MOL   H46026434   7.778   3.599   6.731 -4.6154  0.5632 -0.6556
   28MOL   H46126435   7.609   3.697   6.561 -0.8950 -1.1392 -0.6561
   28MOL   H46226436   7.703   3.804   6.352 -0.0974  0.9847  2.0223
   28MOL   H46326437   0.266   3.869   6.268  0.1961 -0.3925 -0.0393
   28MOL   H46426438   0.107   3.928   6.256 -2.5412 -0.4156 -0.6998
   28MOL   H46526439   0.053   3.763   6.106  0.3327 -0.3150 -1.0463
   28MOL   H46626440   0.116   3.606   5.940  2.3700  1.3143 -0.3217
   28MOL   H46726441   0.054   3.508   6.075 -1.3511  2.2214 -0.5801
   28MOL   H46826442   0.317   3.492   5.935  0.9027  0.4499  1.3152
   28MOL   H46926443   0.192   3.395   5.866  2.9453 -0.5081  0.0478
   28MOL   H47026444   0.242   3.363   6.172 -0.1015  0.6028 -0.5482
   28MOL   H47126445   0.162   3.259   6.069  0.7380 -0.6694 -0.4553
   28MOL   H47226446   0.383   3.214   5.945 -0.5373  1.2787 -0.1432
   28MOL   H47326447   0.461   3.312   6.046  0.9166 -0.4263  1.0746
   28MOL   H47426448   0.387   3.176   6.260 -1.1079  0.9282 -0.5701
   28MOL   H47526449   0.305   3.073   6.150 -1.0355  0.7217 -1.8002
   28MOL   H47626450   0.624   3.119   6.178 -0.1104  0.2492 -2.6244
   28MOL   H47726451   0.557   3.059   6.045  0.7328  0.9510 -1.0952
   28MOL   H47826452   0.450   2.886   6.205 -1.2614  3.0127  0.8485
   28MOL   H47926453   0.631   2.883   6.184  1.4256  1.2776 -0.3027
   28MOL   H48026454   0.638   3.032   6.398  1.1900 -1.3826  0.5714
   28MOL   H48126455   0.473   2.977   6.422 -0.2674 -2.6087  2.4279
   28MOL   N48226456   0.743   2.858   6.512  0.3433  0.5087 -0.1697
   28MOL   C48326457   0.824   2.762   6.592  0.5348  0.1597 -0.9114
   28MOL   C48426458   0.823   2.782   6.746 -0.0725 -0.5412 -0.0228
   28MOL   C48526459   0.725   2.870   6.801 -0.2133 -0.8156  0.7089
   28MOL   C48626460   0.710   2.886   6.939  0.8863 -0.4779  0.5915
   28MOL   C48726461   0.796   2.819   7.030  0.0234 -0.3014 -0.2486
   28MOL   C48826462   0.895   2.731   6.976  1.1226 -0.5783 -0.2558
   28MOL   C48926463   0.902   2.709   6.839 -0.2986 -0.2608 -0.2149
   28MOL   C49026464   1.010   2.613   6.777  0.7022 -0.3904 -0.7978
   28MOL   N49126465   1.145   2.667   6.799 -0.1953  0.2173  0.5215
   28MOL   C49226466   1.237   2.696   6.702 -0.6680  0.4135  0.0618
   28MOL   O49326467   1.210   2.688   6.584  0.0430 -0.1371  0.0667
   28MOL   C49426468   1.382   2.732   6.740  0.6427 -0.2617  0.2438
   28MOL   C49526469   1.487   2.739   6.625 -0.7162 -0.2561  0.0187
   28MOL   C49626470   1.490   2.869   6.546 -0.9311  0.5064 -0.0505
   28MOL   C49726471   1.612   2.888   6.462  0.0962 -0.5065 -0.5838
   28MOL   C49826472   1.746   2.928   6.525  0.1558 -0.1729  0.1833
   28MOL   C49926473   1.730   3.047   6.630  0.2200  0.4848 -0.1237
   28MOL   C50026474   1.865   3.096   6.676 -0.4226  0.1979 -0.2142
   28MOL   C50126475   1.853   3.197   6.793 -0.4965 -0.2166 -1.2009
   28MOL   C50226476   1.874   3.141   6.934 -0.3657  0.4815 -0.2038
   28MOL   O50326477   1.807   3.047   6.975 -0.4676  0.1056 -0.8441
   28MOL   H50426478   0.770   2.955   6.500 -1.5350  0.8398 -1.8651
   28MOL   H50526479   0.800   2.657   6.577  0.9870 -0.4824  2.4705
   28MOL   H50626480   0.926   2.776   6.557  1.3781 -1.2419  0.9216
   28MOL   H50726481   0.662   2.929   6.736 -0.5545 -1.5536  0.3577
   28MOL   H50826482   0.638   2.958   6.974  0.1802 -1.3812  1.0265
   28MOL   H50926483   0.776   2.849   7.131 -1.3393 -0.2764 -0.5172
   28MOL   H51026484   0.956   2.668   7.039 -0.8698 -0.3681  1.9432
   28MOL   H51126485   0.995   2.581   6.673  0.1118  0.1730 -0.8893
   28MOL   H51226486   0.998   2.515   6.822  0.8721  0.0499  0.2078
   28MOL   H51326487   1.170   2.694   6.893 -0.4593  0.8739  0.4083
   28MOL   H51426488   1.424   2.648   6.794 -0.9593 -1.6389 -0.6085
   28MOL   H51526489   1.383   2.830   6.788  1.8388 -0.0932 -0.1088
   28MOL   H51626490   1.470   2.658   6.554  2.6193  1.3441 -2.7558
   28MOL   H51726491   1.588   2.721   6.662 -0.8795  0.8133  1.0543
   28MOL   H51826492   1.408   2.858   6.476 -1.8465  2.5187  0.6707
   28MOL   H51926493   1.464   2.961   6.599 -1.8382 -1.3740  2.9091
   28MOL   H52026494   1.626   2.792   6.411  0.6560 -0.4307 -0.5763
   28MOL   H52126495   1.583   2.954   6.381 -2.6095 -0.9322 -0.0197
   28MOL   H52226496   1.779   2.846   6.588 -0.6386 -2.3415 -2.1266
   28MOL   H52326497   1.822   2.936   6.447  0.3283 -0.1157  0.3580
   28MOL   H52426498   1.671   2.999   6.708 -1.5574 -0.8124 -2.1926
   28MOL   H52526499   1.678   3.133   6.588 -1.9142 -0.4539  0.5245
   28MOL   H52626500   1.923   3.007   6.700  0.3017  1.2609  2.1760
   28MOL   H52726501   1.902   3.147   6.588  0.0033 -1.3086 -0.9267
   28MOL   H52826502   1.755   3.245   6.797 -0.3558  0.0426 -0.9185
   28MOL   H52926503   1.931   3.269   6.771 -1.1454  1.5082  1.9233
   28MOL   N53026504   1.970   3.203   7.002 -0.3087 -0.5360  0.0454
   28MOL   C53126505   2.020   3.155   7.131  0.0126 -0.9237  0.3919
   28MOL   C53226506   2.105   3.264   7.198  0.1520 -0.0188 -0.2824
   28MOL   C53326507   2.057   3.316   7.323  0.1207  0.0749 -0.0345
   28MOL   C53426508   2.120   3.414   7.388  0.2270 -0.1611 -0.0691
   28MOL   C53526509   2.242   3.464   7.348  0.0482 -0.4365  0.0535
   28MOL   C53626510   2.299   3.409   7.234 -0.2750 -0.6781  0.5121
   28MOL   C53726511   2.238   3.307   7.166  0.2735  0.4679  0.0736
   28MOL   C53826512   2.312   3.245   7.053 -0.1718 -0.2213  0.5864
   28MOL   N53926513   2.351   3.336   6.945  0.4972 -0.5579 -0.0506
   28MOL   C54026514   2.269   3.405   6.870  0.6160 -0.0864  0.1705
   28MOL   O54126515   2.146   3.405   6.885 -0.1913  1.0833  0.4866
   28MOL   C54226516   2.338   3.486   6.750  0.1049  0.4710 -0.2773
   28MOL   C54326517   2.249   3.525   6.632  0.6192  0.0154  0.2929
   28MOL   C54426518   2.198   3.407   6.544 -0.1881  0.2144  0.0686
   28MOL   C54526519   2.295   3.352   6.438  0.2251  0.2021  0.3320
   28MOL   C54626520   2.292   3.426   6.310 -0.1873  0.2460  0.0451
   28MOL   C54726521   2.425   3.407   6.231  0.4146 -0.1128  0.4695
   28MOL   C54826522   2.429   3.486   6.094  0.0100 -0.5775  0.0762
   28MOL   C54926523   2.572   3.505   6.043  0.6591  0.4078  0.2204
   28MOL   C55026524   2.633   3.637   6.100 -0.7717 -0.3501 -0.5257
   28MOL   O55126525   2.563   3.738   6.119  0.1896 -0.1633  0.2488
   28MOL   H55226526   2.010   3.286   6.962  1.4162 -0.0371  2.7407
   28MOL   H55326527   2.072   3.061   7.117 -0.7365 -1.6114  2.0765
   28MOL   H55426528   1.940   3.127   7.199 -1.3642  2.4904  0.3066
   28MOL   H55526529   1.965   3.279   7.367  1.7528 -0.4597  3.0900
   28MOL   H55626530   2.072   3.447   7.479  0.7003  1.0453 -0.2524
   28MOL   H55726531   2.287   3.549   7.398 -1.7955  0.7675 -0.3136
   28MOL   H55826532   2.396   3.440   7.198 -1.2647  1.3884 -0.4012
   28MOL   H55926533   2.247   3.170   7.006 -0.2153 -0.3816  0.8964
   28MOL   H56026534   2.398   3.189   7.089  0.8561  1.0473  0.1249
   28MOL   H56126535   2.448   3.339   6.917 -0.0733 -2.8152 -2.4766
   28MOL   H56226536   2.432   3.441   6.718 -1.5347 -3.3016 -0.0286
   28MOL   H56326537   2.362   3.581   6.798  0.5589  0.7259 -0.9928
   28MOL   H56426538   2.289   3.606   6.572  0.5747 -0.4448 -0.3570
   28MOL   H56526539   2.163   3.568   6.684  0.6879  1.8824 -1.1113
   28MOL   H56626540   2.178   3.328   6.617 -1.2982 -0.2555 -0.7346
   28MOL   H56726541   2.113   3.450   6.492  1.2723  2.2511 -0.6989
   28MOL   H56826542   2.391   3.353   6.491  0.0110 -0.7281  0.7551
   28MOL   H56926543   2.274   3.246   6.423 -0.9908  0.1938  1.9625
   28MOL   H57026544   2.209   3.404   6.242  0.1817 -0.1568 -0.2802
   28MOL   H57126545   2.278   3.531   6.333  0.5213  0.0957  1.2062
   28MOL   H57226546   2.452   3.303   6.211 -1.5296 -0.6263  0.3870
   28MOL   H57326547   2.504   3.453   6.290  2.8482 -1.8488 -1.3110
   28MOL   H57426548   2.373   3.410   6.039 -2.3978 -0.5554  2.4068
   28MOL   H57526549   2.378   3.583   6.089  0.6630 -0.3393 -2.6962
   28MOL   H57626550   2.566   3.512   5.935  1.5139  0.8878  0.2054
   28MOL   H57726551   2.641   3.427   6.076 -0.5057 -2.1278 -3.0622
   28MOL   N57826552   2.760   3.641   6.132  0.1608  0.2295  0.1700
   28MOL   C57926553   2.827   3.764   6.157 -0.6647  0.4139 -0.7138
   28MOL   C58026554   2.960   3.754   6.220  0.3435  0.7378  0.8494
   28MOL   C58126555   3.074   3.783   6.147 -0.0178  0.0513 -0.0354
   28MOL   C58226556   3.202   3.771   6.205 -0.0168  0.4821  0.6902
   28MOL   C58326557   3.220   3.710   6.326 -0.6667  0.0298 -0.0812
   28MOL   C58426558   3.105   3.674   6.400 -0.0206  0.6261 -0.1861
   28MOL   C58526559   2.978   3.694   6.344  0.1439  0.0058 -0.4404
   28MOL   C58626560   2.860   3.653   6.427 -0.4390 -1.2666  0.3471
   28MOL   N58726561   2.843   3.510   6.419 -0.4239 -0.2543 -0.5349
   28MOL   C58826562   2.741   3.445   6.475 -0.1230 -0.4079  0.1152
   28MOL   O58926563   2.658   3.502   6.539 -0.3805  0.1746  0.5015
   28MOL   C59026564   2.740   3.293   6.457  0.6489  0.2775  0.1328
   28MOL   C59126565   2.805   3.216   6.576  0.1902 -0.3895  0.7874
   28MOL   C59226566   2.715   3.225   6.705 -0.3291  0.4049  0.6097
   28MOL   C59326567   2.779   3.143   6.814  0.9155 -0.2783  0.2190
   28MOL   C59426568   2.723   3.178   6.955  0.2902 -0.1230  0.2756
   28MOL   C59526569   2.806   3.107   7.067 -0.5948 -0.1368 -0.3453
   28MOL   C59626570   2.754   3.155   7.207  0.2007  0.4179 -0.5737
   28MOL   C59726571   2.832   3.101   7.329  0.8084 -0.1605  0.2478
   28MOL   C59826572   2.817   2.953   7.364  0.3202  0.1306  0.4159
   28MOL   O59926573   2.772   2.867   7.287  0.7506 -0.4759 -0.0600
   28MOL   H60026574   2.829   3.567   6.127 -1.0673 -0.9664  0.8354
   28MOL   H60126575   2.761   3.829   6.215  0.7925  1.2710 -0.0062
   28MOL   H60226576   2.852   3.821   6.067  1.5489 -0.2537 -0.5434
   28MOL   H60326577   3.076   3.813   6.043 -0.2063 -0.8932 -0.3185
   28MOL   H60426578   3.286   3.798   6.142  0.1042  1.7151  1.3671
   28MOL   H60526579   3.313   3.693   6.378  0.4221 -0.1437 -2.0210
   28MOL   H60626580   3.109   3.637   6.501 -2.4606  0.7968  0.0167
   28MOL   H60726581   2.768   3.710   6.415 -0.1572 -0.8591  0.0900
   28MOL   H60826582   2.886   3.675   6.530  1.8156  0.4565 -0.5292
   28MOL   H60926583   2.901   3.464   6.350  0.5403  1.5410 -0.9428
   28MOL   H61026584   2.793   3.260   6.368 -0.7905 -0.8621 -0.3362
   28MOL   H61126585   2.641   3.248   6.443  0.7245 -0.5995  2.2476
   28MOL   H61226586   2.901   3.265   6.593  0.6207 -0.6432 -0.8781
   28MOL   H61326587   2.827   3.111   6.559  0.6086 -0.2251  0.3158
   28MOL   H61426588   2.692   3.325   6.742  0.5641  1.1698 -0.8349
   28MOL   H61526589   2.618   3.186   6.675  0.7404  0.3936 -2.9839
   28MOL   H61626590   2.771   3.037   6.792  0.4324 -0.2104  0.0515
   28MOL   H61726591   2.887   3.156   6.813  0.9784 -0.8329 -0.8039
   28MOL   H61826592   2.725   3.287   6.959 -0.7530 -0.0550 -0.6360
   28MOL   H61926593   2.616   3.155   6.952  0.0420  0.8414  1.5905
   28MOL   H62026594   2.909   3.137   7.049 -0.6077 -0.8117 -1.6125
   28MOL   H62126595   2.801   2.999   7.050 -1.8671  0.0118 -0.9653
   28MOL   H62226596   2.773   3.262   7.213  1.1723  0.3658 -2.4997
   28MOL   H62326597   2.649   3.129   7.222  0.8759 -2.1438 -0.1702
   28MOL   H62426598   2.939   3.115   7.312  0.5434  0.0864 -1.3542
   28MOL   H62526599   2.822   3.157   7.421  1.5668 -0.8844  0.7812
   28MOL   N62626600   2.862   2.923   7.489  0.4239  0.4633  0.1478
   28MOL   C62726601   2.841   2.801   7.558 -0.4994 -0.2365  0.4348
   28MOL   C62826602   2.972   2.728   7.606 -0.0291 -0.8749  0.2504
   28MOL   C62926603   3.018   2.616   7.529  0.4835 -0.2682  0.4111
   28MOL   C63026604   3.137   2.543   7.555  0.0446  0.3721 -0.1491
   28MOL   C63126605   3.203   2.580   7.672  0.6379 -0.4508  0.5532
   28MOL   C63226606   3.158   2.684   7.752 -0.0086  0.3393 -0.1599
   28MOL   C63326607   3.048   2.767   7.718 -0.1178  0.4868  0.2906
   28MOL   C63426608   3.022   2.892   0.010  0.3066 -0.5373 -0.1841
   28MOL   N63526609   3.108   3.003   7.773  0.1370  0.3679  0.2932
   28MOL   C63626610   3.079   3.113   7.700  0.1709  0.2331 -0.8351
   28MOL   O63726611   2.972   3.135   7.647  0.4285 -0.0974  0.5918
   28MOL   C63826612   3.195   3.208   7.688  0.2762  0.4355 -0.0058
   28MOL   C63926613   3.162   3.339   7.608  0.2193 -0.3076 -0.7480
   28MOL   C64026614   3.156   3.321   7.454  0.3394  0.0633  0.4140
   28MOL   C64126615   3.108   3.453   7.391  0.2423  0.1767  0.6594
   28MOL   C64226616   3.062   3.436   7.245  0.5685  0.3126  0.5845
   28MOL   C64326617   3.174   3.461   7.143  0.0167 -0.0150 -0.1025
   28MOL   C64426618   3.113   3.483   7.001 -0.1628  0.3396 -0.1967
   28MOL   C64526619   3.222   3.492   6.894 -0.5223  0.9352 -0.1617
   28MOL   C64626620   3.294   3.623   6.874  0.0975  0.0274  0.6119
   28MOL   O64726621   3.281   3.681   6.766  0.0334  0.1046 -0.3990
   28MOL   H64826622   2.910   3.000   7.533 -0.5527  1.9248 -1.2770
   28MOL   H64926623   2.781   2.726   7.507  0.6646 -1.1427  0.3757
   28MOL   H65026624   2.790   2.822   7.652  1.3976 -1.2764  1.7383
   28MOL   H65126625   2.961   2.594   7.440  1.2551 -0.0008 -0.1582
   28MOL   H65226626   3.179   2.462   7.499  1.5864 -0.2016  1.7856
   28MOL   H65326627   3.285   2.514   7.697  0.2156 -0.8624  0.8519
   28MOL   H65426628   3.219   2.710   0.048 -0.3153  0.0836  0.1363
   28MOL   H65526629   3.037   2.864   0.115  0.8202 -0.4016 -0.2213
   28MOL   H65626630   2.916   2.914   7.790  0.2029 -1.3171 -0.8663
   28MOL   H65726631   3.196   2.987   0.031  0.1059 -1.1962 -0.1370
   28MOL   H65826632   3.268   3.161   7.621 -1.0046 -1.1247 -0.3381
   28MOL   H65926633   3.225   3.222   0.002  2.2718  0.8751 -0.6067
   28MOL   H66026634   3.232   3.420   7.628 -0.9613  0.6688 -0.5583
   28MOL   H66126635   3.071   3.385   7.646  0.8786 -0.0887  0.5850
   28MOL   H66226636   3.254   3.292   7.417 -0.5209 -1.1449 -0.9570
   28MOL   H66326637   3.089   3.243   7.417  1.9330 -0.8618 -0.5891
   28MOL   H66426638   3.020   3.485   7.447 -0.9886 -0.7061 -0.7277
   28MOL   H66526639   3.180   3.535   7.398  0.9844 -0.6104  2.4565
   28MOL   H66626640   3.000   3.347   7.234  0.9321  0.1740 -0.3795
   28MOL   H66726641   2.994   3.520   7.228 -0.2982 -0.6283 -0.6602
   28MOL   H66826642   3.236   3.372   7.157  0.7967  0.8445  2.0988
   28MOL   H66926643   3.233   3.548   7.172  1.5058 -0.4649 -1.7307
   28MOL   H67026644   3.049   3.402   6.967 -1.2113  1.2086 -0.2982
   28MOL   H67126645   3.059   3.578   7.001 -2.6052 -0.9862 -2.2913
   28MOL   H67226646   3.171   3.475   6.799 -0.9019  1.0652  0.0173
   28MOL   H67326647   3.287   3.407   6.913 -0.6619  0.3563 -2.2457
   28MOL   N67426648   3.353   3.687   6.973 -0.3679  0.8826 -0.5268
   28MOL   C67526649   3.399   3.827   6.958  0.4705 -0.4926 -0.3132
   28MOL   C67626650   3.539   3.838   6.904 -0.1158  0.3381 -0.1598
   28MOL   C67726651   3.637   3.751   6.939  0.0115  0.5739  0.6345
   28MOL   C67826652   3.770   3.759   6.893 -0.5053  0.0040  0.7336
   28MOL   C67926653   3.804   3.864   6.802 -0.0860 -0.5319 -0.7005
   28MOL   C68026654   3.704   3.959   6.760  0.5202  0.8550 -0.8896
   28MOL   C68126655   3.569   3.947   6.818 -0.2966 -0.2012  0.3032
   28MOL   C68226656   3.474   4.057   6.772 -0.2639  0.4766  0.6497
   28MOL   N68326657   3.389   4.008   6.667 -0.0550  0.6891 -0.2439
   28MOL   C68426658   3.265   4.059   6.659 -0.7735  0.6632  0.5144
   28MOL   O68526659   3.222   4.154   6.722  0.0597 -0.3415 -0.2004
   28MOL   C68626660   3.173   3.986   6.556  0.1952 -0.7268 -0.2550
   28MOL   C68726661   3.146   4.066   6.424 -0.2083 -0.1616  0.0010
   28MOL   C68826662   3.030   4.170   6.423  0.4522  0.6212 -0.2027
   28MOL   C68926663   2.886   4.116   6.415 -0.1820 -0.0946  0.3843
   28MOL   C69026664   2.777   4.218   6.447 -0.2378 -0.8791  0.1079
   28MOL   C69126665   2.640   4.152   6.397 -0.7513  0.3621  0.3465
   28MOL   C69226666   2.515   4.248   6.396  0.4220 -0.2412 -0.4955
   28MOL   C69326667   2.527   4.372   6.304  0.0018 -0.0552 -1.1359
   28MOL   C69426668   2.413   4.476   6.309  0.0087 -0.3265 -0.0522
   28MOL   O69526669   2.325   4.459   6.393 -0.3180 -0.6390 -0.3044
   28MOL   H69626670   3.367   3.635   7.059 -2.1763  0.6765 -0.3191
   28MOL   H69726671   3.386   3.865   7.059  2.4288 -0.0840 -0.1907
   28MOL   H69826672   3.332   3.882   6.892  0.2319 -0.5662 -0.1307
   28MOL   H69926673   3.615   3.679   7.016  2.2233 -0.6736  0.1261
   28MOL   H70026674   3.838   3.688   6.939 -1.4924 -1.2859  0.2453
   28MOL   H70126675   3.907   3.875   6.774  0.0752 -0.0560  0.0646
   28MOL   H70226676   3.727   4.015   6.670  0.5115  1.2201 -0.6627
   28MOL   H70326677   3.538   4.134   6.728  0.6374  0.6022  2.1361
   28MOL   H70426678   3.424   4.107   6.855  0.7081  2.6520 -0.0411
   28MOL   H70526679   3.420   3.920   6.628  1.9525  0.9197  0.7452
   28MOL   H70626680   3.080   3.963   6.607 -0.1511 -1.6995 -1.2949
   28MOL   H70726681   3.218   3.889   6.538  0.4211 -0.8209  0.8066
   28MOL   H70826682   3.121   3.998   6.342  1.8724 -1.3295  0.3038
   28MOL   H70926683   3.235   4.117   6.388 -0.2277  1.2160  1.8143
   28MOL   H71026684   3.057   4.242   6.500 -0.7588  1.7296 -0.8106
   28MOL   H71126685   3.046   4.230   6.334 -0.0903  1.0491 -0.0104
   28MOL   H71226686   2.878   4.075   6.314  0.1199  1.3103 -0.2254
   28MOL   H71326687   2.877   4.036   6.488 -0.5573  0.2171  0.6769
   28MOL   H71426688   2.772   4.249   6.552  0.9959  2.8105 -0.8688
   28MOL   H71526689   2.798   4.310   6.393  1.8012 -1.8409 -0.7868
   28MOL   H71626690   2.617   4.068   6.463  1.0986  0.5958  1.3020
   28MOL   H71726691   2.653   4.096   6.304 -1.9247  0.3936  0.1519
   28MOL   H71826692   2.503   4.289   6.497 -1.6998  1.4541 -1.3895
   28MOL   H71926693   2.426   4.189   6.376  0.4926 -0.9216  1.1073
   28MOL   H72026694   2.548   4.341   6.201  0.0509  3.0768 -2.1150
   28MOL   H72126695   2.616   4.423   6.343 -0.8629 -0.6974  1.8008
   28MOL   N72226696   2.408   4.564   6.207 -0.3767 -0.0608  0.1071
   28MOL   C72326697   2.320   4.687   6.218 -0.5740  0.4408  0.3720
   28MOL   C72426698   2.394   4.817   6.182 -0.2975 -0.0489  0.3475
   28MOL   C72526699   2.478   4.874   6.281 -0.0124  0.0661  0.5607
   28MOL   C72626700   2.552   4.988   6.248  0.1405 -0.1318 -0.3817
   28MOL   C72726701   2.524   5.048   6.122  0.1831 -0.3845  0.5470
   28MOL   C72826702   2.436   4.993   6.029 -0.4028 -0.1090  0.5218
   28MOL   C72926703   2.369   4.877   6.056  0.1842 -0.6245 -0.0829
   28MOL   C73026704   2.274   4.806   5.948  0.2033 -0.6412  0.4619
   28MOL   N73126705   2.249   4.890   5.838 -0.0055 -0.5284 -0.2324
   28MOL   C73226706   2.255   4.846   5.710  0.5644 -0.3073  0.9744
   28MOL   O73326707   2.311   4.744   5.679  0.9476  0.9974 -0.4378
   28MOL   C73426708   2.194   4.943   5.608 -0.9463  0.1179 -0.1344
   28MOL   C73526709   2.272   5.059   5.559  0.4270 -1.0339  0.1189
   28MOL   C73626710   2.346   5.137   5.669 -0.2578  0.2559  0.9344
   28MOL   C73726711   2.375   5.281   5.641  0.5667 -0.5231  0.2119
   28MOL   C73826712   2.466   5.348   5.743 -0.0919 -0.4091 -0.6146
   28MOL   C73926713   2.400   5.366   5.880 -0.7778  0.2525 -1.2604
   28MOL   C74026714   2.492   5.418   5.993 -0.5099 -0.0433  0.1523
   28MOL   C74126715   2.413   5.410   6.129 -0.2529 -0.6224  0.2673
   28MOL   C74226716   2.502   5.364   6.249  0.1292  0.3474 -0.0956
   28MOL   O74326717   2.620   5.337   6.238 -0.4170  0.0720  0.1943
   28MOL   H74426718   2.476   4.560   6.133 -0.1839  1.0602  0.2109
   28MOL   H74526719   2.288   4.698   6.322 -0.6902 -0.4721  0.4377
   28MOL   H74626720   2.232   4.661   6.158 -0.1861  0.8852 -0.3816
   28MOL   H74726721   2.492   4.823   6.375  0.4477 -0.7545  0.0499
   28MOL   H74826722   2.621   5.035   6.316  0.6301 -0.2272 -0.7993
   28MOL   H74926723   2.572   5.141   6.095 -1.5006  0.5696  0.7993
   28MOL   H75026724   2.420   5.037   5.932 -2.8999 -0.6399  0.6442
   28MOL   H75126725   2.170   4.802   5.983  0.7344 -0.4647  2.1177
   28MOL   H75226726   2.308   4.706   5.920 -0.5058 -1.5319  2.6388
   28MOL   H75326727   2.194   4.973   5.854  1.0432  0.4625 -1.6238
   28MOL   H75426728   2.097   4.973   5.649 -0.4851  0.1811  0.9279
   28MOL   H75526729   2.168   4.883   5.520  0.6923  0.5217 -0.9024
   28MOL   H75626730   2.207   5.138   5.521  1.9056  0.4143  0.5547
   28MOL   H75726731   2.339   5.043   5.474  1.5745 -1.4968  1.0862
   28MOL   H75826732   2.282   5.133   5.758 -0.1970 -1.9617  0.9047
   28MOL   H75926733   2.438   5.086   5.697  0.1962  0.8490  0.5536
   28MOL   H76026734   2.413   5.290   5.540 -0.5516  2.1621 -0.0196
   28MOL   H76126735   2.285   5.343   5.640 -0.3134 -1.6327  3.2941
   28MOL   H76226736   2.563   5.299   5.751  0.1113 -0.0458 -0.8520
   28MOL   H76326737   2.471   5.450   5.706  0.0932  0.3722  1.4570
   28MOL   H76426738   2.350   5.276   5.915 -1.6264  1.5431  0.9632
   28MOL   H76526739   2.322   5.442   5.873  0.9431  1.9328 -2.5341
   28MOL   H76626740   2.580   5.354   5.985 -1.4649 -1.4511  0.7037
   28MOL   H76726741   2.515   5.524   5.982 -0.6479 -0.0265  0.0217
   28MOL   H76826742   2.358   5.503   6.149  1.0751 -0.0711  1.4380
   28MOL   H76926743   2.332   5.337   6.126 -1.9673  1.2772 -1.2100
   28MOL   N77026744   2.431   5.332   6.362  0.4190 -0.5808 -0.1029
   28MOL   C77126745   2.504   5.271   6.480  0.3105 -0.2098  0.1905
   28MOL   C77226746   2.411   5.276   6.605  0.1761  0.2419 -0.3332
   28MOL   C77326747   2.414   5.389   6.685 -0.2498  0.6867  0.3511
   28MOL   C77426748   2.344   5.396   6.808 -0.0058  0.4877 -0.4554
   28MOL   C77526749   2.278   5.276   6.840 -0.5093  0.8592 -0.2934
   28MOL   C77626750   2.285   5.159   6.767  0.3568  0.1773 -1.0162
   28MOL   C77726751   2.345   5.159   6.638 -0.3038  0.0276 -0.2069
   28MOL   C77826752   2.341   5.035   6.548  0.0129  0.8439  0.1812
   28MOL   N77926753   2.277   4.912   6.594  0.1666  0.2868  0.6928
   28MOL   C78026754   2.153   4.875   6.563  0.7728 -0.6581  0.3424
   28MOL   O78126755   2.063   4.964   6.548 -0.4806 -0.2535  0.2092
   28MOL   C78226756   2.118   4.721   6.565 -0.2283 -0.4143  0.4035
   28MOL   C78326757   1.975   4.677   6.613 -0.9358  0.8228  0.2523
   28MOL   C78426758   1.977   4.655   6.762  0.3620  0.2101  0.4893
   28MOL   C78526759   2.003   4.778   6.843 -0.7021 -0.3665  0.0832
   28MOL   C78626760   1.990   4.756   6.993 -0.6480 -0.2286 -0.0341
   28MOL   C78726761   2.121   4.700   7.055 -0.0905 -0.5756  0.0183
   28MOL   C78826762   2.106   4.681   7.199  0.3454 -0.1567 -0.1871
   28MOL   C78926763   2.239   4.641   7.267  0.2328 -0.7562 -0.5678
   28MOL   C79026764   2.297   4.501   7.216 -0.0674  0.0563  0.0516
   28MOL   O79126765   2.405   4.505   7.156  0.3729 -0.3364  0.2432
   28MOL   H79226766   2.331   5.321   6.363  0.3569 -0.0481  1.9165
   28MOL   H79326767   2.555   5.177   6.461  2.4524  0.6597  1.4636
   28MOL   H79426768   2.581   5.344   6.505 -1.0785  1.7735 -1.1416
   28MOL   H79526769   2.468   5.477   6.652  0.9896  0.6055  2.0838
   28MOL   H79626770   2.334   5.483   6.871 -0.9860  0.1096 -0.0695
   28MOL   H79726771   2.215   5.286   6.927 -1.7988  2.4368 -1.3710
   28MOL   H79826772   2.238   5.069   6.803  3.0543 -1.4254 -1.3400
   28MOL   H79926773   2.442   4.999   6.527 -0.0227  0.6804  0.2951
   28MOL   H80026774   2.297   5.055   6.450 -0.3820 -0.0749  0.1682
   28MOL   H80126775   2.339   4.843   6.634  1.7907  1.7477  0.7676
   28MOL   H80226776   2.200   4.679   6.623  0.4170  0.8259  0.4010
   28MOL   H80326777   2.142   4.677   6.468 -0.5261 -1.2669  0.7144
   28MOL   H80426778   1.963   4.578   6.569 -0.0432  0.1176  1.5693
   28MOL   H80526779   1.896   4.740   6.571 -2.0816 -2.3307 -2.5411
   28MOL   H80626780   2.051   4.583   6.794 -0.0682 -0.7589 -0.6573
   28MOL   H80726781   1.891   4.603   6.803 -0.3163  1.3673  0.5801
   28MOL   H80826782   2.101   4.818   6.818 -1.7058  1.8190 -0.4750
   28MOL   H80926783   1.942   4.865   6.816 -2.4893 -1.0641  1.7343
   28MOL   H81026784   1.971   4.854   7.038 -0.9102 -0.5052  0.4564
   28MOL   H81126785   1.908   4.691   7.023 -2.2820  1.8930  0.2694
   28MOL   H81226786   2.202   4.767   7.027 -0.6872  0.6633  1.2149
   28MOL   H81326787   2.150   4.603   7.014  1.1444 -0.2894  0.1867
   28MOL   H81426788   2.023   4.613   7.219  0.6222 -0.3673  0.2547
   28MOL   H81526789   2.066   4.769   7.249 -0.8467  0.5933 -2.4207
   28MOL   H81626790   2.225   4.628   7.374 -0.9348 -2.0830 -0.8700
   28MOL   H81726791   2.311   4.722   7.252 -1.0061  0.5327  0.4278
   28MOL   N81826792   2.214   4.399   7.229 -0.2768  0.2308  0.0691
   28MOL   C81926793   2.227   4.274   7.160 -0.4703 -0.0433  0.1540
   28MOL   C82026794   2.203   4.293   7.014 -0.6079  0.0675 -0.1397
   28MOL   C82126795   2.310   4.272   6.926  0.6356  0.4667  0.0124
   28MOL   C82226796   2.290   4.263   6.787  0.8685  0.3027  0.6845
   28MOL   C82326797   2.160   4.287   6.739  0.0566  0.6206  0.3802
   28MOL   C82426798   2.055   4.320   6.824 -0.1849 -0.0409 -0.9283
   28MOL   C82526799   2.075   4.320   6.967 -0.3437 -0.3858 -0.7765
   28MOL   C82626800   1.953   4.344   7.057  0.6241  0.1760  0.2376
   28MOL   N82726801   1.906   4.237   7.139 -0.1332 -0.7278 -0.0349
   28MOL   C82826802   1.862   4.255   7.268 -0.5289 -0.1530 -0.7784
   28MOL   O82926803   1.861   4.363   7.322 -0.3367  0.4371 -0.5287
   28MOL   C83026804   1.819   4.131   7.342 -0.2250 -0.1185  0.0703
   28MOL   C83126805   1.771   4.155   7.490 -0.2875 -0.0671  0.1318
   28MOL   C83226806   1.623   4.170   7.513 -0.1867 -0.1800 -0.2669
   28MOL   C83326807   1.539   4.034   7.509 -0.0959 -0.0276  0.0856
   28MOL   C83426808   1.391   4.043   7.538  0.1684  0.2952  0.5418
   28MOL   C83526809   1.309   3.913   7.521  0.4782 -0.4776  0.3331
   28MOL   C83626810   1.342   3.815   7.628  0.8894 -0.5350  0.1165
   28MOL   C83726811   1.259   3.687   7.625  0.1573 -0.1596 -0.6280
   28MOL   C83826812   1.297   3.596   7.512 -0.6331 -0.7888  0.3329
   28MOL   O83926813   1.415   3.553   7.505  0.0167  0.7767 -0.1971
   28MOL   H84026814   2.133   4.415   7.288  0.0226 -0.8923  0.7867
   28MOL   H84126815   2.330   4.241   7.177 -1.5679 -2.7167  1.8521
   28MOL   H84226816   2.163   4.192   7.194  0.4963 -0.5290  0.8534
   28MOL   H84326817   2.411   4.249   6.956  0.4614 -0.2669  0.0671
   28MOL   H84426818   2.364   4.241   6.711 -1.3898 -1.5340 -1.0354
   28MOL   H84526819   2.148   4.283   6.632  1.4009 -0.7405  0.2451
   28MOL   H84626820   1.958   4.345   6.784 -0.6521 -0.3261 -0.0017
   28MOL   H84726821   1.876   4.389   6.994 -0.1520  0.1750  1.1861
   28MOL   H84826822   1.985   4.423   7.125 -0.6082 -0.1377  1.1905
   28MOL   H84926823   1.913   4.141   7.111  2.1637 -0.8657  0.9251
   28MOL   H85026824   1.904   4.063   7.349  1.2599  1.6017 -0.7423
   28MOL   H85126825   1.746   4.073   7.286  0.1581 -1.8216  1.2780
   28MOL   H85226826   1.824   4.241   7.529 -1.0408  0.7723 -0.6788
   28MOL   H85326827   1.796   4.063   7.543  1.1917  0.1404 -0.1931
   28MOL   H85426828   1.578   4.241   7.444 -2.4625 -0.4008  0.9521
   28MOL   H85526829   1.613   4.200   7.617 -0.1450 -1.5678  0.1495
   28MOL   H85626830   1.557   3.986   7.413 -0.2073  1.2195 -0.5549
   28MOL   H85726831   1.590   3.971   7.583  2.3996 -1.2599 -2.6048
   28MOL   H85826832   1.381   4.079   7.640 -1.8020 -0.1311  0.5085
   28MOL   H85926833   1.341   4.120   7.480 -1.4200 -0.7022  0.5733
   28MOL   H86026834   1.348   3.872   7.428  0.8283 -0.1624  0.3373
   28MOL   H86126835   1.207   3.950   7.516  1.0732  0.9602 -2.0311
   28MOL   H86226836   1.322   3.871   7.720  1.6351  2.0674 -1.2657
   28MOL   H86326837   1.446   3.782   7.629  1.8744  2.4155 -0.7027
   28MOL   H86426838   1.280   3.631   7.717 -1.6495  1.7512  1.0115
   28MOL   H86526839   1.151   3.704   7.620 -0.2407 -2.0330  0.8756
   28MOL   N86626840   1.213   3.571   7.414 -0.4998 -0.2727  0.0249
   28MOL   C86726841   1.249   3.487   7.302 -0.2656  0.0161  0.4063
   28MOL   C86826842   1.136   3.475   7.202  0.1575 -0.2663  0.3682
   28MOL   C86926843   1.089   3.340   7.168 -0.3147 -0.8917  0.3073
   28MOL   C87026844   0.979   3.323   7.086 -0.1599 -0.2844  0.1546
   28MOL   C87126845   0.927   3.431   7.015 -0.2155  0.0233 -0.4374
   28MOL   C87226846   0.979   3.560   7.034  0.3868 -0.9435 -0.3936
   28MOL   C87326847   1.084   3.584   7.129  0.0385 -0.3251 -0.4540
   28MOL   C87426848   1.136   3.732   7.144 -0.2165  0.2712 -0.0427
   28MOL   N87526849   1.225   3.772   7.033 -0.7869  0.6169  0.3612
   28MOL   C87626850   1.190   3.838   6.930 -0.4445  0.7778  0.0983
   28MOL   O87726851   1.076   3.868   6.896 -0.1184  0.6688  0.1173
   28MOL   C87826852   1.304   3.862   6.824  0.6877 -0.0304 -0.1164
   28MOL   C87926853   1.356   3.728   6.771  0.5510  0.2134 -0.0781
   28MOL   C88026854   1.492   3.750   6.700  0.2048  0.1008  0.0716
   28MOL   C88126855   1.550   3.624   6.646 -0.5623  0.3559 -0.1752
   28MOL   C88226856   1.464   3.561   6.531 -0.0995  0.2442  0.1596
   28MOL   C88326857   1.553   3.472   6.439  0.4553 -0.0519  0.0209
   28MOL   C88426858   1.463   3.397   6.331 -0.3092 -0.0409  0.0034
   28MOL   C88526859   1.545   3.289   6.242 -0.5502 -0.4021 -0.1152
   28MOL   C88626860   1.453   3.195   6.167 -0.2815  0.6619 -0.0155
   28MOL   O88726861   1.332   3.215   6.148  0.3668  0.2534 -0.4076
   28MOL   H88826862   1.122   3.614   7.408  0.8787  2.7136 -0.3695
   28MOL   H88926863   1.335   3.531   7.252  0.9229 -2.2934  0.3556
   28MOL   H89026864   1.275   3.393   7.351 -0.6445  0.3629  1.2712
   28MOL   H89126865   1.129   3.255   7.221  0.4350  0.1180  1.3644
   28MOL   H89226866   0.937   3.225   7.066 -2.7661  0.7915  0.1005
   28MOL   H89326867   0.841   3.420   6.950 -2.0569 -0.7687  2.0860
   28MOL   H89426868   0.936   3.642   6.979  2.8082  0.1387 -0.7342
   28MOL   H89526869   1.180   3.759   7.240  1.2506  0.2190 -0.6945
   28MOL   H89626870   1.050   3.798   7.131 -0.3257 -0.2279 -2.0594
   28MOL   H89726871   1.323   3.751   7.037 -0.6233  1.6971  2.8763
   28MOL   H89826872   1.374   3.923   6.880  1.3340 -2.9475  2.4191
   28MOL   H89926873   1.268   3.915   6.736  0.3778  1.0718  0.6725
   28MOL   H90026874   1.290   3.698   6.690 -1.1311  3.0018  0.1993
   28MOL   H90126875   1.362   3.652   6.849 -1.7843  2.4665  2.3478
   28MOL   H90226876   1.473   3.822   6.620  1.3160  0.4457  0.1155
   28MOL   H90326877   1.562   3.796   6.770 -1.2991  0.9423  1.0685
   28MOL   H90426878   1.652   3.641   6.611  0.0462  0.0389  1.3950
   28MOL   H90526879   1.564   3.548   6.723 -1.5475 -1.0521 -1.3496
   28MOL   H90626880   1.380   3.506   6.573 -0.8245  0.6024 -0.8065
   28MOL   H90726881   1.416   3.642   6.476 -1.5490 -0.7122 -0.0055
   28MOL   H90826882   1.611   3.400   6.495 -0.8099  1.1765  3.0209
   28MOL   H90926883   1.614   3.545   6.385 -0.9184 -0.5014 -2.1863
   28MOL   H91026884   1.391   3.339   6.389 -2.5873  1.7142 -1.0024
   28MOL   H91126885   1.416   3.478   6.276  0.9447  0.8612  0.2521
   28MOL   H91226886   1.605   3.344   6.169  0.8639  1.0369  2.0583
   28MOL   H91326887   1.611   3.221   6.296 -0.6072  0.9762  1.7386
   28MOL   N91426888   1.503   3.082   6.123  0.5623  0.3062 -0.5597
   28MOL   C91526889   1.441   2.993   6.025  0.1481 -0.2167 -0.3221
   28MOL   C91626890   1.457   2.851   6.076  0.1597  0.7467 -0.9460
   28MOL   C91726891   1.377   2.814   6.182 -0.0878  0.3065  0.4484
   28MOL   C91826892   1.380   2.681   6.224  0.2174  0.6128 -0.1409
   28MOL   C91926893   1.469   2.586   6.175  0.7160  0.6819  0.4078
   28MOL   C92026894   1.567   2.634   6.082  0.1240  0.3260  0.4472
   28MOL   C92126895   1.561   2.765   6.029 -0.8611 -0.9766  0.3786
   28MOL   C92226896   1.662   2.809   5.921  0.6343 -1.2652 -0.2456
   28MOL   N92326897   1.780   2.722   5.908 -0.3687 -0.4477  0.2383
   28MOL   C92426898   1.822   2.671   5.795  0.0816  0.2256  0.1910
   28MOL   O92526899   1.774   2.702   5.685 -0.4724  0.3878  0.2589
   28MOL   C92626900   1.940   2.571   5.803 -0.3021 -0.0873 -0.0789
   28MOL   C92726901   1.949   2.466   5.696  0.7907  1.2262  0.7741
   28MOL   C92826902   2.074   2.374   5.702  0.4630 -0.0014  0.7556
   28MOL   C92926903   2.102   2.310   5.566  0.1779  0.3162 -0.3366
   28MOL   C93026904   2.235   2.231   5.552  0.3069  0.0149 -0.2179
   28MOL   C93126905   2.273   2.167   5.419 -0.0691 -0.0552  0.1624
   28MOL   C93226906   2.333   2.266   5.315  0.7461 -0.0232  0.2951
   28MOL   C93326907   2.384   2.209   5.183 -0.1242  0.0307  0.4377
   28MOL   C93426908   2.494   2.102   5.199  0.1932  0.6169 -0.2788
   28MOL   O93526909   2.584   2.110   5.283  0.4973  0.2006  0.1758
   28MOL   H93626910   1.598   3.061   6.150  0.2501 -0.1294  0.2313
   28MOL   H93726911   1.337   3.018   6.009 -0.3828 -2.0126  0.2512
   28MOL   H93826912   1.490   3.019   5.931  1.0558  1.2577  0.5372
   28MOL   H93926913   1.319   2.890   6.231  1.6506  0.6739  1.9821
   28MOL   H94026914   1.308   2.648   6.298  2.6134  0.1230  2.0688
   28MOL   H94126915   1.466   2.484   6.208 -1.6606 -0.5870 -3.4638
   28MOL   H94226916   1.635   2.558   6.047 -0.9452 -0.4176 -0.0411
   28MOL   H94326917   1.708   2.905   5.948  1.3057 -0.7774 -2.9878
   28MOL   H94426918   1.612   2.820   5.825  2.7997 -1.3457 -1.4118
   28MOL   H94526919   1.841   2.709   5.987 -0.0366  0.8453  0.2057
   28MOL   H94626920   1.941   2.530   5.904 -2.7160  1.6639  0.7242
   28MOL   H94726921   2.024   2.641   5.802 -2.5935  2.7740  0.3950
   28MOL   H94826922   1.963   2.512   5.599  0.6359 -1.2994 -0.5000
   28MOL   H94926923   1.857   2.407   5.687  1.0428  0.8510  0.6209
   28MOL   H95026924   2.159   2.435   5.734 -0.5441  1.2814  1.0311
   28MOL   H95126925   2.057   2.297   5.776  1.4174 -0.0950  0.8847
   28MOL   H95226926   2.023   2.235   5.560  1.9912 -1.5031 -2.4244
   28MOL   H95326927   2.092   2.381   5.484  2.4229  1.7501  0.5612
   28MOL   H95426928   2.230   2.153   5.627  1.4409  0.0371 -0.1015
   28MOL   H95526929   2.317   2.295   5.586 -0.4798  0.3150  1.1197
   28MOL   H95626930   2.356   2.099   5.441 -0.2573 -0.0199  0.9910
   28MOL   H95726931   2.195   2.107   5.374  2.1313 -2.1601 -0.9456
   28MOL   H95826932   2.411   2.328   5.358 -0.2407  2.1696 -0.9880
   28MOL   H95926933   2.255   2.342   5.309  0.3385 -0.0734  3.8558
   28MOL   H96026934   2.418   2.287   5.115 -0.2256 -0.1694  0.1579
   28MOL   H96126935   2.301   2.156   5.135  0.8948 -2.3958  1.2353
   28MOL   H96226936   2.493   2.020   5.127 -1.1363  1.2609 -1.0332
   29MOL     N126937   2.433   7.402   0.001  1.1337 -0.4156  0.0666
   29MOL     C226938   2.366   7.440   7.661 -0.1768 -0.0991 -0.1655
   29MOL     C326939   2.282   7.565   7.677 -0.9392  0.2351 -0.3473
   29MOL     C426940   2.335   7.690   7.631  0.0174 -0.2264 -0.0236
   29MOL     C526941   2.259   0.019   7.641  0.4855 -0.1006  0.5517
   29MOL     C626942   2.128   0.018   7.692 -0.1921 -0.3224  0.2065
   29MOL     C726943   2.078   7.684   7.731  0.3302  0.5429 -0.5969
   29MOL     C826944   2.153   7.564   7.737 -0.0517 -0.1344  0.2607
   29MOL     C926945   2.096   7.438   0.008 -0.1636  0.1335  0.6237
   29MOL    N1026946   2.088   7.458   0.151  0.0033  0.2469 -0.3651
   29MOL    C1126947   2.175   7.432   0.247  0.2348  0.8048  0.7628
   29MOL    O1226948   2.264   7.352   0.234 -0.0779  0.7092 -0.6179
   29MOL    C1326949   2.139   7.490   0.383 -0.3560  0.1355  0.1095
   29MOL    C1426950   2.168   7.638   0.405  0.1192  0.3957 -0.1007
   29MOL    C1526951   2.076   7.741   0.336  0.0056 -0.0341 -0.1884
   29MOL    C1626952   1.934   7.746   0.392  0.3774 -0.4144  0.7583
   29MOL    C1726953   1.837   0.033   0.288  0.1073 -0.0586  0.1205
   29MOL    C1826954   1.698   0.055   0.350  0.2061  0.3948 -0.0228
   29MOL    C1926955   1.620   7.718   0.371 -0.0300 -0.3221  0.1381
   29MOL    C2026956   1.472   7.736   0.398 -0.0256 -0.4541 -0.2227
   29MOL    C2126957   1.437   0.025   0.526 -0.3925 -0.3092  0.3658
   29MOL    O2226958   1.414   0.145   0.510  0.6104 -0.1416  0.5898
   29MOL    H2326959   2.456   7.304   0.002  2.2940 -0.1460  0.8862
   29MOL    H2426960   2.443   7.436   7.584 -2.7398  2.8234 -2.9902
   29MOL    H2526961   2.289   7.374   7.622 -2.0104  1.3044  0.9632
   29MOL    H2626962   2.432   7.698   7.584  0.7113  2.0745  1.7204
   29MOL    H2726963   2.297   0.112   7.600 -3.8118  2.2248  1.5436
   29MOL    H2826964   2.062   0.103   7.682  1.1887  0.6459 -0.8280
   29MOL    H2926965   1.976   7.676   7.766  0.5422  0.0980 -0.0564
   29MOL    H3026966   2.147   7.342   7.782 -0.4954  0.3319 -1.8833
   29MOL    H3126967   1.993   7.426   7.764 -0.1427  1.3362  0.1153
   29MOL    H3226968   2.015   7.518   0.186 -0.8236 -0.7732 -0.3086
   29MOL    H3326969   2.184   7.429   0.461 -1.2647 -1.2674 -0.4371
   29MOL    H3426970   2.033   7.477   0.407 -0.5136  0.0550 -0.6203
   29MOL    H3526971   2.267   7.668   0.371 -0.8172  1.9521 -1.5063
   29MOL    H3626972   2.166   7.654   0.513 -2.1231 -1.4867  0.1799
   29MOL    H3726973   2.125   0.048   0.336 -0.1462  0.0412 -0.2059
   29MOL    H3826974   2.074   7.725   0.228  0.3373  0.6530 -0.2947
   29MOL    H3926975   1.889   7.647   0.402 -0.6621 -0.2599 -1.9293
   29MOL    H4026976   1.947   0.002   0.490  1.2569  0.8782  0.0526
   29MOL    H4126977   1.874   0.135   0.281  0.4938 -0.2624 -0.8945
   29MOL    H4226978   1.831   7.788   0.185  0.8561 -1.4368  0.5382
   29MOL    H4326979   1.646   0.111   0.273  0.3127 -1.5842 -1.5971
   29MOL    H4426980   1.713   0.103   0.447  1.9002 -2.3540  1.1494
   29MOL    H4526981   1.640   7.646   0.291  1.9621 -1.0835  1.2932
   29MOL    H4626982   1.662   7.670   0.460  2.7062 -0.9829 -1.4801
   29MOL    H4726983   1.427   7.637   0.414 -1.7825  0.5826  1.5441
   29MOL    H4826984   1.427   7.787   0.314 -1.9874 -2.0359 -0.1803
   29MOL    H4926985   2.365   7.417   0.074  2.1231  0.3170  0.8570
   29MOL    N5026986   1.430   7.759   0.642 -0.6445  0.2478 -0.1482
   29MOL    C5126987   1.395   0.040   0.769 -0.7091 -0.2292 -0.1423
   29MOL    C5226988   1.497   0.139   0.822 -0.2357 -0.2386 -0.5404
   29MOL    C5326989   1.628   0.138   0.772 -0.4081  0.0405 -0.5892
   29MOL    C5426990   1.728   0.221   0.827 -0.6752  0.1649 -0.3020
   29MOL    C5526991   1.702   0.299   0.940  0.2821  0.3191  0.2705
   29MOL    C5626992   1.566   0.307   0.981 -0.4361  0.0165 -0.1529
   29MOL    C5726993   1.465   0.225   0.930  0.3148 -0.6022  0.0420
   29MOL    C5826994   1.328   0.240   0.991 -0.1235 -0.7236  0.2805
   29MOL    N5926995   1.306   0.171   1.115 -0.2288  0.4488  0.1959
   29MOL    C6026996   1.216   0.203   1.210 -0.4061 -0.4882  0.2054
   29MOL    O6126997   1.122   0.279   1.191 -0.0729 -0.2915  0.4512
   29MOL    C6226998   1.235   0.139   1.347  0.4282 -0.2125 -0.1105
   29MOL    C6326999   1.144   0.019   1.378 -0.4973  0.2978 -0.3928
   29MOL    C6427000   1.194   7.673   1.314  0.1382 -0.9807  0.2861
   29MOL    C6527001   1.117   7.553   1.372 -0.0966  0.3497  0.4352
   29MOL    C6627002   1.167   7.428   1.308 -0.4305  0.7184 -0.1068
   29MOL    C6727003   1.118   7.293   1.359 -0.3145 -0.1885  1.0416
   29MOL    C6827004   1.142   7.167   1.264 -0.3283 -0.1893 -0.4271
   29MOL    C6927005   1.239   7.066   1.332  0.7272 -0.0028 -0.3601
   29MOL    C7027006   1.378   7.131   1.344  0.5352  0.0684  0.2014
   29MOL    O7127007   1.442   7.144   1.239 -0.2247  0.0768 -0.2352
   29MOL    H7227008   1.455   7.661   0.655  0.0623  0.5202  0.6182
   29MOL    H7327009   1.378   7.759   0.850 -1.4000  0.9354  0.7514
   29MOL    H7427010   1.296   0.079   0.748  0.0139  1.4101 -0.6103
   29MOL    H7527011   1.659   0.076   0.690 -0.8533  0.1068 -0.8109
   29MOL    H7627012   1.826   0.219   0.782 -1.0755 -0.0504 -1.1880
   29MOL    H7727013   1.781   0.360   0.981 -0.0900 -0.0955  1.6232
   29MOL    H7827014   1.553   0.363   1.073  1.5616  0.5239 -0.1714
   29MOL    H7927015   1.248   0.211   0.923  0.3810 -0.3829 -0.4797
   29MOL    H8027016   1.309   0.347   0.997  0.1924 -0.7381  1.5921
   29MOL    H8127017   1.372   0.096   1.130  1.3893  1.7659 -0.1947
   29MOL    H8227018   1.217   0.212   1.426  0.5804  0.1886 -0.4415
   29MOL    H8327019   1.339   0.114   1.371  1.1070 -0.1827 -2.8143
   29MOL    H8427020   1.045   0.045   1.342  0.6864  2.3984 -2.2368
   29MOL    H8527021   1.133   0.010   1.486 -1.1962  0.2340 -0.4665
   29MOL    H8627022   1.175   7.670   1.207 -3.3339 -2.2134  0.8748
   29MOL    H8727023   1.302   7.663   1.330  0.0511 -0.6339  1.1091
   29MOL    H8827024   1.134   7.543   1.479 -1.0346 -0.6225  0.5042
   29MOL    H8927025   1.008   7.560   1.364 -0.0136  0.9501 -0.2699
   29MOL    H9027026   1.133   7.429   1.204  0.7079  0.3829 -0.4850
   29MOL    H9127027   1.275   7.429   1.293 -0.6712  2.7462 -1.9045
   29MOL    H9227028   1.009   7.295   1.369 -0.4382 -0.9027 -0.0764
   29MOL    H9327029   1.159   7.273   1.458 -1.1621  2.0448  1.8596
   29MOL    H9427030   1.175   7.197   1.165 -2.5976 -0.3017 -1.2369
   29MOL    H9527031   1.048   7.119   1.240 -0.2421 -0.6282  0.0919
   29MOL    H9627032   1.252   6.977   1.270 -0.1186  0.9040 -1.8514
   29MOL    H9727033   1.215   7.032   1.433  0.7664  1.0450  0.0014
   29MOL    N9827034   1.417   7.175   1.465  0.1339  0.2671  0.5073
   29MOL    C9927035   1.518   7.276   1.486  0.5401  0.7972  0.2729
   29MOL   C10027036   1.656   7.222   1.496 -0.3649 -0.1258 -0.0621
   29MOL   C10127037   1.687   7.085   1.518 -0.1147 -0.2575 -0.1471
   29MOL   C10227038   1.818   7.035   1.528  0.3924 -0.2584  0.0049
   29MOL   C10327039   1.921   7.135   1.546 -0.0493 -0.0798 -0.6198
   29MOL   C10427040   1.890   7.275   1.540  0.0473  0.5684 -0.2250
   29MOL   C10527041   1.760   7.322   1.513  0.2307  0.0106 -0.5872
   29MOL   C10627042   1.731   7.473   1.518  0.1381 -0.1940  0.7006
   29MOL   N10727043   1.826   7.559   1.580 -0.0742 -0.0120  0.4051
   29MOL   C10827044   1.929   7.617   1.515  0.5787 -0.0528  0.7151
   29MOL   O10927045   1.942   7.610   1.394  0.1559 -0.2907 -0.4151
   29MOL   C11027046   2.024   7.688   1.607 -0.0920 -0.8698  0.6933
   29MOL   C11127047   2.130   7.778   1.537 -0.2306  0.2383 -0.1030
   29MOL   C11227048   2.261   7.722   1.486  0.2580  0.0154  0.3095
   29MOL   C11327049   2.345   0.051   1.428 -0.2630  0.2092 -1.1542
   29MOL   C11427050   2.461   7.775   1.348  0.9173 -0.3362  0.0566
   29MOL   C11527051   2.560   0.087   1.298  0.6941 -0.2889 -0.0053
   29MOL   C11627052   2.675   0.100   1.389 -0.1525  0.1927  0.4801
   29MOL   C11727053   2.779   0.192   1.326  0.0213  0.3928  0.0951
   29MOL   C11827054   2.902   0.200   1.405  0.0154 -0.4635 -0.2760
   29MOL   O11927055   2.927   0.124   1.497  0.1231 -0.1854  0.1335
   29MOL   H12027056   1.353   7.160   1.541  1.5664 -0.4775  1.6007
   29MOL   H12127057   1.511   7.359   1.417  1.4263 -1.0449 -2.0840
   29MOL   H12227058   1.490   7.305   1.588  0.7977  1.7859  0.0615
   29MOL   H12327059   1.611   7.010   1.500 -0.4976 -0.1261  0.8598
   29MOL   H12427060   1.839   6.929   1.521  0.3320 -0.2942  0.3462
   29MOL   H12527061   2.022   7.103   1.570  0.0249  1.5199  1.2912
   29MOL   H12627062   1.976   7.339   1.538  1.9510 -1.9062  0.0138
   29MOL   H12727063   1.636   7.491   1.569  0.3785  0.8038  0.8022
   29MOL   H12827064   1.706   7.502   1.416  1.4059 -0.2527  0.3654
   29MOL   H12927065   1.838   7.569   1.680  0.1480 -0.8417  0.4670
   29MOL   H13027066   2.075   7.610   1.664 -2.2207 -2.7813  0.0677
   29MOL   H13127067   1.967   7.742   1.682 -1.4809  0.7209 -1.4583
   29MOL   H13227068   2.154   0.066   1.610 -1.5943  0.9277 -0.3644
   29MOL   H13327069   2.077   0.036   1.454 -1.0475  0.0344  0.2876
   29MOL   H13427070   2.302   7.664   1.568 -2.4130  0.1567  1.8056
   29MOL   H13527071   2.242   7.641   1.415  2.4517 -0.7088  0.5089
   29MOL   H13627072   2.293   0.113   1.356 -0.6144  0.6843 -0.4960
   29MOL   H13727073   2.373   0.114   1.513  0.3083 -1.3785 -0.1345
   29MOL   H13827074   2.523   7.709   1.408 -0.7515  0.0984  2.3446
   29MOL   H13927075   2.415   7.710   1.273 -1.2642 -1.7321  2.5388
   29MOL   H14027076   2.520   0.187   1.278 -0.2477 -0.1556  2.4484
   29MOL   H14127077   2.601   0.046   1.205 -1.3666  1.7766 -1.9169
   29MOL   H14227078   2.655   0.146   1.485  1.5279  1.4010  0.2646
   29MOL   H14327079   2.714   0.002   1.416  0.2532 -0.6531 -2.8730
   29MOL   H14427080   2.733   0.287   1.303 -0.7532 -0.4285 -1.8143
   29MOL   H14527081   2.800   0.156   1.225  1.2237 -0.2900  0.5746
   29MOL   N14627082   2.985   0.280   1.356  0.6734 -0.3784  0.4177
   29MOL   C14727083   3.128   0.281   1.385 -0.3972  0.0890 -0.1063
   29MOL   C14827084   3.212   0.234   1.268 -0.0988 -0.0658  0.0048
   29MOL   C14927085   3.151   0.201   1.143  0.4741 -0.1839  0.5567
   29MOL   C15027086   3.231   0.153   1.042  0.0550  0.1502 -0.3714
   29MOL   C15127087   3.370   0.131   1.058  0.3739  0.3519 -0.7632
   29MOL   C15227088   3.431   0.176   1.178 -0.1817  0.0339 -0.7114
   29MOL   C15327089   3.356   0.220   1.289  0.0619 -0.4091 -0.3201
   29MOL   C15427090   3.418   0.277   1.421 -0.0927  0.6521  0.5995
   29MOL   N15527091   3.559   0.244   1.435 -0.3631  0.5531  1.0364
   29MOL   C15627092   3.638   0.300   1.525  0.2168  0.0867  0.3599
   29MOL   O15727093   3.602   0.400   1.591  0.1790  0.2051  0.7241
   29MOL   C15827094   3.777   0.229   1.536  0.4511 -0.7319  0.0629
   29MOL   C15927095   3.848   0.232   1.673  0.4468  0.3616 -0.5540
   29MOL   C16027096   3.834   0.095   1.740  0.0952 -0.5618 -0.5407
   29MOL   C16127097   3.690   0.060   1.782 -0.2678  0.6020 -0.3507
   29MOL   C16227098   3.684   7.704   1.836 -0.1661  0.1455 -0.4220
   29MOL   C16327099   3.548   7.653   1.884  0.4634 -0.0388 -0.1683
   29MOL   C16427100   3.490   7.727   2.009  0.7950  0.6903 -0.6744
   29MOL   C16527101   3.339   7.694   2.033  0.1744  0.4962  0.0506
   29MOL   C16627102   3.279   7.750   2.165 -0.5311  0.4513 -0.5193
   29MOL   O16727103   3.330   0.059   2.226 -0.0674  0.3524 -0.2904
   29MOL   H16827104   2.958   0.336   1.276  1.1950 -0.6491  0.0514
   29MOL   H16927105   3.159   0.239   1.481  3.9190  2.8608 -0.1325
   29MOL   H17027106   3.148   0.388   1.394  0.2252  0.1361 -1.9183
   29MOL   H17127107   3.046   0.220   1.121  0.8401 -0.5095 -1.6074
   29MOL   H17227108   3.184   0.134   0.947 -0.0875 -1.6997  0.0652
   29MOL   H17327109   3.434   0.098   0.978  0.4038 -0.3021 -0.4735
   29MOL   H17427110   3.538   0.177   1.185 -0.2628  1.2948  0.3336
   29MOL   H17527111   3.372   0.240   1.513  1.0223 -1.3799  0.3683
   29MOL   H17627112   3.419   0.386   1.418 -0.9480  0.6908  1.5030
   29MOL   H17727113   3.591   0.159   1.392 -1.0935 -0.4181  2.3735
   29MOL   H17827114   3.839   0.275   1.458 -0.6065 -0.2172 -0.4832
   29MOL   H17927115   3.757   0.125   1.512 -0.4831 -0.6598  0.5229
   29MOL   H18027116   3.798   0.306   1.736  1.6164  0.2796  0.4939
   29MOL   H18127117   3.954   0.254   1.666  1.0965 -2.0299  0.9748
   29MOL   H18227118   3.878   0.019   1.675 -1.1545 -1.4605 -0.3659
   29MOL   H18327119   3.897   0.095   1.829 -1.1605 -1.2694  0.3763
   29MOL   H18427120   3.639   0.125   1.854 -1.2111 -2.2426  1.6570
   29MOL   H18527121   3.624   0.066   1.696 -1.1016  0.5390  0.2757
   29MOL   H18627122   3.714   7.640   1.754  1.4619  1.8420 -1.1870
   29MOL   H18727123   3.765   7.691   1.908 -1.9110  0.9312  1.7513
   29MOL   H18827124   3.548   7.548   1.911 -1.7513 -0.6247 -2.3305
   29MOL   H18927125   3.488   7.650   1.793  0.3408 -1.6557 -0.0431
   29MOL   H19027126   3.546   7.698   2.097 -0.6951 -2.3649 -0.6637
   29MOL   H19127127   3.494   0.044   1.988  0.7931  0.7983 -0.1207
   29MOL   H19227128   3.331   7.585   2.036 -0.9795  0.5614 -0.4722
   29MOL   H19327129   3.284   7.724   1.944  0.7944  1.7666  0.0879
   29MOL   N19427130   3.164   7.694   2.206  0.5219  0.6002 -0.3905
   29MOL   C19527131   3.067   7.738   2.310 -0.3541 -0.0897  0.4179
   29MOL   C19627132   3.126   7.710   2.450 -0.1138 -0.1154 -0.0180
   29MOL   C19727133   3.166   0.037   2.525 -0.3196 -0.3253 -0.1145
   29MOL   C19827134   3.217   0.027   2.659 -0.1753  0.5592  0.6282
   29MOL   C19927135   3.225   7.690   2.719  0.2134  0.7228  0.0226
   29MOL   C20027136   3.177   7.580   2.649 -0.0467 -0.3074 -0.4190
   29MOL   C20127137   3.136   7.586   2.515  0.4409  0.0931  0.1384
   29MOL   C20227138   3.106   7.458   2.442 -0.0308  0.1289  0.7538
   29MOL   N20327139   3.094   7.337   2.518 -0.2304  0.4387 -0.6986
   29MOL   C20427140   3.168   7.228   2.523  0.2248  0.2227  0.0982
   29MOL   O20527141   3.275   7.218   2.462 -0.2796 -0.0302 -0.6342
   29MOL   C20627142   3.121   7.110   2.600  0.1250  0.7310 -0.7894
   29MOL   C20727143   3.069   6.997   2.512 -0.7657  0.0323  0.6663
   29MOL   C20827144   2.926   7.008   2.474  0.1983  0.1659 -0.4873
   29MOL   C20927145   2.888   6.919   2.356 -0.1510 -0.3275  0.0090
   29MOL   C21027146   2.743   6.881   2.363 -0.5123  0.2026  0.1637
   29MOL   C21127147   2.712   6.797   2.234  0.2099 -0.4239  0.4735
   29MOL   C21227148   2.566   6.758   2.219 -0.6871 -0.2212 -0.0290
   29MOL   C21327149   2.523   6.637   2.301 -0.3544 -0.1064  0.0736
   29MOL   C21427150   2.490   6.662   2.447  0.1921 -0.5308  0.3972
   29MOL   O21527151   2.387   6.724   2.478 -0.1705 -0.0277  0.1944
   29MOL   H21627152   3.139   7.610   2.155  1.6023  0.9091 -1.4447
   29MOL   H21727153   3.043   0.053   2.293 -0.7832  0.1495  2.3835
   29MOL   H21827154   2.967   7.697   2.298 -0.5632 -0.0045  1.7089
   29MOL   H21927155   3.165   0.135   2.481 -1.5665 -0.3773 -0.2326
   29MOL   H22027156   3.248   0.117   2.710  3.3267 -0.4662  0.4545
   29MOL   H22127157   3.279   7.684   2.812 -0.3016 -2.3297  0.1970
   29MOL   H22227158   3.187   7.485   2.699  1.1496 -0.1752 -0.3952
   29MOL   H22327159   3.178   7.440   2.362 -1.8242  2.0082 -1.3307
   29MOL   H22427160   3.011   7.468   2.390 -0.2014 -1.3989  0.7507
   29MOL   H22527161   3.022   7.344   2.590  1.2464 -0.7847  0.9289
   29MOL   H22627162   3.048   7.144   2.674 -1.0499 -0.2057 -1.4961
   29MOL   H22727163   3.203   7.075   2.663  1.2120  1.5780 -1.7150
   29MOL   H22827164   3.137   6.994   2.427  0.1208 -0.3462  1.3778
   29MOL   H22927165   3.081   6.902   2.564 -0.1358 -0.8133 -0.9737
   29MOL   H23027166   2.870   6.967   2.558  0.0883  1.2390 -0.0235
   29MOL   H23127167   2.888   7.108   2.453 -2.8549 -0.9709 -0.5901
   29MOL   H23227168   2.901   6.975   2.264 -0.6665 -2.8473 -1.6417
   29MOL   H23327169   2.947   6.828   2.354  0.7399  0.2581 -0.7265
   29MOL   H23427170   2.706   6.820   2.446  0.9167 -1.2916 -0.2655
   29MOL   H23527171   2.689   6.975   2.364  0.1399  0.5799  2.9587
   29MOL   H23627172   2.786   6.718   2.244  1.7892  0.8150 -1.2605
   29MOL   H23727173   2.735   6.860   2.149 -1.8305  0.3572  0.4836
   29MOL   H23827174   2.544   6.744   2.113  0.8657 -1.6030 -0.1780
   29MOL   H23927175   2.498   6.843   2.230  1.3002  1.5075 -0.6386
   29MOL   H24027176   2.432   6.597   2.256 -0.1726  0.0406 -0.4284
   29MOL   H24127177   2.591   6.553   2.286 -0.4342 -0.4432  1.5326
   29MOL   N24227178   2.581   6.610   2.534  0.2031 -0.5999  0.0820
   29MOL   C24327179   2.545   6.609   2.677 -0.0969  0.3795  0.3354
   29MOL   C24427180   2.631   6.499   2.743 -0.4957  0.6660 -0.0110
   29MOL   C24527181   2.766   6.537   2.768 -0.3126 -0.2881  0.3185
   29MOL   C24627182   2.845   6.454   2.848  0.4422 -0.1520  0.0265
   29MOL   C24727183   2.795   6.337   2.906  0.4342  0.3146  0.9092
   29MOL   C24827184   2.658   6.299   2.884  0.5170 -0.2452 -0.7261
   29MOL   C24927185   2.576   6.376   2.801 -0.1476  0.4681  0.2502
   29MOL   C25027186   2.429   6.346   2.784  0.0835  0.1749  1.1520
   29MOL   N25127187   2.409   6.246   2.676  0.4158  0.5612  0.3928
   29MOL   C25227188   2.320   6.152   2.675  0.1157 -0.0628  0.4794
   29MOL   O25327189   2.250   6.116   2.767  0.6278 -0.5221  0.7490
   29MOL   C25427190   2.316   6.072   2.541  0.8517  0.6345  0.7196
   29MOL   C25527191   2.187   5.979   2.548 -0.4385 -0.3047 -0.0401
   29MOL   C25627192   2.174   5.900   2.414  0.0923  0.5289  0.0916
   29MOL   C25727193   2.302   5.821   2.388 -0.0975 -0.0252 -0.1008
   29MOL   C25827194   2.287   5.712   2.289  0.0235  0.0723  0.6968
   29MOL   C25927195   2.261   5.744   2.142 -0.8127  0.4365 -0.3913
   29MOL   C26027196   2.391   5.789   2.068  0.2628 -0.2887 -0.2140
   29MOL   C26127197   2.370   5.853   1.925  0.1729  0.1786 -1.1780
   29MOL   C26227198   2.498   5.895   1.864 -0.0671  0.7781 -0.4860
   29MOL   O26327199   2.551   5.996   1.899  0.2681  0.8025  0.0637
   29MOL   H26427200   2.676   6.586   2.509 -0.3855 -3.0278  0.0144
   29MOL   H26527201   2.564   6.709   2.718 -0.3821  0.9138 -0.8209
   29MOL   H26627202   2.438   6.597   2.697 -0.0234  0.5388  0.8393
   29MOL   H26727203   2.809   6.624   2.722 -1.3310 -0.3537 -0.7613
   29MOL   H26827204   2.946   6.489   2.864  0.4995 -0.1526 -0.3128
   29MOL   H26927205   2.857   6.279   2.973  1.9809  1.5241  0.5581
   29MOL   H27027206   2.614   6.216   2.936  1.1312 -0.1364 -0.0160
   29MOL   H27127207   2.363   6.432   2.779  1.5986  1.2880 -0.4361
   29MOL   H27227208   2.411   6.299   2.880  2.0555  0.8683  1.8750
   29MOL   H27327209   2.461   6.259   2.590 -1.8808 -2.0643 -1.4859
   29MOL   H27427210   2.410   6.020   2.525  0.1375 -0.6250  0.5217
   29MOL   H27527211   2.287   6.143   2.463 -0.6902 -1.2046 -0.4323
   29MOL   H27627212   2.108   6.053   2.568  0.4656  0.8244 -0.5773
   29MOL   H27727213   2.193   5.908   2.630 -0.7361 -1.4456 -1.0067
   29MOL   H27827214   2.145   5.960   2.328 -0.4809  0.2796  0.1091
   29MOL   H27927215   2.091   5.833   2.437 -0.4723  0.4741 -2.0190
   29MOL   H28027216   2.386   5.885   2.360 -0.7043  0.3291 -1.1512
   29MOL   H28127217   2.331   5.767   2.478  1.0406  1.5609  0.5015
   29MOL   H28227218   2.375   5.648   2.284 -0.1866 -0.0286 -4.4227
   29MOL   H28327219   2.207   5.650   2.330 -1.2636 -0.8950 -3.1024
   29MOL   H28427220   2.175   5.811   2.133 -0.2475  1.4705  1.6792
   29MOL   H28527221   2.225   5.650   2.100  2.2909 -1.3303  0.7782
   29MOL   H28627222   2.450   5.858   2.129 -0.9252  0.7388 -0.1919
   29MOL   H28727223   2.448   5.696   2.067  0.4891 -0.1466 -0.3482
   29MOL   H28827224   2.316   5.778   1.867 -0.4060 -0.7679  0.5700
   29MOL   H28927225   2.304   5.938   1.941  2.5014  1.3576  2.7545
   29MOL   N29027226   2.557   5.818   1.774  0.1339 -0.0471 -0.2061
   29MOL   C29127227   2.675   5.852   1.690  0.2825  0.4734  0.4108
   29MOL   C29227228   2.680   5.778   1.557  0.1709  0.1994  0.4938
   29MOL   C29327229   2.774   5.673   1.532 -0.6295 -0.4509  0.4246
   29MOL   C29427230   2.789   5.611   1.411 -0.4767 -0.0331 -0.5003
   29MOL   C29527231   2.719   5.656   1.302 -0.0944 -0.3519  0.7944
   29MOL   C29627232   2.612   5.751   1.321  0.4569 -0.8083 -0.2290
   29MOL   C29727233   2.586   5.803   1.450  0.1385  0.0438 -0.1761
   29MOL   C29827234   2.454   5.877   1.473  0.3252 -0.6324 -0.4289
   29MOL   N29927235   2.386   5.912   1.350 -0.0325 -0.2582  0.4230
   29MOL   C30027236   2.254   5.924   1.343  0.3785  0.1067 -0.4337
   29MOL   O30127237   2.178   5.903   1.432  0.0029  0.3418 -1.0190
   29MOL   C30227238   2.192   5.976   1.213 -0.1461 -0.1917 -0.6050
   29MOL   C30327239   2.066   5.899   1.167 -0.2712 -1.0476 -0.3686
   29MOL   C30427240   2.030   5.925   1.019  0.1884  0.7756 -0.1241
   29MOL   C30527241   1.882   5.883   0.995 -0.0321 -0.4828 -0.5811
   29MOL   C30627242   1.844   5.888   0.844  0.2894  0.4000 -0.6217
   29MOL   C30727243   1.873   6.025   0.787 -0.0209  0.4318 -0.3923
   29MOL   C30827244   1.796   6.049   0.660 -0.3445  0.9612 -0.3831
   29MOL   C30927245   1.832   6.188   0.602 -0.9091 -0.6183 -0.2139
   29MOL   C31027246   1.806   6.310   0.693  0.6640 -0.3422  0.4765
   29MOL   O31127247   1.733   6.300   0.790 -0.0073 -0.3875  0.2800
   29MOL   H31227248   2.513   5.728   1.760 -3.9765  2.2302 -2.8081
   29MOL   H31327249   2.673   5.956   1.657 -0.0964  0.6387  0.9479
   29MOL   H31427250   2.764   5.831   1.749 -0.2512 -0.0947  1.0224
   29MOL   H31527251   2.850   5.638   1.601  0.2419 -2.0231 -1.2634
   29MOL   H31627252   2.866   5.538   1.389 -1.4053 -1.0617 -0.3881
   29MOL   H31727253   2.747   5.617   1.206  2.5550  1.4066  0.7972
   29MOL   H31827254   2.547   5.769   1.237  0.2930 -0.0015  0.0733
   29MOL   H31927255   2.485   5.969   1.522 -2.4575 -0.6278  1.4556
   29MOL   H32027256   2.392   5.819   1.541 -1.4589  2.0245  0.2961
   29MOL   H32127257   2.439   5.935   1.267 -0.7333 -1.3481 -0.3410
   29MOL   H32227258   2.169   6.083   1.222  2.3224  0.3315 -0.2074
   29MOL   H32327259   2.273   5.962   1.142  0.3687 -1.0568  0.1447
   29MOL   H32427260   1.986   5.938   1.229  0.0540 -0.5296 -0.2685
   29MOL   H32527261   2.067   5.792   1.186 -4.6074 -1.2355 -0.8860
   29MOL   H32627262   2.108   5.879   0.958  0.5892  1.6663 -0.2876
   29MOL   H32727263   2.030   6.034   1.011 -3.5646  0.7174 -2.3858
   29MOL   H32827264   1.859   5.784   1.034  1.8439 -0.0356  1.7059
   29MOL   H32927265   1.821   5.936   1.069  0.2415 -3.2938  1.7078
   29MOL   H33027266   1.888   5.809   0.783  0.5924 -0.2649  0.4429
   29MOL   H33127267   1.738   5.865   0.832 -0.0024  1.0093  0.7084
   29MOL   H33227268   1.981   6.035   0.782 -0.2571  1.8254 -3.5463
   29MOL   H33327269   1.841   6.097   0.862  1.2050  0.9880 -0.3992
   29MOL   H33427270   1.821   5.965   0.595  1.0578  0.6122  0.5867
   29MOL   H33527271   1.691   6.040   0.687 -0.3100  0.5626 -0.3838
   29MOL   H33627272   1.937   6.172   0.577 -0.7182 -1.4361  1.0525
   29MOL   H33727273   1.781   6.215   0.510  1.7869 -1.8568 -2.0986
   29MOL   N33827274   1.879   6.426   0.678  0.0919  0.7956 -0.4126
   29MOL   C33927275   1.872   6.546   0.756 -0.3221 -0.1958  0.2523
   29MOL   C34027276   2.001   6.600   0.805  0.4414 -0.1967  0.4038
   29MOL   C34127277   2.120   6.523   0.797 -0.0893  0.0454  0.6128
   29MOL   C34227278   2.241   6.578   0.842  0.7306  0.0029 -0.3339
   29MOL   C34327279   2.242   6.706   0.902  0.2663 -0.5356  0.6340
   29MOL   C34427280   2.123   6.787   0.898 -0.5976  0.9360  0.5492
   29MOL   C34527281   2.006   6.733   0.849  0.1539  0.0034  0.1595
   29MOL   C34627282   1.889   6.836   0.857  0.0550 -0.4168 -0.3689
   29MOL   N34727283   1.875   6.904   0.986 -0.3697 -0.3386 -0.1893
   29MOL   C34827284   1.855   7.036   1.010 -0.0768  0.0473 -0.0691
   29MOL   O34927285   1.820   7.116   0.925  0.2542 -0.0024  0.1302
   29MOL   C35027286   1.881   7.095   1.145  0.2525 -0.0133 -0.2196
   29MOL   C35127287   1.990   7.204   1.137 -0.0860  0.7368 -0.3225
   29MOL   C35227288   2.130   7.158   1.097  0.0501 -0.5961  0.5250
   29MOL   C35327289   2.227   7.272   1.083 -0.9018  0.4534  0.6059
   29MOL   C35427290   2.245   7.359   1.206  0.2133 -0.1801 -1.1090
   29MOL   C35527291   2.277   7.272   1.325 -0.0292  0.2216 -0.1414
   29MOL   C35627292   2.322   7.345   1.458 -0.1106 -0.5298 -0.2537
   29MOL   C35727293   2.478   7.369   1.462 -0.3700  0.0399  0.3199
   29MOL   C35827294   2.558   7.239   1.464  0.1139  0.5731 -0.5627
   29MOL   O35927295   2.523   7.150   1.539  0.0852  0.3077  0.0351
   29MOL   H36027296   1.940   6.429   0.597  1.9185 -0.7210  0.8653
   29MOL   H36127297   1.828   6.623   0.693 -0.7015  0.1322  0.9035
   29MOL   H36227298   1.815   6.531   0.848  1.7978 -0.6076  1.5310
   29MOL   H36327299   2.126   6.421   0.762  2.4474 -0.2738  1.8930
   29MOL   H36427300   2.332   6.519   0.835  1.0182  0.6332 -2.5585
   29MOL   H36527301   2.332   6.752   0.940  0.3989  0.4174 -0.7908
   29MOL   H36627302   2.126   6.882   0.949  1.6721  0.5272  1.2368
   29MOL   H36727303   1.791   6.796   0.829 -0.4201  0.4394  0.0450
   29MOL   H36827304   1.925   6.899   0.776  0.2668  0.4092  0.3657
   29MOL   H36927305   1.900   6.854   1.070  0.9441  3.3964  1.7860
   29MOL   H37027306   1.904   7.013   1.214 -0.8069  0.2305  0.4362
   29MOL   H37127307   1.792   7.147   1.181  0.7712  0.2803  0.6600
   29MOL   H37227308   1.999   7.248   1.236  1.1891 -2.0705  0.8656
   29MOL   H37327309   1.957   7.287   1.075  0.8009 -0.0227 -1.8399
   29MOL   H37427310   2.168   7.084   1.167  3.9568  0.7309 -0.1118
   29MOL   H37527311   2.132   7.107   1.000  0.4845  4.8120 -2.5221
   29MOL   H37627312   2.197   7.328   0.995  1.7473  0.2682 -0.4783
   29MOL   H37727313   2.323   7.232   1.049 -2.9881 -3.4446 -1.0696
   29MOL   H37827314   2.310   7.446   1.193  0.2680 -0.0386  0.0801
   29MOL   H37927315   2.144   7.395   1.224  0.6573 -0.3606  2.0334
   29MOL   H38027316   2.352   7.199   1.293  1.0215  1.1597  0.1381
   29MOL   H38127317   2.184   7.217   1.338 -0.1790  0.6253  0.5146
   29MOL   H38227318   2.263   7.436   1.458 -0.4154 -0.6520  3.2279
   29MOL   H38327319   2.284   7.300   1.549 -0.6500 -1.7968 -1.0924
   29MOL   H38427320   2.493   7.415   1.560 -0.2069 -2.5310  1.5719
   29MOL   H38527321   2.499   7.438   1.381  1.8948 -0.2357  0.6191
   29MOL   N38627322   2.659   7.225   1.379 -0.7045 -0.2960 -0.0413
   29MOL   C38727323   2.726   7.103   1.360 -0.2331 -0.2508  0.2896
   29MOL   C38827324   2.685   7.021   1.239  0.2453  0.1814 -0.4234
   29MOL   C38927325   2.549   6.982   1.230 -0.2618  0.0229 -0.2884
   29MOL   C39027326   2.499   6.925   1.108  0.3372  0.4145 -0.1125
   29MOL   C39127327   2.588   6.893   1.005 -0.4716 -0.4289  0.1153
   29MOL   C39227328   2.724   6.936   1.014 -0.2616 -0.2360  0.3301
   29MOL   C39327329   2.772   6.995   1.128 -0.3119 -1.1655 -0.0205
   29MOL   C39427330   2.913   7.055   1.123 -0.2094 -0.1526 -0.0575
   29MOL   N39527331   2.998   7.042   1.006 -0.7695 -0.3774  0.0177
   29MOL   C39627332   3.112   6.973   0.989  0.3994  0.0259 -0.0946
   29MOL   O39727333   3.149   6.890   1.074 -0.9616  0.4799 -0.5087
   29MOL   C39827334   3.192   7.002   0.857  0.6433  0.3114  0.1936
   29MOL   C39927335   3.223   6.883   0.770 -0.2893 -0.3123 -0.2867
   29MOL   C40027336   3.100   6.808   0.702  0.2891 -0.2284  0.1123
   29MOL   C40127337   3.136   6.690   0.601  0.0891 -0.1685  0.2584
   29MOL   C40227338   3.227   6.727   0.476  0.1346 -0.2155 -0.1848
   29MOL   C40327339   3.161   6.833   0.384  0.2299 -0.0940 -0.1818
   29MOL   C40427340   3.262   6.892   0.277 -0.1303  0.5666  0.7688
   29MOL   C40527341   3.376   6.982   0.335 -0.1131 -0.7378 -0.2686
   29MOL   C40627342   3.335   7.103   0.412  0.0782 -0.4073 -0.4637
   29MOL   O40727343   3.380   7.118   0.529 -0.0164  0.2175  0.3682
   29MOL   H40827344   2.679   7.302   1.317 -0.2853 -2.1762 -2.3425
   29MOL   H40927345   2.831   7.133   1.355  0.7499 -3.0172  2.7068
   29MOL   H41027346   2.718   7.039   1.448  2.9873 -0.0492  0.7716
   29MOL   H41127347   2.487   6.992   1.318 -1.2870 -2.7096 -0.6505
   29MOL   H41227348   2.403   6.876   1.113  0.3073  0.3278 -1.2684
   29MOL   H41327349   2.554   6.836   0.919 -2.2115  0.8320 -0.0618
   29MOL   H41427350   2.794   6.913   0.936 -0.3205 -0.6545  0.3989
   29MOL   H41527351   2.967   7.021   1.212 -0.2378 -0.1563 -0.0421
   29MOL   H41627352   2.916   7.160   1.152  2.8460  0.7011 -3.2028
   29MOL   H41727353   2.968   7.099   0.928 -2.3658  0.2299  1.0469
   29MOL   H41827354   3.136   7.068   0.791  0.0856  0.3457  0.6903
   29MOL   H41927355   3.283   7.057   0.880 -0.0387  1.1283  0.9549
   29MOL   H42027356   3.298   6.823   0.821 -0.3490  1.0509  1.4185
   29MOL   H42127357   3.278   6.919   0.683  1.7864  0.8681  1.4642
   29MOL   H42227358   3.042   6.884   0.649 -2.7227 -1.5040  1.4056
   29MOL   H42327359   3.040   6.770   0.786  2.3773 -0.5129  1.5129
   29MOL   H42427360   3.194   6.616   0.656  1.0697 -0.2888 -0.9323
   29MOL   H42527361   3.046   6.641   0.565 -0.6731  0.0623  1.8070
   29MOL   H42627362   3.325   6.761   0.510 -1.1521 -0.1036  3.6753
   29MOL   H42727363   3.239   6.635   0.420 -0.8072  0.9403 -2.3145
   29MOL   H42827364   3.130   6.921   0.441  2.0545  0.7336 -0.4364
   29MOL   H42927365   3.077   6.789   0.330 -0.9470  1.5643  0.2716
   29MOL   H43027366   3.202   6.953   0.209 -1.2013 -0.6724  0.5865
   29MOL   H43127367   3.299   6.810   0.215  1.0867  1.6773  0.0057
   29MOL   H43227368   3.446   7.019   0.259  1.3224 -1.2474  0.7922
   29MOL   H43327369   3.440   6.920   0.398 -2.5244  0.0146  3.0483
   29MOL   N43427370   3.249   7.188   0.354  0.6055  0.5446 -0.1683
   29MOL   C43527371   3.206   7.318   0.413  0.0714  0.1043  0.4224
   29MOL   C43627372   3.218   7.445   0.328  0.2480 -0.3930 -0.2528
   29MOL   C43727373   3.100   7.522   0.328 -0.3914  0.2364 -0.1794
   29MOL   C43827374   3.094   7.634   0.246  0.3282  0.8472 -0.9026
   29MOL   C43927375   3.194   7.665   0.161 -0.4114  0.4424 -0.0122
   29MOL   C44027376   3.316   7.600   0.173  0.4001 -0.1537 -0.0455
   29MOL   C44127377   3.325   7.487   0.257 -0.0540  1.1639  0.4607
   29MOL   C44227378   3.451   7.406   0.261 -0.1047  0.0633 -0.3663
   29MOL   N44327379   3.482   7.334   0.139  0.8140  0.4505 -0.2774
   29MOL   C44427380   3.599   7.288   0.101  0.7810  0.0185  0.4714
   29MOL   O44527381   3.695   7.296   0.176 -0.1507 -0.1396 -0.7243
   29MOL   C44627382   3.612   7.232   7.747 -0.1491 -0.4099  0.1407
   29MOL   C44727383   3.622   7.336   7.628 -0.0807 -0.5460  0.7106
   29MOL   C44827384   3.762   7.362   7.582  0.5923 -0.2770 -0.1424
   29MOL   C44927385   3.773   7.453   7.459 -1.1833  0.0878 -0.3162
   29MOL   C45027386   3.919   7.495   7.430  0.4840 -0.4055 -0.7122
   29MOL   C45127387   4.005   7.367   7.399 -0.3280  0.5833 -0.2381
   29MOL   C45227388   4.138   7.401   7.331 -0.3685 -0.2131  0.2520
   29MOL   C45327389   4.211   7.281   7.269  0.6313  0.3340 -0.6986
   29MOL   C45427390   4.325   7.321   7.180 -0.2660  0.6900  0.3915
   29MOL   O45527391   4.316   7.417   7.106  0.3375  0.5264 -0.0008
   29MOL   H45627392   3.212   7.167   0.262 -0.0301  0.2184  0.1635
   29MOL   H45727393   3.266   7.330   0.504 -0.4752 -0.1267  0.8174
   29MOL   H45827394   3.108   7.305   0.459 -0.7069 -2.5312 -1.8460
   29MOL   H45927395   3.012   7.490   0.381 -0.8036 -2.6189 -2.4702
   29MOL   H46027396   2.998   7.685   0.247  0.9619  2.0676  0.3224
   29MOL   H46127397   3.194   7.748   0.092  3.9902 -0.3227 -1.0935
   29MOL   H46227398   3.401   7.625   0.111 -0.8117 -1.5300 -2.3365
   29MOL   H46327399   3.447   7.331   0.340 -0.6796  0.7834  0.2960
   29MOL   H46427400   3.534   7.472   0.286  1.2612 -1.4788 -0.7821
   29MOL   H46527401   3.396   7.323   0.085 -0.5776  1.6708  1.6487
   29MOL   H46627402   3.520   7.177   7.728  0.1143 -0.7666 -0.1052
   29MOL   H46727403   3.691   7.158   7.740  0.3955 -0.0177  1.9960
   29MOL   H46827404   3.574   7.429   7.661 -2.6494 -2.4336  2.4309
   29MOL   H46927405   3.560   7.295   7.549 -0.7861 -1.1239  1.5621
   29MOL   H47027406   3.815   7.412   7.663  0.3321 -0.1224 -0.0683
   29MOL   H47127407   3.806   7.267   7.550 -0.2548  0.1849 -2.7989
   29MOL   H47227408   3.723   7.407   7.373 -3.4275  2.7819 -0.5167
   29MOL   H47327409   3.713   7.541   7.481 -2.4734 -1.2517  1.7087
   29MOL   H47427410   3.919   7.563   7.345  0.0304 -0.2653 -0.6041
   29MOL   H47527411   3.967   7.557   7.505 -1.1258 -0.7930  0.6624
   29MOL   H47627412   3.945   7.302   7.336 -1.7177 -0.6614  2.2859
   29MOL   H47727413   4.011   7.304   7.488  0.1545  0.1183 -0.6014
   29MOL   H47827414   4.105   7.468   7.252  0.8512  0.5718  0.4028
   29MOL   H47927415   4.201   7.460   7.398 -0.5089 -1.9729  1.9938
   29MOL   H48027416   4.237   7.211   7.348  0.3290  1.8793  0.8050
   29MOL   H48127417   4.142   7.226   7.205  2.0313 -2.1981 -0.1058
   29MOL   N48227418   4.437   7.251   7.199 -0.2605 -0.5516  0.0115
   29MOL   C48327419   4.563   7.253   7.125 -0.7787  0.3369  0.8799
   29MOL   C48427420   4.591   7.124   7.055  0.0300 -0.3317 -0.4945
   29MOL   C48527421   4.525   7.006   7.088 -0.4337  0.6646 -0.6295
   29MOL   C48627422   4.569   6.891   7.024  0.0967 -0.3991  0.4046
   29MOL   C48727423   4.645   6.884   6.909 -0.0515 -0.7193  0.0284
   29MOL   C48827424   4.699   7.006   6.870 -0.8130 -0.6928 -0.3087
   29MOL   C48927425   4.687   7.121   6.950  0.4920  0.4225 -0.5677
   29MOL   C49027426   4.766   7.249   6.905  0.8593 -0.1531  0.5055
   29MOL   N49127427   4.867   7.226   6.805  0.2955 -0.5036  0.1602
   29MOL   C49227428   4.942   7.318   6.748 -0.5359  0.9331  0.2558
   29MOL   O49327429   4.920   7.441   6.760 -0.1898 -0.3106  0.5305
   29MOL   C49427430   5.058   7.273   6.663  0.1858 -0.6258 -0.2017
   29MOL   C49527431   5.066   7.347   6.525  0.1920 -0.8885  0.0594
   29MOL   C49627432   5.197   7.322   6.460 -0.6101  0.2070  1.1688
   29MOL   C49727433   5.222   7.395   6.321 -0.2729  0.2308 -0.3746
   29MOL   C49827434   5.373   7.406   6.279  0.0318  0.3994 -0.0987
   29MOL   C49927435   5.389   7.491   6.156  0.0380  0.0006 -0.8986
   29MOL   C50027436   5.542   7.511   6.121  0.0292 -0.1733  0.1292
   29MOL   C50127437   5.568   7.581   5.983  0.2600 -1.0230 -0.3220
   29MOL   C50227438   5.487   7.526   5.860 -0.3665 -0.1757 -0.2680
   29MOL   O50327439   5.456   7.406   5.847 -0.6355  0.4140  0.2162
   29MOL   H50427440   4.435   7.192   7.282 -1.8779  0.5009  0.7526
   29MOL   H50527441   4.551   7.337   7.057 -2.9311 -2.0016 -1.7809
   29MOL   H50627442   4.636   7.257   7.205 -1.2110 -0.2907  1.3124
   29MOL   H50727443   4.442   7.011   7.157  0.3481  3.1880  0.1830
   29MOL   H50827444   4.533   6.793   7.052 -0.3678 -0.5716 -0.7677
   29MOL   H50927445   4.665   6.791   6.858  0.7353 -0.1813 -0.6402
   29MOL   H51027446   4.761   7.016   6.782  0.0361  0.1595  0.3714
   29MOL   H51127447   4.808   7.302   6.990  1.6115  1.6561 -0.9631
   29MOL   H51227448   4.693   7.319   6.865 -0.4692 -1.1474  1.1520
   29MOL   H51327449   4.899   7.131   6.795  0.4862 -0.4538  0.3120
   29MOL   H51427450   5.055   7.167   6.639 -0.9965 -1.1167  1.9758
   29MOL   H51527451   5.148   7.300   6.717  0.4479 -0.1294 -0.8805
   29MOL   H51627452   5.059   7.455   6.539 -3.3539 -0.8791 -1.1840
   29MOL   H51727453   4.980   7.316   6.466  0.4821 -1.2531 -0.1746
   29MOL   H51827454   5.273   7.349   6.533 -2.6089  2.9183  2.3616
   29MOL   H51927455   5.215   7.217   6.439 -1.6687  0.2680 -0.1237
   29MOL   H52027456   5.165   7.349   6.240 -1.5216  3.7289 -1.6130
   29MOL   H52127457   5.175   7.494   6.318 -1.0250 -0.1333 -0.8684
   29MOL   H52227458   5.432   7.442   6.363  0.4197 -2.6953  1.0087
   29MOL   H52327459   5.413   7.306   6.263 -0.3831  0.3249 -0.6721
   29MOL   H52427460   5.344   7.588   6.177 -0.5128  0.0931 -2.4766
   29MOL   H52527461   5.334   7.447   6.073 -0.5659  0.5733 -0.8044
   29MOL   H52627462   5.602   7.561   6.196 -0.1925  0.8320 -0.3452
   29MOL   H52727463   5.585   7.412   6.106 -1.9125 -1.2278  1.3399
   29MOL   H52827464   5.674   7.573   5.961  1.0895  1.7465  2.2768
   29MOL   H52927465   5.558   7.690   5.986  2.4497 -0.8368  1.8223
   29MOL   N53027466   5.439   7.616   5.773  0.0332 -0.1569 -0.5811
   29MOL   C53127467   5.344   7.586   5.663 -0.4924  0.1305 -0.5236
   29MOL   C53227468   5.319   7.708   5.566 -0.0600 -0.3441  0.1082
   29MOL   C53327469   5.394   7.700   5.450  0.2991  0.1763  0.6319
   29MOL   C53427470   5.367   0.002   5.346  0.3919  0.4036 -0.8416
   29MOL   C53527471   5.271   0.100   5.361  0.6877 -0.1468 -0.1792
   29MOL   C53627472   5.202   0.106   5.481  0.3347  0.6887 -0.1271
   29MOL   C53727473   5.223   0.014   5.585  0.0115 -0.3895  0.0094
   29MOL   C53827474   5.143   0.026   5.710 -0.1346  0.1977 -0.2217
   29MOL   N53927475   5.228   0.072   5.827  0.2098  0.2919  0.3299
   29MOL   C54027476   5.181   0.090   5.951  0.1787  0.6556  0.1335
   29MOL   O54127477   5.064   0.066   5.981  0.3632 -0.1641 -0.4227
   29MOL   C54227478   5.286   0.122   6.053  0.2782 -0.3629 -0.0645
   29MOL   C54327479   5.233   0.122   6.199  0.2124 -0.9707 -0.6534
   29MOL   C54427480   5.347   0.103   6.299 -0.0091 -0.2868 -0.2202
   29MOL   C54527481   5.282   0.100   6.438 -0.4827 -0.3026  1.0278
   29MOL   C54627482   5.264   7.744   6.493  0.0086  0.0810 -0.3478
   29MOL   C54727483   5.206   7.743   6.640  0.2750 -0.4120 -0.3333
   29MOL   C54827484   5.052   7.782   6.641  0.9344  0.0634  0.0778
   29MOL   C54927485   4.987   7.777   6.779  0.0955 -0.2548 -0.7142
   29MOL   C55027486   4.843   0.044   6.760  0.0915  0.1693 -0.0973
   29MOL   O55127487   4.820   0.165   6.743 -0.2136  0.1414  0.7143
   29MOL   H55227488   5.461   7.714   5.783  0.6962 -0.2671 -0.9609
   29MOL   H55327489   5.251   7.554   5.711 -0.9538 -0.0516 -1.5386
   29MOL   H55427490   5.386   7.504   5.604  0.2060  0.2992 -0.2658
   29MOL   H55527491   5.475   7.629   5.443 -0.4693 -0.7139  0.7329
   29MOL   H55627492   5.407   0.001   5.246 -1.9336 -0.7399 -1.7838
   29MOL   H55727493   5.253   0.166   5.278  2.1645  0.3512 -0.1240
   29MOL   H55827494   5.127   0.181   5.498 -1.1688 -0.8487  0.2363
   29MOL   H55927495   5.105   7.725   5.755 -0.2176 -0.0835 -0.8486
   29MOL   H56027496   5.063   0.099   5.702 -1.1335 -0.6947  1.4177
   29MOL   H56127497   5.327   0.081   5.812  0.0569  1.3417 -0.0919
   29MOL   H56227498   5.343   0.209   6.021 -0.3959  0.2567  0.3770
   29MOL   H56327499   5.365   0.048   6.065  0.1745 -0.3252  0.9032
   29MOL   H56427500   5.171   0.032   6.197  1.3184 -1.8644  1.7517
   29MOL   H56527501   5.175   0.213   6.213  2.8527  0.6503  0.0580
   29MOL   H56627502   5.394   0.007   6.274 -0.6616 -0.3754 -1.1366
   29MOL   H56727503   5.413   0.189   6.290 -0.3075  0.2723  2.4571
   29MOL   H56827504   5.343   0.156   6.509  0.8724 -0.8737  0.3260
   29MOL   H56927505   5.188   0.153   6.427 -0.7513 -1.0431 -0.3290
   29MOL   H57027506   5.191   7.685   6.438  0.5123 -1.3493  0.4691
   29MOL   H57127507   5.350   7.676   6.496 -0.0859 -0.0013  2.2593
   29MOL   H57227508   5.257   0.027   6.703  0.0463  0.8689 -1.6290
   29MOL   H57327509   5.216   7.653   6.701 -0.3272  0.5175  1.1797
   29MOL   H57427510   5.055   0.096   6.607  1.9408  0.3470  0.9927
   29MOL   H57527511   4.994   7.720   6.572  1.0011 -0.4829  0.5097
   29MOL   H57627512   5.035   0.063   6.842 -1.0665  0.0338 -0.1648
   29MOL   H57727513   4.993   7.675   6.816  2.1972 -0.3872 -1.3882
   29MOL   N57827514   4.748   7.742   6.759  0.2843 -0.9036 -0.4880
   29MOL   C57927515   4.609   7.762   6.726 -0.3110  0.0962 -0.9074
   29MOL   C58027516   4.545   7.620   6.717  0.5039 -0.0760  0.1698
   29MOL   C58127517   4.611   7.520   6.649 -0.1418  0.3873 -0.5813
   29MOL   C58227518   4.555   7.389   6.639  0.0829  0.7366  0.5419
   29MOL   C58327519   4.433   7.361   6.698  0.1080 -0.2402 -0.2875
   29MOL   C58427520   4.366   7.466   6.761 -0.1977 -1.0372 -0.0688
   29MOL   C58527521   4.423   7.592   6.780 -0.3039 -0.3209  0.6106
   29MOL   C58627522   4.347   7.697   6.866  0.5678  0.7934 -0.0395
   29MOL   N58727523   4.218   7.644   6.924  0.0696 -0.1391 -0.2668
   29MOL   C58827524   4.102   7.645   6.861 -0.0291  0.1041 -0.5199
   29MOL   O58927525   4.087   7.696   6.753 -0.5304  0.0275  0.7160
   29MOL   C59027526   3.983   7.565   6.919  0.6318 -0.3040 -0.5303
   29MOL   C59127527   3.988   7.414   6.892 -0.0865  0.1717 -0.3536
   29MOL   C59227528   3.882   7.345   6.974  0.3361 -0.0555 -0.6616
   29MOL   C59327529   3.870   7.193   6.953 -0.0694 -0.2848 -0.0419
   29MOL   C59427530   3.767   7.121   7.047 -0.3724 -0.8246  0.0286
   29MOL   C59527531   3.792   6.974   7.055  0.0271  0.7221  0.1949
   29MOL   C59627532   3.692   6.894   7.141  0.0438  0.1499 -0.2006
   29MOL   C59727533   3.710   6.743   7.120  0.0514  0.3384 -0.0387
   29MOL   C59827534   3.664   6.662   7.241 -0.1924  0.1437  0.2541
   29MOL   O59927535   3.543   6.655   7.266  0.3782  0.4290 -0.5955
   29MOL   H60027536   4.754   7.643   6.778 -2.2240 -0.2122  4.5143
   29MOL   H60127537   4.600   0.036   6.637  0.1774 -0.3010 -1.2431
   29MOL   H60227538   4.565   0.030   6.807 -1.7935 -2.2689  0.0043
   29MOL   H60327539   4.707   7.546   6.606 -1.1042 -0.4626 -3.3003
   29MOL   H60427540   4.616   7.320   6.583 -1.1273  1.2762 -1.4666
   29MOL   H60527541   4.382   7.266   6.690  0.5987 -0.3843 -1.9144
   29MOL   H60627542   4.270   7.440   6.802  0.0187 -0.4469  0.8370
   29MOL   H60727543   4.324   7.781   6.801 -1.9363  0.5326  0.4705
   29MOL   H60827544   4.424   7.732   6.935  0.4520 -1.3189  1.1863
   29MOL   H60927545   4.225   7.595   7.012  2.3350  0.0146 -0.3403
   29MOL   H61027546   3.890   7.600   6.875  0.3075  1.4766  1.4848
   29MOL   H61127547   3.965   7.585   7.025 -0.8507  0.1146 -0.8366
   29MOL   H61227548   4.087   7.383   6.924 -0.0375 -0.4411 -1.0811
   29MOL   H61327549   3.984   7.393   6.785 -1.3003 -1.1159 -0.0770
   29MOL   H61427550   3.915   7.364   7.076  0.3602  3.3602 -1.2443
   29MOL   H61527551   3.786   7.393   6.959  0.4434  0.4897  0.3389
   29MOL   H61627552   3.841   7.173   6.850 -0.3540 -0.7520  0.1285
   29MOL   H61727553   3.965   7.145   6.978  0.1402 -1.0271 -2.1889
   29MOL   H61827554   3.777   7.168   7.145  1.8589  1.2295 -1.1376
   29MOL   H61927555   3.663   7.136   7.018 -1.1794  1.5144  3.7987
   29MOL   H62027556   3.896   6.957   7.084 -0.6642 -2.2258  1.0804
   29MOL   H62127557   3.773   6.929   6.957 -0.2147 -0.8638  0.9666
   29MOL   H62227558   3.698   6.932   7.243  1.0722 -0.3409 -0.0733
   29MOL   H62327559   3.591   6.919   7.111 -0.9377 -0.4305  2.5109
   29MOL   H62427560   3.640   6.706   7.045 -1.0140  3.1657 -0.5103
   29MOL   H62527561   3.808   6.705   7.092 -0.0766 -1.0385  1.3428
   29MOL   N62627562   3.755   6.591   7.313 -0.1321 -0.2105  0.4329
   29MOL   C62727563   3.736   6.510   7.429 -0.2974  0.2198  0.7222
   29MOL   C62827564   3.746   6.364   7.390 -1.2893  0.3276  0.1223
   29MOL   C62927565   3.624   6.304   7.363 -0.0240  0.3171  0.7458
   29MOL   C63027566   3.616   6.165   7.343 -0.0279 -0.3769  0.4434
   29MOL   C63127567   3.732   6.089   7.339  0.4088  0.2850 -0.0264
   29MOL   C63227568   3.851   6.148   7.380 -0.0168  0.3021 -0.2517
   29MOL   C63327569   3.859   6.284   7.402 -0.4611  0.2859 -0.2731
   29MOL   C63427570   3.994   6.340   7.435  0.4408 -0.3192  0.6627
   29MOL   N63527571   4.069   6.356   7.309  0.6220 -0.2094  0.0741
   29MOL   C63627572   4.076   6.466   7.230 -0.3330  0.4218 -0.5230
   29MOL   O63727573   4.012   6.569   7.250  0.1701  0.2467  0.2158
   29MOL   C63827574   4.177   6.454   7.115 -0.4213 -0.2572  0.5219
   29MOL   C63927575   4.201   6.567   7.007 -0.7397 -0.4507  0.1904
   29MOL   C64027576   4.198   6.713   7.055 -0.2126 -0.2785  0.7310
   29MOL   C64127577   4.233   6.822   6.953 -0.2496 -0.2811  0.3379
   29MOL   C64227578   4.126   6.865   6.860 -0.4144  0.5473 -0.0416
   29MOL   C64327579   4.180   6.938   6.739 -0.0054 -0.0757  0.2204
   29MOL   C64427580   4.076   6.990   6.641 -1.5912  1.0759 -0.2353
   29MOL   C64527581   3.997   6.879   6.557 -0.1571  0.1036  0.5326
   29MOL   C64627582   3.879   6.815   6.625  0.3166  0.3112 -0.4070
   29MOL   O64727583   3.772   6.874   6.645 -0.0594  0.9388 -0.2225
   29MOL   H64827584   3.850   6.605   7.283 -0.8997  1.6078 -1.2115
   29MOL   H64927585   3.636   6.527   7.468  0.0564  2.1612  0.8191
   29MOL   H65027586   3.810   6.546   7.500  0.1867 -0.0225  0.3507
   29MOL   H65127587   3.529   6.355   7.367 -0.6040 -0.5862 -1.1435
   29MOL   H65227588   3.523   6.119   7.316  0.8524 -0.2520 -3.0309
   29MOL   H65327589   3.737   5.981   7.331  0.9433  0.4478 -2.1343
   29MOL   H65427590   3.941   6.088   7.382  1.1582  2.0123 -0.3604
   29MOL   H65527591   4.035   6.262   7.498  0.6905 -0.4719  0.3090
   29MOL   H65627592   3.995   6.430   7.497 -1.6441 -0.9932  1.6929
   29MOL   H65727593   4.127   6.280   7.277 -0.3894 -1.7119  1.7249
   29MOL   H65827594   4.167   6.358   7.065  1.6727  0.5201 -1.4685
   29MOL   H65927595   4.273   6.446   7.167 -0.6590 -0.9001  0.8783
   29MOL   H66027596   4.129   6.554   6.927 -0.6031 -0.5426  0.0823
   29MOL   H66127597   4.302   6.553   6.969 -0.8480 -0.1153 -0.2252
   29MOL   H66227598   4.102   6.738   7.100 -0.1534 -0.6311  1.0621
   29MOL   H66327599   4.279   6.718   7.128  0.1888 -0.2235  0.2840
   29MOL   H66427600   4.274   6.910   7.002 -0.2397 -0.6542  1.0114
   29MOL   H66527601   4.314   6.790   6.887  0.1779 -0.4010  0.9075
   29MOL   H66627602   4.055   6.783   6.847 -0.4670  0.6573 -0.4560
   29MOL   H66727603   4.069   6.932   6.925 -0.0219  1.4980 -0.6736
   29MOL   H66827604   4.249   6.876   6.683 -1.5030  1.3383 -3.3586
   29MOL   H66927605   4.235   7.029   6.764  2.1215 -0.9964 -0.9810
   29MOL   H67027606   4.003   7.059   6.683 -0.6168  1.9191  0.1126
   29MOL   H67127607   4.127   7.059   6.573  0.1368 -0.0900 -0.1521
   29MOL   H67227608   4.070   6.813   6.509 -0.8630  0.0024 -0.4155
   29MOL   H67327609   3.956   6.930   6.470  2.4589 -0.0032 -0.8333
   29MOL   N67427610   3.900   6.682   6.655  0.5253 -1.0445  0.1422
   29MOL   C67527611   3.817   6.614   6.750  0.0722 -0.5162 -0.3995
   29MOL   C67627612   3.838   6.458   6.738 -0.0527 -0.2307 -0.0795
   29MOL   C67727613   3.852   6.393   6.861 -0.0302 -0.6370  0.4390
   29MOL   C67827614   3.862   6.250   6.862 -0.0538  0.1193  0.1057
   29MOL   C67927615   3.871   6.175   6.736  0.7052 -0.0807 -0.2105
   29MOL   C68027616   3.856   6.242   6.615 -0.4790  0.5176 -0.2776
   29MOL   C68127617   3.831   6.382   6.613  0.5351 -0.5717  0.4556
   29MOL   C68227618   3.788   6.444   6.479 -0.7844 -0.6579  0.5815
   29MOL   N68327619   3.673   6.384   6.410  0.1613  0.4405 -0.3058
   29MOL   C68427620   3.544   6.380   6.448 -0.9105  0.4752 -0.2703
   29MOL   O68527621   3.468   6.332   6.373  0.6822 -0.1277  0.2206
   29MOL   C68627622   3.503   6.440   6.589  0.3496 -0.0896  0.4133
   29MOL   C68727623   3.350   6.463   6.593  0.1960 -0.5280 -0.1111
   29MOL   C68827624   3.313   6.578   6.498 -0.2892 -0.2762  0.8824
   29MOL   C68927625   3.375   6.713   6.535 -0.3707 -0.2243 -0.0570
   29MOL   C69027626   3.299   6.829   6.467  0.3632  0.5104  0.2422
   29MOL   C69127627   3.173   6.869   6.546  0.3846  0.1233 -0.4812
   29MOL   C69227628   3.083   6.955   6.453 -0.0570 -0.0191 -0.3237
   29MOL   C69327629   3.131   7.097   6.421 -0.9029  0.2505 -0.0461
   29MOL   C69427630   3.071   7.204   6.507 -0.2394  0.4337 -0.4024
   29MOL   O69527631   2.955   7.218   6.506  0.2149 -0.1485  0.0448
   29MOL   H69627632   3.982   6.639   6.615  2.1817  2.0353  0.0249
   29MOL   H69727633   3.712   6.634   6.730  0.3799  0.4468 -1.0668
   29MOL   H69827634   3.819   6.653   6.852  1.9662 -0.8029 -0.3020
   29MOL   H69927635   3.853   6.440   6.958 -0.1610  0.4799 -0.0965
   29MOL   H70027636   3.880   6.192   6.951  0.6652  1.5528  0.9084
   29MOL   H70127637   3.890   6.068   6.733  0.3155 -0.1995  0.9371
   29MOL   H70227638   3.868   6.186   6.524  0.7562  1.4969 -0.7343
   29MOL   H70327639   3.869   6.432   6.407 -1.0546 -1.0968  0.3492
   29MOL   H70427640   3.759   6.549   6.489  0.0129 -0.5050  1.2535
   29MOL   H70527641   3.693   6.348   6.317 -0.6221 -0.3065 -0.1926
   29MOL   H70627642   3.557   6.532   6.610  0.1914 -0.4234  2.4246
   29MOL   H70727643   3.534   6.366   6.664  3.4093  0.3571 -0.3555
   29MOL   H70827644   3.323   6.492   6.695  1.6900 -1.3553  0.5314
   29MOL   H70927645   3.306   6.366   6.571  1.2522 -1.5852  2.2319
   29MOL   H71027646   3.328   6.549   6.394 -2.1942 -2.4456  1.1663
   29MOL   H71127647   3.205   6.594   6.498 -0.5751 -2.1034  1.3887
   29MOL   H71227648   3.358   6.747   6.637 -1.4672  1.2416 -0.7171
   29MOL   H71327649   3.480   6.716   6.504 -0.1082 -0.5214  0.7741
   29MOL   H71427650   3.358   6.921   6.466  0.5361  0.3952 -0.5156
   29MOL   H71527651   3.289   6.803   6.361 -0.4163 -2.2406  0.9380
   29MOL   H71627652   3.193   6.904   6.647 -1.4140 -0.3686  0.0669
   29MOL   H71727653   3.110   6.784   6.570 -0.7638  0.6153 -1.6781
   29MOL   H71827654   2.980   6.966   6.488  0.8394 -0.6359  2.6462
   29MOL   H71927655   3.065   6.894   6.365 -0.0848 -1.2529  0.5333
   29MOL   H72027656   3.111   7.122   6.317 -1.6046 -1.2555 -0.2836
   29MOL   H72127657   3.240   7.099   6.429 -0.3618 -3.6421 -4.5200
   29MOL   N72227658   3.149   7.283   6.586 -0.1783 -0.1551 -0.1634
   29MOL   C72327659   3.122   7.427   6.590  0.0058  0.4628 -0.2004
   29MOL   C72427660   3.104   7.486   6.733  0.1649  0.6814  0.6703
   29MOL   C72527661   3.207   7.573   6.771  0.4193  0.0934  0.1782
   29MOL   C72627662   3.193   7.641   6.896 -0.1209 -0.1200  0.2661
   29MOL   C72727663   3.088   7.614   6.984 -0.2134  0.0880 -0.2008
   29MOL   C72827664   2.988   7.517   6.947 -0.1546  0.2310  0.5804
   29MOL   C72927665   2.994   7.461   6.818 -0.1718 -0.1053  0.8436
   29MOL   C73027666   2.879   7.366   6.781  0.3798  0.1672 -0.1829
   29MOL   N73127667   2.922   7.229   6.799  0.3508  0.1646 -0.6582
   29MOL   C73227668   2.870   7.135   6.872 -0.3448 -0.4149 -0.4444
   29MOL   O73327669   2.783   7.151   6.955 -0.1445  0.3158  0.4938
   29MOL   C73427670   2.906   6.996   6.823 -0.3278  0.2811  0.5666
   29MOL   C73527671   2.929   6.905   6.943 -0.6292 -0.2536  0.0394
   29MOL   C73627672   2.967   6.762   6.903  0.5523  0.6515 -0.0265
   29MOL   C73727673   2.862   6.655   6.874  0.8772 -0.3617  0.7654
   29MOL   C73827674   2.918   6.516   6.839  0.5186  0.5444  0.0648
   29MOL   C73927675   2.809   6.415   6.811  0.0300  0.2115 -0.3057
   29MOL   C74027676   2.859   6.274   6.770  0.1906  0.5107 -0.0408
   29MOL   C74127677   2.750   6.189   6.706 -0.2651 -0.3624 -0.1933
   29MOL   C74227678   2.646   6.144   6.818  0.1293  0.4268 -0.0031
   29MOL   O74327679   2.687   6.112   6.928 -0.2815  0.3280  0.1454
   29MOL   H74427680   3.246   7.259   6.600 -0.0406  1.6953  2.2304
   29MOL   H74527681   3.033   7.441   6.528  0.0326 -2.0825 -0.8628
   29MOL   H74627682   3.196   7.485   6.535 -1.5765  1.2640 -1.5562
   29MOL   H74727683   3.289   7.593   6.704  0.3074 -0.3413 -0.0913
   29MOL   H74827684   3.269   7.714   6.920  0.7981 -1.1640  0.6150
   29MOL   H74927685   3.086   7.657   7.083 -0.6808 -0.5824  0.0876
   29MOL   H75027686   2.906   7.492   7.013 -0.9373  1.3821  0.0623
   29MOL   H75127687   2.849   7.372   6.677  2.8391  1.1755 -0.8664
   29MOL   H75227688   2.795   7.395   6.843 -0.2056 -0.7235 -0.5474
   29MOL   H75327689   2.973   7.195   6.719 -0.6504  0.6738 -1.5316
   29MOL   H75427690   2.992   6.989   6.755 -1.2730 -1.0295 -0.5325
   29MOL   H75527691   2.823   6.957   6.765  0.6534 -2.6684  1.0281
   29MOL   H75627692   2.853   6.918   7.020  0.0535  2.2830  0.3525
   29MOL   H75727693   3.015   6.958   6.984 -1.2811  1.0274 -0.2052
   29MOL   H75827694   3.049   6.764   6.832 -0.5038  5.7943 -1.3112
   29MOL   H75927695   3.009   6.711   6.989 -0.8460  0.6481  0.6799
   29MOL   H76027696   2.796   6.639   6.959  0.4714 -0.5085  0.4235
   29MOL   H76127697   2.790   6.684   6.797  1.0934 -0.7336  0.4200
   29MOL   H76227698   2.983   6.539   6.754 -1.5173  1.5410 -1.2768
   29MOL   H76327699   2.989   6.478   6.911 -0.9638 -2.4240  0.0209
   29MOL   H76427700   2.734   6.456   6.743  0.3344 -0.9151 -1.3391
   29MOL   H76527701   2.742   6.403   6.896 -1.1472 -1.4981 -1.4271
   29MOL   H76627702   2.931   6.288   6.690  0.8854 -3.3743 -0.2167
   29MOL   H76727703   2.911   6.227   6.854 -1.1902 -0.2221  0.4257
   29MOL   H76827704   2.703   6.249   6.629 -0.6295  0.4788  0.6825
   29MOL   H76927705   2.790   6.103   6.651  0.9787 -0.3769  0.7156
   29MOL   N77027706   2.521   6.138   6.781  0.3284  0.0165 -0.9174
   29MOL   C77127707   2.410   6.086   6.869  0.3630 -0.2502  0.1018
   29MOL   C77227708   2.308   6.199   6.887 -0.2777  0.3585  0.0554
   29MOL   C77327709   2.354   6.310   6.963 -0.1630 -0.1520 -0.2676
   29MOL   C77427710   2.272   6.423   6.981  0.4690  0.3912  0.3727
   29MOL   C77527711   2.144   6.424   6.924  0.2403  0.2596 -0.3444
   29MOL   C77627712   2.095   6.314   6.849  0.2191 -0.4632 -0.8790
   29MOL   C77727713   2.176   6.202   6.829  0.3654  0.3219 -0.1643
   29MOL   C77827714   2.129   6.087   6.737 -0.3730 -0.2247 -1.0672
   29MOL   N77927715   1.988   6.073   6.726 -0.3905 -0.3490 -0.1179
   29MOL   C78027716   1.908   5.990   6.799  0.2505 -0.3057 -0.4692
   29MOL   O78127717   1.952   5.912   6.884 -0.1403 -0.0953  0.1409
   29MOL   C78227718   1.757   5.985   6.771  0.3228 -0.2309  0.3665
   29MOL   C78327719   1.668   6.075   6.870  0.6609  0.0774 -0.6308
   29MOL   C78427720   1.637   6.007   7.005  0.2603 -0.0942 -0.2967
   29MOL   C78527721   1.521   6.075   7.087 -0.3821 -0.1117  0.3327
   29MOL   C78627722   1.452   5.992   7.200  0.1368  0.0638  0.5433
   29MOL   C78727723   1.326   6.063   7.264  0.3445 -0.0420 -0.0369
   29MOL   C78827724   1.191   6.058   7.174  0.0172 -0.0291  0.0377
   29MOL   C78927725   1.069   6.112   7.247 -0.1090 -0.2142  0.1596
   29MOL   C79027726   0.937   6.092   7.172  0.6193  0.2818 -0.6978
   29MOL   O79127727   0.925   6.023   7.074  0.5067 -0.2735  0.0608
   29MOL   H79227728   2.491   6.161   6.687  2.1870  0.9141 -1.3013
   29MOL   H79327729   2.377   5.995   6.818  1.0467  0.9820 -2.6670
   29MOL   H79427730   2.447   6.061   6.968  1.5851 -1.2211 -0.5779
   29MOL   H79527731   2.454   6.323   7.001  0.9330  1.4296 -3.5112
   29MOL   H79627732   2.308   6.514   7.026 -0.7228  0.5272  1.0619
   29MOL   H79727733   2.074   6.506   6.930 -0.6813 -0.5212 -0.3471
   29MOL   H79827734   1.996   6.312   6.806 -0.6048 -2.2305  1.0594
   29MOL   H79927735   2.179   5.998   6.777  1.4833  1.9160  1.6410
   29MOL   H80027736   2.171   6.104   6.638 -1.5095 -0.0671 -1.5298
   29MOL   H80127737   1.935   6.130   6.662 -1.3264  0.9901  1.8162
   29MOL   H80227738   1.723   5.882   6.781  0.1817 -0.1315  0.9363
   29MOL   H80327739   1.748   6.004   6.664  0.4881  3.0854  0.9010
   29MOL   H80427740   1.579   6.085   6.807  0.7723 -0.5058 -0.8870
   29MOL   H80527741   1.701   6.178   6.883 -2.1696  0.9135  0.1572
   29MOL   H80627742   1.732   5.999   7.058 -0.4152 -0.6106  0.8606
   29MOL   H80727743   1.615   5.904   6.981  1.3154  0.3724 -3.4744
   29MOL   H80827744   1.540   6.176   7.124 -1.6121 -0.6212  2.4468
   29MOL   H80927745   1.454   6.105   7.006  1.5898 -0.8235 -1.5870
   29MOL   H81027746   1.414   5.893   7.174 -0.2283 -0.1677  1.9312
   29MOL   H81127747   1.519   5.966   7.282  1.7456  1.7372 -0.2141
   29MOL   H81227748   1.340   6.169   7.286  0.2986 -0.0968  0.2587
   29MOL   H81327749   1.312   6.022   7.364  0.1395 -0.7044 -0.3357
   29MOL   H81427750   1.169   5.957   7.142 -2.6979  0.1837  1.1045
   29MOL   H81527751   1.206   6.115   7.083  2.2027 -1.4652 -0.5227
   29MOL   H81627752   1.088   6.211   7.287 -0.2955  0.1937 -0.7494
   29MOL   H81727753   1.045   6.056   7.338 -2.0405 -0.8392 -0.6985
   29MOL   N81827754   0.838   6.165   7.224  0.2281  0.1366 -0.5698
   29MOL   C81927755   0.705   6.176   7.159 -0.3214 -0.0431  0.8085
   29MOL   C82027756   0.698   6.277   7.041  0.3400 -0.0511  0.0242
   29MOL   C82127757   0.807   6.367   7.021  0.4238  0.4108  0.1376
   29MOL   C82227758   0.811   6.451   6.907  0.1410 -0.3367 -1.3160
   29MOL   C82327759   0.704   6.446   6.813 -0.3249  0.1325 -0.2208
   29MOL   C82427760   0.600   6.353   6.832 -0.2339 -0.4423  0.5691
   29MOL   C82527761   0.593   6.270   6.944 -0.2198 -0.6173  0.0926
   29MOL   C82627762   0.474   6.173   6.948  0.2886 -0.0510 -0.1447
   29MOL   N82727763   0.418   6.143   6.816 -0.1263 -0.2473  0.1518
   29MOL   C82827764   0.362   6.025   6.782 -0.0179  0.2729  0.1671
   29MOL   O82927765   0.378   5.916   6.841 -0.2509  0.0683  0.1956
   29MOL   C83027766   0.293   6.022   6.646 -0.2449  0.6478  0.0275
   29MOL   C83127767   0.144   6.044   6.665 -0.0510 -0.6077 -0.0743
   29MOL   C83227768   0.075   5.929   6.726 -0.4354  0.2717  0.3132
   29MOL   C83327769   7.728   5.970   6.773 -0.2049  0.0792  0.2014
   29MOL   C83427770   7.668   5.861   6.856 -0.0078  0.7121  0.1878
   29MOL   C83527771   7.521   5.897   6.893 -0.0137 -0.2954 -0.4500
   29MOL   C83627772   7.480   5.812   7.016 -0.0295 -0.0083  0.0302
   29MOL   C83727773   7.466   5.653   6.992 -0.1161  0.3929 -0.0209
   29MOL   C83827774   7.344   5.617   6.913  0.3038 -0.6544  0.5142
   29MOL   O83927775   7.272   5.711   6.871  0.7215 -0.0674  1.0715
   29MOL   H84027776   0.861   6.229   7.298 -0.8864 -1.3814  1.1336
   29MOL   H84127777   0.676   6.074   7.132 -1.0838 -0.5072  3.2595
   29MOL   H84227778   0.630   6.205   7.232  1.0616  0.5836  1.9983
   29MOL   H84327779   0.891   6.377   7.088  0.0540  0.5655  0.5802
   29MOL   H84427780   0.884   6.530   6.899  0.3123  0.2770  4.1720
   29MOL   H84527781   0.700   6.504   6.722 -3.0997 -1.1108 -0.9316
   29MOL   H84627782   0.524   6.351   6.756  2.9944  1.1510 -2.9000
   29MOL   H84727783   0.392   6.219   7.003 -0.3910 -0.6821 -0.6311
   29MOL   H84827784   0.495   6.074   6.988  0.5965  0.1418  0.1795
   29MOL   H84927785   0.387   6.220   6.758  1.0701 -0.8479 -1.3398
   29MOL   H85027786   0.315   5.930   6.591 -2.5344  0.4790 -0.6343
   29MOL   H85127787   0.326   6.107   6.586  1.2227  0.9864  1.2766
   29MOL   H85227788   0.109   6.066   6.564 -1.2243  0.1457  0.4816
   29MOL   H85327789   0.126   6.128   6.733  0.1340 -0.0789 -0.6697
   29MOL   H85427790   0.124   5.879   6.808  1.8243 -1.3126 -1.9248
   29MOL   H85527791   0.064   5.857   6.644 -1.1401  1.5490 -0.7433
   29MOL   H85627792   7.742   6.063   6.829  2.2002  1.0126 -1.8583
   29MOL   H85727793   7.670   5.989   6.683 -0.8877 -3.0145 -0.0602
   29MOL   H85827794   7.659   5.765   6.804 -4.0298 -1.1942  4.0282
   29MOL   H85927795   7.720   5.846   6.951  1.9471 -0.2527 -1.0123
   29MOL   H86027796   7.452   5.888   6.809 -1.5195  0.3110  0.6948
   29MOL   H86127797   7.518   6.000   6.930  1.6686 -0.0022 -1.0600
   29MOL   H86227798   7.386   5.842   7.064  0.2300 -0.3280  0.7421
   29MOL   H86327799   7.549   5.827   7.099 -0.9158  2.2451  0.4225
   29MOL   H86427800   7.558   5.615   6.947  1.6574  1.5812  2.4792
   29MOL   H86527801   7.457   5.606   7.089  1.1493 -0.6033 -0.3721
   29MOL   N86627802   7.318   5.492   6.889  0.5434  0.3413 -0.4062
   29MOL   C86727803   7.199   5.443   6.814 -0.1059 -0.2169  0.0961
   29MOL   C86827804   7.229   5.358   6.693 -0.9792 -1.0632  0.2577
   29MOL   C86927805   7.312   5.248   6.713  0.1586 -0.3255  0.0872
   29MOL   C87027806   7.330   5.153   6.613  0.3150  0.2131 -0.5050
   29MOL   C87127807   7.270   5.171   6.490  0.2691 -0.3285  0.3263
   29MOL   C87227808   7.188   5.281   6.468  0.6956 -0.2309 -0.3988
   29MOL   C87327809   7.166   5.374   6.571 -0.0362 -0.7375  0.5556
   29MOL   C87427810   7.074   5.498   6.534  0.7266 -0.6323 -0.1901
   29MOL   N87527811   6.969   5.530   6.631 -0.1612  0.8999 -0.4688
   29MOL   C87627812   6.924   5.647   6.671 -0.1291 -0.2290 -0.1166
   29MOL   O87727813   6.973   5.751   6.631  0.1178 -0.4050  0.3879
   29MOL   C87827814   6.810   5.642   6.771 -0.4872  0.2137  0.0312
   29MOL   C87927815   6.764   5.785   6.791  1.2868  0.1280 -0.0994
   29MOL   C88027816   6.671   5.806   6.914 -0.1770  0.1163  0.2402
   29MOL   C88127817   6.638   5.955   6.932 -0.5063  0.4821  0.3759
   29MOL   C88227818   6.579   5.974   7.076  0.6200 -0.1125  0.1158
   29MOL   C88327819   6.515   6.106   7.105  0.2739  0.6978 -0.2151
   29MOL   C88427820   6.372   6.115   7.034 -0.6113 -0.2712  0.1686
   29MOL   C88527821   6.267   6.044   7.113  1.0048  0.2730 -0.1229
   29MOL   C88627822   6.125   6.067   7.062  0.4383  0.3211 -0.1521
   29MOL   O88727823   6.110   6.079   6.938  0.3848  0.4389  0.4049
   29MOL   H88827824   7.371   5.429   6.947 -1.6130  0.1318  1.4152
   29MOL   H88927825   7.141   5.385   6.886 -1.5302  0.3172 -0.6049
   29MOL   H89027826   7.145   5.532   6.784 -0.0215  0.7322  2.6246
   29MOL   H89127827   7.348   5.223   6.811 -1.4240 -1.2573  0.4454
   29MOL   H89227828   7.394   5.068   6.631 -0.0908 -0.0203 -0.1562
   29MOL   H89327829   7.285   5.098   6.411  1.4435 -0.7570  0.9279
   29MOL   H89427830   7.140   5.310   6.376 -1.9333 -2.6706  0.1205
   29MOL   H89527831   7.030   5.479   6.436  0.4428 -1.3120  0.0669
   29MOL   H89627832   7.145   5.581   6.532  1.5746 -1.3486 -0.3273
   29MOL   H89727833   6.920   5.451   6.669  3.1194  0.4940  3.1796
   29MOL   H89827834   6.860   5.595   6.855  0.3125  0.3520 -0.3652
   29MOL   H89927835   6.728   5.572   6.753 -1.2388  1.1231 -0.1398
   29MOL   H90027836   6.714   5.828   6.703 -1.5225 -1.3398  0.7259
   29MOL   H90127837   6.854   5.844   6.809  0.3697  0.9962  1.7097
   29MOL   H90227838   6.582   5.743   6.917  0.6983 -1.1126  0.7948
   29MOL   H90327839   6.734   5.782   6.999 -0.1873  1.3087  0.5969
   29MOL   H90427840   6.723   6.022   6.924 -0.0722 -0.0229  0.6449
   29MOL   H90527841   6.556   5.994   6.872 -1.3437  0.1753  1.2889
   29MOL   H90627842   6.516   5.887   7.098  0.3213  0.1166  0.1669
   29MOL   H90727843   6.666   5.967   7.142  0.4762 -0.7653  0.2417
   29MOL   H90827844   6.586   6.184   7.077 -0.6449  1.6522  0.1027
   29MOL   H90927845   6.498   6.108   7.212 -0.2959 -2.2156 -0.2166
   29MOL   H91027846   6.339   6.219   7.040 -1.9223 -0.5105 -2.3113
   29MOL   H91127847   6.356   6.098   6.928 -2.5791 -0.4319  0.4883
   29MOL   H91227848   6.284   5.937   7.111  0.9628  0.2251  1.3676
   29MOL   H91327849   6.270   6.084   7.215  0.8530 -1.0150  0.3984
   29MOL   N91427850   6.031   6.075   7.158  0.1350 -0.2154  0.1181
   29MOL   C91527851   5.885   6.078   7.143 -0.0236  0.3791  0.5059
   29MOL   C91627852   5.844   5.929   7.146 -0.4509  0.3461 -0.6880
   29MOL   C91727853   5.839   5.865   7.021  0.6416 -0.5729 -0.5846
   29MOL   C91827854   5.795   5.733   7.009  0.1328  1.0247 -0.6351
   29MOL   C91927855   5.775   5.660   7.126  0.7489 -0.0802 -0.3561
   29MOL   C92027856   5.779   5.720   7.253  0.7676 -0.5909 -0.3517
   29MOL   C92127857   5.813   5.858   7.269  0.7564  0.6229  0.4037
   29MOL   C92227858   5.817   5.913   7.404  0.1108 -0.1913 -1.2831
   29MOL   N92327859   5.712   6.011   7.421 -0.1591  0.2078  0.5336
   29MOL   C92427860   5.732   6.127   7.477  0.8956  0.0039 -1.2634
   29MOL   O92527861   5.845   6.157   7.514  0.0822 -0.7761  0.3675
   29MOL   C92627862   5.606   6.213   7.502 -0.1210 -0.4511  0.0863
   29MOL   C92727863   5.643   6.358   7.548  0.1410 -0.0326  0.1963
   29MOL   C92827864   5.535   6.460   7.563 -0.0760 -0.2609 -0.3589
   29MOL   C92927865   5.479   6.475   7.704 -0.1191 -0.2333 -0.8392
   29MOL   C93027866   5.358   6.575   7.693 -0.3355 -0.0654 -0.0682
   29MOL   C93127867   5.298   6.629   0.035  0.0243 -0.1778 -0.3328
   29MOL   C93227868   5.158   6.685   0.026  0.5999 -0.3427 -0.1347
   29MOL   C93327869   5.147   6.822   7.738 -1.0076 -0.8598 -0.7392
   29MOL   C93427870   5.005   6.867   7.713 -0.0310  0.0416 -0.2891
   29MOL   O93527871   4.965   6.960   7.781  0.1216  0.5718  0.1974
   29MOL   H93627872   6.048   6.064   7.257 -1.0658 -0.9881  0.2424
   29MOL   H93727873   5.841   6.129   7.229  0.1863  0.0273  0.8271
   29MOL   H93827874   5.863   6.117   7.044  0.4190  0.3030  0.3791
   29MOL   H93927875   5.862   5.911   6.926  1.7958  0.3261  0.1271
   29MOL   H94027876   5.775   5.686   6.913 -0.0206  1.6387 -0.9046
   29MOL   H94127877   5.745   5.557   7.109 -0.1352  0.1325 -0.0845
   29MOL   H94227878   5.742   5.660   7.335 -0.9841  1.0082  0.0823
   29MOL   H94327879   5.920   5.944   7.419  1.1379 -2.9364 -2.4142
   29MOL   H94427880   5.782   5.837   7.473 -1.5111  1.8326  0.1628
   29MOL   H94527881   5.620   5.991   7.383  0.6481 -0.2268 -1.2223
   29MOL   H94627882   5.562   6.154   7.583 -0.0413 -3.1043 -1.7238
   29MOL   H94727883   5.550   6.216   7.409 -1.9391  1.1872  1.2157
   29MOL   H94827884   5.719   6.390   7.477  1.3731  0.5621  1.7554
   29MOL   H94927885   5.692   6.349   7.645  1.1963 -1.9208 -0.5036
   29MOL   H95027886   5.572   6.559   7.538 -1.4208  0.1675 -0.7323
   29MOL   H95127887   5.465   6.435   7.483  1.1978 -0.4128 -1.4364
   29MOL   H95227888   5.452   6.378   7.745  1.1093 -0.3432 -0.2717
   29MOL   H95327889   5.553   6.529   7.763 -1.0471  0.4368 -0.2793
   29MOL   H95427890   5.280   6.515   7.646  0.2841 -0.5376 -0.5012
   29MOL   H95527891   5.371   6.662   7.628 -2.7500  0.1976 -0.2579
   29MOL   H95627892   5.294   6.550   0.110 -0.4485 -0.3729 -0.5619
   29MOL   H95727893   5.371   6.702   0.072  0.5567 -1.1936  0.6331
   29MOL   H95827894   5.115   6.686   0.126 -1.4429  0.4650 -0.9912
   29MOL   H95927895   5.093   6.606   7.778  0.8529 -0.6919  0.1575
   29MOL   H96027896   5.193   6.812   7.639  1.7294  1.3253  0.2403
   29MOL   H96127897   5.201   6.900   0.002 -1.2768 -1.4257  0.3645
   29MOL   H96227898   4.942   6.815   7.640  0.5889 -0.0534 -0.7663
   30MOL     N127899   7.173   7.659   0.068  0.6998 -0.3750  0.3160
   30MOL     C227900   7.058   7.729   0.001  0.5143 -0.3471  0.6854
   30MOL     C327901   7.066   0.095   0.011 -0.3216 -0.2235 -0.1549
   30MOL     C427902   6.986   0.156   0.113 -0.3472  0.4971 -0.3569
   30MOL     C527903   6.981   0.292   0.122 -0.5819 -0.1252 -0.2139
   30MOL     C627904   7.044   0.375   0.025 -0.0227  0.2276 -0.5131
   30MOL     C727905   7.131   0.320   7.723 -0.1839  0.0245 -0.0690
   30MOL     C827906   7.145   0.177   7.715  0.3573 -0.1029  0.5342
   30MOL     C927907   7.255   0.120   7.630  0.1868 -0.2540  0.1207
   30MOL    N1027908   7.355   0.052   7.716  0.2393  0.4384 -0.2267
   30MOL    C1127909   7.484   0.078   7.741  0.0236  0.0970 -0.2966
   30MOL    O1227910   7.555   0.125   7.652 -0.0466 -0.4125  0.5753
   30MOL    C1327911   7.538   0.022   0.086  0.0504 -0.5024  0.5190
   30MOL    C1427912   7.553   0.133   0.189  0.6885 -0.0909  0.3481
   30MOL    C1527913   7.416   0.180   0.247 -1.1072 -0.5630 -0.9254
   30MOL    C1627914   7.369   0.072   0.347 -0.2532 -0.7895 -0.3252
   30MOL    C1727915   7.237   0.101   0.419  0.5004 -0.4971 -0.0434
   30MOL    C1827916   7.229   0.069   0.572  0.3635 -0.0441 -0.6505
   30MOL    C1927917   7.213   7.716   0.616 -0.1795  1.0041 -0.3096
   30MOL    C2027918   7.202   7.701   0.768 -0.6796  0.1516  0.6328
   30MOL    C2127919   7.177   7.556   0.817  0.2909  0.0002  0.1765
   30MOL    O2227920   7.116   7.473   0.745  0.7565  0.3487  0.6357
   30MOL    H2327921   7.222   7.609   7.786  1.4984  0.4327  0.2897
   30MOL    H2427922   7.053   7.692   7.689 -1.1099  0.9925  0.2448
   30MOL    H2527923   6.961   7.696   0.037 -1.4088 -0.3939 -4.1635
   30MOL    H2627924   6.932   0.098   0.186  0.4506  1.2614  0.8549
   30MOL    H2727925   6.915   0.342   0.192 -0.1303  0.0294  0.1000
   30MOL    H2827926   7.042   0.483   0.034 -0.1328  0.2890 -1.2984
   30MOL    H2927927   7.192   0.374   7.652 -1.9740  1.8537 -0.2817
   30MOL    H3027928   7.295   0.203   7.573 -1.9393  0.4499 -0.3783
   30MOL    H3127929   7.219   0.048   7.557  0.4349  0.3814 -0.6279
   30MOL    H3227930   7.303   0.012   0.003 -1.5740 -1.1521 -2.2280
   30MOL    H3327931   7.639   7.770   0.081  1.0943  1.7664  1.6759
   30MOL    H3427932   7.477   7.727   0.117 -1.9094  1.5820  2.5220
   30MOL    H3527933   7.599   0.219   0.141 -2.1818  1.7237  0.7294
   30MOL    H3627934   7.621   0.118   0.273  1.4557  0.5705 -0.1444
   30MOL    H3727935   7.424   0.271   0.306  2.5859 -1.6733  0.4377
   30MOL    H3827936   7.344   0.191   0.166 -2.9828  1.1150  0.9315
   30MOL    H3927937   7.362   7.774   0.284  1.2494 -1.2918  0.2070
   30MOL    H4027938   7.443   0.050   0.423 -0.7938 -0.6555  0.2475
   30MOL    H4127939   7.227   0.210   0.415  0.4079 -0.5545 -1.7560
   30MOL    H4227940   7.152   0.058   0.366  0.0077 -0.1180  0.4318
   30MOL    H4327941   7.148   0.128   0.615 -0.4945 -0.2855 -1.9060
   30MOL    H4427942   7.320   0.107   0.619 -0.4712 -0.2796  1.1786
   30MOL    H4527943   7.120   7.671   0.580 -0.6165  2.1371 -0.5998
   30MOL    H4627944   7.283   7.648   0.568  0.4256 -1.3787  3.6976
   30MOL    H4727945   7.135   7.771   0.817  2.0209  1.5069  2.5354
   30MOL    H4827946   7.302   7.733   0.798 -0.4686 -1.3805  1.5997
   30MOL    H4927947   7.131   7.591   0.129  0.9297 -1.3964 -0.6583
   30MOL    N5027948   7.196   7.531   0.946  0.6649 -0.4925 -0.1653
   30MOL    C5127949   7.232   7.623   1.052  0.2457 -0.6086 -0.2208
   30MOL    C5227950   7.118   7.690   1.122  0.0294 -0.5206 -0.3401
   30MOL    C5327951   6.986   7.637   1.114  0.1099  0.1674  0.6001
   30MOL    C5427952   6.884   7.698   1.193  0.7691  0.1228 -0.2727
   30MOL    C5527953   6.912   7.788   1.294 -0.0774 -0.5607  0.1834
   30MOL    C5627954   7.046   0.040   1.309 -0.5084  0.0542  0.1558
   30MOL    C5727955   7.145   7.788   1.223 -0.2519 -0.5851  0.2575
   30MOL    C5827956   7.282   0.058   1.242 -0.0088 -0.2047  0.5662
   30MOL    N5927957   7.328   0.035   1.376  0.2766  0.1991 -0.3101
   30MOL    C6027958   7.400   7.717   1.403 -0.0097 -0.3369  0.3559
   30MOL    O6127959   7.451   7.647   1.316 -0.3723 -0.4852 -0.1327
   30MOL    C6227960   7.421   7.689   1.552 -0.4658  0.5085  0.0252
   30MOL    C6327961   7.571   7.653   1.574  0.1110  0.1846  0.0336
   30MOL    C6427962   7.606   7.611   1.715 -0.6298 -0.2479 -0.5676
   30MOL    C6527963   7.568   7.468   1.749  0.1793  0.1414 -0.0053
   30MOL    C6627964   7.662   7.345   1.704 -0.1339 -0.0380  0.5441
   30MOL    C6727965   0.019   7.340   1.768  0.5563  0.2357  0.5771
   30MOL    C6827966   0.106   7.228   1.713  0.2298 -0.1563 -0.3867
   30MOL    C6927967   0.225   7.218   1.805  0.1110 -0.2201  0.2370
   30MOL    C7027968   0.321   7.110   1.775  0.1677 -0.6951  0.5835
   30MOL    O7127969   0.321   7.061   1.663  0.1447  0.1798 -0.1214
   30MOL    H7227970   7.201   7.432   0.969 -1.5492 -0.8911 -1.2231
   30MOL    H7327971   7.293   7.706   1.016 -1.8451  0.9702 -0.2649
   30MOL    H7427972   7.293   7.566   1.121 -0.1954 -0.0822  0.6200
   30MOL    H7527973   6.951   7.567   1.040 -0.8429  1.0368  0.2269
   30MOL    H7627974   6.779   7.674   1.177  0.2931  0.1001  2.5461
   30MOL    H7727975   6.835   0.043   1.355 -1.2917 -0.7355 -1.1856
   30MOL    H7827976   7.069   0.112   1.386  0.1248 -0.0957  0.1051
   30MOL    H7927977   7.279   0.167   1.234  0.0612 -0.4028 -2.8670
   30MOL    H8027978   7.351   0.033   1.162 -0.6696  1.7062 -0.6433
   30MOL    H8127979   7.288   0.090   1.450  0.3343 -1.9041  1.3017
   30MOL    H8227980   7.352   7.608   1.576  0.3085 -0.4163 -0.8251
   30MOL    H8327981   7.388   7.773   1.613 -1.6691 -1.2183  1.8566
   30MOL    H8427982   7.633   7.740   1.552 -1.4937  1.3027 -0.1069
   30MOL    H8527983   7.608   7.588   1.495  2.3310 -0.1060  1.2642
   30MOL    H8627984   7.715   7.611   1.713 -0.6253  0.9177 -0.7188
   30MOL    H8727985   7.580   7.687   1.788 -0.6190 -3.3526  2.7775
   30MOL    H8827986   7.544   7.463   1.856 -1.0052 -0.3709 -0.2806
   30MOL    H8927987   7.472   7.458   1.697  0.5606 -1.6767 -0.3973
   30MOL    H9027988   7.608   7.254   1.730 -2.1422  0.1894 -2.5596
   30MOL    H9127989   7.672   7.350   1.596  2.1050  0.2413  0.7439
   30MOL    H9227990   7.790   7.336   1.875 -0.2915  1.4353  0.4824
   30MOL    H9327991   0.069   7.436   1.759  0.4074  0.2234 -0.4104
   30MOL    H9427992   0.133   7.229   1.607  1.9188 -1.0171  0.0294
   30MOL    H9527993   0.051   7.134   1.716  0.9057 -0.5791 -1.2696
   30MOL    H9627994   0.195   7.210   1.909 -3.2880 -1.3674 -0.7693
   30MOL    H9727995   0.287   7.307   1.798 -1.8287  1.2997  1.6359
   30MOL    N9827996   0.397   7.073   1.878 -0.3549  0.2247  0.1016
   30MOL    C9927997   0.507   6.983   1.853  0.4707  0.3333 -0.0566
   30MOL   C10027998   0.519   6.872   1.960  0.6188 -0.4131 -0.2533
   30MOL   C10127999   0.437   6.863   2.074  0.0763  0.9986  0.3083
   30MOL   C10228000   0.452   6.759   2.165  0.4365 -0.0642 -0.7630
   30MOL   C10328001   0.533   6.648   2.138  0.6479  0.1912 -0.1241
   30MOL   C10428002   0.627   6.662   2.033  0.2680  0.4055  0.2387
   30MOL   C10528003   0.613   6.771   1.946  0.2237  0.8834 -0.0612
   30MOL   C10628004   0.722   6.766   1.844  0.4430 -0.8793  0.4172
   30MOL   N10728005   0.801   6.891   1.836  0.3298 -0.3748 -0.3385
   30MOL   C10828006   0.839   6.965   1.733  0.0672 -0.3471  0.0199
   30MOL   O10928007   0.791   6.942   1.626  0.2936 -0.3991  0.6569
   30MOL   C11028008   0.938   7.079   1.764  0.3346  0.5235  0.8399
   30MOL   C11128009   0.922   7.201   1.680 -0.2267  0.3260  0.1608
   30MOL   C11228010   0.959   7.326   1.759 -0.2055  0.7254 -0.6459
   30MOL   C11328011   1.113   7.334   1.782 -0.5299  0.1391 -0.2183
   30MOL   C11428012   1.154   7.468   1.830  1.0402  0.6900  0.6408
   30MOL   C11528013   1.121   7.492   1.976 -0.4043  0.1071  0.0928
   30MOL   C11628014   1.191   7.421   2.086  0.3326 -0.3985 -0.6059
   30MOL   C11728015   1.162   7.475   2.232  0.3945 -0.6341  0.0728
   30MOL   C11828016   1.019   7.460   2.283  0.2199 -0.7290 -0.1924
   30MOL   O11928017   0.989   7.352   2.337 -0.0288  0.0537 -0.0518
   30MOL   H12028018   0.374   7.106   1.971  0.3832 -2.2420  1.2097
   30MOL   H12128019   0.509   6.929   1.759  0.7934 -2.0601  1.2796
   30MOL   H12228020   0.601   7.037   1.863  0.5634  0.0612  0.6000
   30MOL   H12328021   0.371   6.947   2.094 -3.5836 -2.2022  2.4973
   30MOL   H12428022   0.393   6.763   2.255  1.7314  0.8759  0.0683
   30MOL   H12528023   0.533   6.559   2.198 -2.8933 -0.7493 -1.3487
   30MOL   H12628024   0.705   6.589   2.015 -0.7986 -0.7563  0.2436
   30MOL   H12728025   0.677   6.741   1.748 -2.1909 -0.9535  1.6390
   30MOL   H12828026   0.790   6.683   1.862  1.4345 -0.3323 -0.7618
   30MOL   H12928027   0.832   6.929   1.924  0.4304 -1.4029  0.0821
   30MOL   H13028028   1.038   7.037   1.753  0.6388  0.7974  2.3804
   30MOL   H13128029   0.923   7.111   1.867  0.6590 -0.4895  1.2124
   30MOL   H13228030   0.827   7.214   1.629  0.3757  1.7415 -0.6279
   30MOL   H13328031   0.991   7.202   1.596  1.4774  1.5487  1.5337
   30MOL   H13428032   0.929   7.405   1.690  0.4794  0.6242 -1.0560
   30MOL   H13528033   0.904   7.339   1.853  0.2497  1.9883 -0.5451
   30MOL   H13628034   1.149   7.256   1.849 -2.4410 -1.5936 -1.1473
   30MOL   H13728035   1.154   7.300   1.687 -1.6311 -0.9152 -0.3234
   30MOL   H13828036   1.263   7.470   1.821  1.2612 -1.7425  2.2538
   30MOL   H13928037   1.121   7.550   1.767  3.6777  0.9688 -0.4473
   30MOL   H14028038   1.017   7.459   1.987 -0.6238  0.7279 -0.0808
   30MOL   H14128039   1.132   7.598   2.000  1.8614  0.4431 -2.3016
   30MOL   H14228040   1.176   7.313   2.080  0.2498 -0.3735 -0.8601
   30MOL   H14328041   1.298   7.437   2.072  0.6440 -2.2409 -0.4437
   30MOL   H14428042   1.194   7.578   2.248 -0.4604 -0.2851 -0.4131
   30MOL   H14528043   1.229   7.430   2.305  1.2167  1.3083  0.5746
   30MOL   N14628044   0.928   7.557   2.258 -0.1701  0.1728  0.4830
   30MOL   C14728045   0.785   7.546   2.288  0.4279 -0.0137  0.4201
   30MOL   C14828046   0.757   7.616   2.419 -0.5916  0.1002  0.3013
   30MOL   C14928047   0.756   7.760   2.419  0.3757 -0.2455  0.3051
   30MOL   C15028048   0.752   0.050   2.534  0.8939  0.0773  0.3103
   30MOL   C15128049   0.742   7.771   2.656 -0.6592 -0.0046  0.7962
   30MOL   C15228050   0.734   7.629   2.663 -0.7051  0.0651 -0.2235
   30MOL   C15328051   0.749   7.551   2.546 -0.6620 -0.2233  0.0496
   30MOL   C15428052   0.764   7.404   2.570  0.8286  0.6338  0.9378
   30MOL   N15528053   0.665   7.349   2.667 -0.2217 -0.7262  0.0854
   30MOL   C15628054   0.568   7.267   2.639 -0.4376 -0.3791  0.3591
   30MOL   O15728055   0.529   7.230   2.527 -0.0591 -0.6226  0.0940
   30MOL   C15828056   0.505   7.211   2.768  0.5250  0.5142  0.2247
   30MOL   C15928057   0.388   7.112   2.760  0.3337 -0.2876  0.3191
   30MOL   C16028058   0.348   7.047   2.893 -0.2889  0.0388 -0.1144
   30MOL   C16128059   0.275   7.148   2.983 -0.4364  0.3628 -0.2909
   30MOL   C16228060   0.235   7.088   3.119 -0.3754 -0.3424  0.6750
   30MOL   C16328061   0.108   7.004   3.124  0.5192 -0.6964  0.2527
   30MOL   C16428062   0.060   6.973   3.268  0.5102 -0.0154 -0.2545
   30MOL   C16528063   7.734   6.861   3.266 -1.0487 -0.5346 -0.5339
   30MOL   C16628064   7.666   6.839   3.396  0.4493  0.0241 -0.0580
   30MOL   O16728065   7.683   6.910   3.495  0.6233 -0.3211 -0.1889
   30MOL   H16828066   0.945   7.631   2.192  1.9789  0.0520  0.8575
   30MOL   H16928067   0.756   7.442   2.275  0.2982  0.0369  0.3031
   30MOL   H17028068   0.739   7.606   2.209  1.8155 -1.5123 -1.5678
   30MOL   H17128069   0.761   0.007   2.318 -1.9091 -1.7010 -0.3895
   30MOL   H17228070   0.746   0.157   2.528  0.6389  0.0676  0.3993
   30MOL   H17328071   0.720   0.041   2.743 -1.4358  1.0476 -0.0949
   30MOL   H17428072   0.725   7.584   2.761  0.1413  0.4984  0.0481
   30MOL   H17528073   0.868   7.403   2.605  1.8307 -3.2058 -1.7356
   30MOL   H17628074   0.767   7.349   2.476  1.6632  2.2161  0.0268
   30MOL   H17728075   0.687   7.379   2.761 -1.7893  3.0244 -0.6845
   30MOL   H17828076   0.475   7.298   2.825 -1.3820  0.8978 -1.2875
   30MOL   H17928077   0.594   7.173   2.819 -0.5271 -0.7062  1.1787
   30MOL   H18028078   0.412   7.035   2.686 -0.7674  0.7411 -1.1612
   30MOL   H18128079   0.293   7.153   2.724 -0.3006 -0.3667  1.8470
   30MOL   H18228080   0.289   6.959   2.867 -1.4704  1.2160 -1.5206
   30MOL   H18328081   0.437   7.015   2.947 -1.0483  1.9281  2.3626
   30MOL   H18428082   0.337   7.237   2.992 -1.5963  1.2083 -0.4659
   30MOL   H18528083   0.183   7.180   2.934 -1.0192 -2.3037 -1.0352
   30MOL   H18628084   0.322   7.029   3.145  0.8394  0.4281 -1.5745
   30MOL   H18728085   0.231   7.174   3.187  0.2496  0.4087 -0.2310
   30MOL   H18828086   0.119   6.904   3.082  1.5525 -0.3896 -0.2086
   30MOL   H18928087   0.032   7.071   3.082  1.2847  0.2173  0.3145
   30MOL   H19028088   0.150   6.942   3.322 -0.9159  1.1288  2.9647
   30MOL   H19128089   0.029   7.067   3.313  1.9511 -0.4735  1.8209
   30MOL   H19228090   7.770   6.767   3.225  2.0762 -0.3495  1.6345
   30MOL   H19328091   7.651   6.896   3.204 -1.6209 -0.3140  0.3470
   30MOL   N19428092   7.603   6.724   3.407 -0.3429 -0.2857  0.0984
   30MOL   C19528093   7.546   6.673   3.533 -1.0133 -0.0438  0.2752
   30MOL   C19628094   7.652   6.591   3.620 -0.3581  0.3343 -0.2371
   30MOL   C19728095   7.702   6.474   3.558 -0.3274  0.3518  0.4701
   30MOL   C19828096   0.001   6.385   3.621  0.3184 -0.4647 -0.1697
   30MOL   C19928097   0.052   6.417   3.746  1.4704 -0.3388  0.0530
   30MOL   C20028098   7.789   6.534   3.812  1.0397  0.2824  0.8332
   30MOL   C20128099   7.696   6.621   3.752 -0.5035 -0.4601  0.0160
   30MOL   C20228100   7.644   6.747   3.832  0.0973 -0.3703  0.1332
   30MOL   N20328101   7.703   6.863   3.767 -0.1381  0.2874 -0.5137
   30MOL   C20428102   7.770   6.961   3.833 -0.3612  0.0426 -0.6720
   30MOL   O20528103   0.005   6.958   3.956 -0.4922  0.3743  0.3077
   30MOL   C20628104   0.026   7.084   3.749  0.0654 -0.2441 -0.6925
   30MOL   C20728105   0.168   7.131   3.798  0.5895 -0.1272  0.4087
   30MOL   C20828106   0.288   7.040   3.752  0.4385  0.1919 -0.4818
   30MOL   C20928107   0.421   7.084   3.808 -0.1799  0.0853  0.9620
   30MOL   C21028108   0.547   7.009   3.744 -0.4809 -0.1623  0.3662
   30MOL   C21128109   0.690   7.061   3.773  0.3982  0.4376 -0.1811
   30MOL   C21228110   0.711   7.097   3.920  0.0674  0.4213  0.5429
   30MOL   C21328111   0.691   6.981   4.027 -0.1698  0.1885  0.5610
   30MOL   C21428112   0.812   6.895   4.034 -0.5287 -0.0256 -0.1332
   30MOL   O21528113   0.926   6.941   4.037  0.2183 -0.2063  0.1123
   30MOL   H21628114   7.605   6.670   3.322 -0.4427  3.0083 -2.1009
   30MOL   H21728115   7.519   6.756   3.597  0.4198  0.7549 -0.1108
   30MOL   H21828116   7.457   6.616   3.510 -0.2686 -0.3320 -2.1063
   30MOL   H21928117   7.678   6.463   3.453  4.1233  0.9052 -0.7009
   30MOL   H22028118   0.033   6.302   3.560 -0.4353 -0.2112 -0.9097
   30MOL   H22128119   0.129   6.358   3.794  0.3938 -0.8915  1.1458
   30MOL   H22228120   0.026   6.560   3.913 -3.2895  1.6429  1.7261
   30MOL   H22328121   7.662   6.740   3.939  1.4971  3.9111  0.2755
   30MOL   H22428122   7.536   6.745   3.820  0.1420 -2.4717 -0.0232
   30MOL   H22528123   7.701   6.875   3.667 -0.2938  0.7410 -0.4568
   30MOL   H22628124   7.745   7.161   3.780 -2.0233 -3.0448  1.6718
   30MOL   H22728125   0.023   7.063   3.642 -0.0575 -1.6351 -0.4225
   30MOL   H22828126   0.185   7.235   3.770  1.7070 -1.2475 -3.3357
   30MOL   H22928127   0.173   7.128   3.907  1.6606 -0.3739  0.3652
   30MOL   H23028128   0.273   6.933   3.766  1.7505  0.0576 -0.0518
   30MOL   H23128129   0.292   7.039   3.643 -1.0962 -3.4267 -0.5838
   30MOL   H23228130   0.415   7.190   3.783  2.2870 -0.3092 -1.4860
   30MOL   H23328131   0.419   7.070   3.917  2.7014 -1.0964  0.9129
   30MOL   H23428132   0.544   6.907   3.782 -0.9096  0.4657  2.0414
   30MOL   H23528133   0.521   7.012   3.638 -0.9720 -0.4878  0.4742
   30MOL   H23628134   0.715   7.145   3.709  1.7363 -1.7315 -2.6351
   30MOL   H23728135   0.767   6.986   3.751  0.6902  0.7022 -0.0550
   30MOL   H23828136   0.651   7.182   3.953 -1.9325 -0.0872 -1.6183
   30MOL   H23928137   0.809   7.143   3.918 -0.7267  2.1783  1.1187
   30MOL   H24028138   0.695   7.034   4.122  0.4217 -0.9221  1.1576
   30MOL   H24128139   0.601   6.922   4.008 -0.8987  0.9139  1.7132
   30MOL   N24228140   0.789   6.764   4.029 -0.1295  0.2860  0.5278
   30MOL   C24328141   0.895   6.660   4.034 -0.7599  0.0547  1.0044
   30MOL   C24428142   0.896   6.583   4.163  0.7681  0.3661 -0.2307
   30MOL   C24528143   0.856   6.649   4.282 -0.0688 -0.3902 -0.1128
   30MOL   C24628144   0.858   6.586   4.403 -0.1048  0.5957 -0.2368
   30MOL   C24728145   0.898   6.454   4.410  0.5348  0.1785 -0.0389
   30MOL   C24828146   0.942   6.390   4.300  0.4526 -0.2498 -0.0698
   30MOL   C24928147   0.945   6.452   4.168  0.8740 -0.6222 -0.9942
   30MOL   C25028148   1.004   6.372   4.057 -0.9279 -0.0221 -0.5095
   30MOL   N25128149   1.141   6.420   4.025 -0.1336 -0.2424  0.4082
   30MOL   C25228150   1.217   6.382   3.922 -0.2709  0.0223 -0.5564
   30MOL   O25328151   1.174   6.306   3.836 -0.0646  0.2558 -0.1387
   30MOL   C25428152   1.352   6.445   3.920  0.0611 -0.6538  0.1777
   30MOL   C25528153   1.465   6.373   3.830  0.5285 -0.2378 -0.8155
   30MOL   C25628154   1.541   6.268   3.899  0.4792 -0.1665 -0.0074
   30MOL   C25728155   1.681   6.260   3.835  0.2105  0.1908  0.6420
   30MOL   C25828156   1.781   6.167   3.911 -0.5927  0.2983 -0.2861
   30MOL   C25928157   1.925   6.177   3.855  0.0973 -0.2975  0.0717
   30MOL   C26028158   2.015   6.117   3.956  0.3190 -0.2250  0.1924
   30MOL   C26128159   2.161   6.117   3.919  0.6102  0.1821 -0.3545
   30MOL   C26228160   2.260   6.022   4.004  0.6948  0.0941 -0.4633
   30MOL   O26328161   2.217   5.917   4.054  0.1456  0.5958  0.2169
   30MOL   H26428162   0.694   6.735   4.012 -0.9818  3.2206 -0.0074
   30MOL   H26528163   0.881   6.597   3.946  1.0686 -0.3179  0.9780
   30MOL   H26628164   0.994   6.706   4.031  0.2586 -2.0667  1.8113
   30MOL   H26728165   0.826   6.752   4.274  0.8649 -0.0392  0.7346
   30MOL   H26828166   0.824   6.632   4.495 -1.9853  0.1161 -0.6561
   30MOL   H26928167   0.897   6.410   4.509  0.2885  0.8167  0.2428
   30MOL   H27028168   0.980   6.291   4.322 -0.2266  0.2464  3.6674
   30MOL   H27128169   0.955   6.386   3.961 -1.1410  0.5584 -0.3151
   30MOL   H27228170   1.012   6.266   4.082 -0.9092  0.0215 -0.3329
   30MOL   H27328171   1.170   6.497   4.084 -1.9661  1.4680 -0.8340
   30MOL   H27428172   1.394   6.466   4.018  2.4167  0.8256 -1.0975
   30MOL   H27528173   1.350   6.550   3.889  0.6992 -0.5985  0.3085
   30MOL   H27628174   1.530   6.449   3.787  0.4576 -0.8927 -2.1013
   30MOL   H27728175   1.409   6.343   3.741 -0.5766 -1.5477  0.2871
   30MOL   H27828176   1.479   6.178   3.892 -2.2469  1.4845  1.8858
   30MOL   H27928177   1.555   6.302   4.002  1.3209  2.4440 -0.9628
   30MOL   H28028178   1.691   6.233   3.730 -1.4154  1.1592  0.2217
   30MOL   H28128179   1.735   6.355   3.838  1.3946 -0.3801 -1.3851
   30MOL   H28228180   1.768   6.207   4.011 -0.0949 -1.2478  0.4175
   30MOL   H28328181   1.742   6.065   3.908  2.9541 -1.1585  0.7865
   30MOL   H28428182   1.939   6.284   3.842 -3.2225  0.0881 -0.7664
   30MOL   H28528183   1.937   6.131   3.757 -1.6839 -0.3119 -0.1567
   30MOL   H28628184   1.996   6.166   4.052 -3.2438  1.9405 -1.5128
   30MOL   H28728185   1.978   6.019   3.984 -0.6329  0.1119  0.1441
   30MOL   H28828186   2.173   6.093   3.813 -2.4976  0.0857 -0.7275
   30MOL   H28928187   2.194   6.218   3.943  1.2423  0.0395 -0.6249
   30MOL   N29028188   2.389   6.059   4.005  0.5621  0.4374  0.7281
   30MOL   C29128189   2.488   6.008   4.097 -0.4596 -0.5471 -0.5842
   30MOL   C29228190   2.593   6.118   4.120 -0.1351  0.3799 -0.3914
   30MOL   C29328191   2.599   6.170   4.251 -0.2624  0.2804  0.6252
   30MOL   C29428192   2.704   6.256   4.287  0.7881  1.0085 -0.3114
   30MOL   C29528193   2.789   6.299   4.189 -0.1537  0.2482  0.3370
   30MOL   C29628194   2.788   6.252   4.056 -0.0932 -0.4794  0.0566
   30MOL   C29728195   2.682   6.165   4.015  0.0470  0.0965  0.2727
   30MOL   C29828196   2.678   6.107   3.867  0.4140 -0.0573 -0.1187
   30MOL   N29928197   2.659   6.201   3.763 -0.0722 -0.2493  0.0737
   30MOL   C30028198   2.555   6.265   3.726  0.1757 -0.0781  0.6256
   30MOL   O30128199   2.438   6.229   3.754 -0.4845 -0.5650  0.0653
   30MOL   C30228200   2.580   6.378   3.631 -0.5160 -0.1853  0.5259
   30MOL   C30328201   2.504   6.507   3.680 -0.2652 -0.3735 -0.3291
   30MOL   C30428202   2.525   6.551   3.824 -0.4403  0.0598 -0.3935
   30MOL   C30528203   2.670   6.592   3.854 -0.1273  0.0642  0.5168
   30MOL   C30628204   2.680   6.648   3.996  0.7682  0.2059  0.1939
   30MOL   C30728205   2.821   6.686   4.041  0.4875  0.4995 -1.2097
   30MOL   C30828206   2.816   6.729   4.191 -0.4419 -0.3007 -0.0886
   30MOL   C30928207   2.951   6.748   4.258  0.2941  0.0251  0.1022
   30MOL   C31028208   3.039   6.861   4.198  0.4084  0.4497 -0.0711
   30MOL   O31128209   2.988   6.956   4.141 -0.0450  0.5181 -0.2578
   30MOL   H31228210   2.416   6.121   3.930 -0.4998  0.8036  0.6314
   30MOL   H31328211   2.439   5.983   4.191  0.1785  0.1162 -0.0684
   30MOL   H31428212   2.524   5.917   4.049  2.1553 -0.1095  0.4565
   30MOL   H31528213   2.538   6.135   4.333  0.2877  0.6851  1.2177
   30MOL   H31628214   2.694   6.312   4.378 -0.0531  0.8191 -0.2840
   30MOL   H31728215   2.881   6.349   4.217  0.6070 -1.1319  0.3758
   30MOL   H31828216   2.857   6.284   3.979 -1.1356 -1.3264 -1.2603
   30MOL   H31928217   2.603   6.029   3.853  0.1297  0.2008 -0.0228
   30MOL   H32028218   2.764   6.040   3.864 -0.2408 -0.8713 -1.3213
   30MOL   H32128219   2.743   6.219   3.710  0.2748 -1.6564  0.1290
   30MOL   H32228220   2.687   6.398   3.636 -0.5504  0.1837 -0.1253
   30MOL   H32328221   2.559   6.355   3.527  0.1966  0.4692  0.2306
   30MOL   H32428222   2.399   6.483   3.666 -0.6881  1.9550 -1.5081
   30MOL   H32528223   2.530   6.592   3.617 -0.1750 -0.3536 -0.2651
   30MOL   H32628224   2.500   6.470   3.893 -1.2411  1.0869  0.5474
   30MOL   H32728225   2.457   6.628   3.859 -0.9766 -0.6071  0.0570
   30MOL   H32828226   2.737   6.506   3.842  0.3692  0.2587  1.8917
   30MOL   H32928227   2.714   6.664   3.785  0.9154  0.3495  1.4760
   30MOL   H33028228   2.627   6.743   4.000  1.3820  0.6616 -1.8180
   30MOL   H33128229   2.641   6.576   4.068  0.6934  0.8877  0.8399
   30MOL   H33228230   2.860   6.763   3.975  0.6026  1.8031  0.3606
   30MOL   H33328231   2.892   6.605   4.021  0.7966  0.4982 -0.1559
   30MOL   H33428232   2.756   6.820   4.195 -1.4769 -0.9918  0.4162
   30MOL   H33528233   2.761   6.656   4.250  0.6690  0.2672  1.7104
   30MOL   H33628234   2.939   6.788   4.359 -2.4417  1.6217 -0.8169
   30MOL   H33728235   2.996   6.649   4.266  2.0648  1.0263  3.2081
   30MOL   N33828236   3.172   6.856   4.225  0.1690 -0.1866 -0.1248
   30MOL   C33928237   3.267   6.949   4.166 -0.0639  0.0405 -0.5307
   30MOL   C34028238   3.278   7.086   4.241  1.0300 -0.4787 -0.0898
   30MOL   C34128239   3.221   7.102   4.368 -0.1960  0.2044 -0.0752
   30MOL   C34228240   3.239   7.222   4.441  0.6210  0.5656 -0.4159
   30MOL   C34328241   3.314   7.333   4.387 -0.4384  0.3223  0.1804
   30MOL   C34428242   3.362   7.315   4.259 -0.0022 -0.0797  0.7040
   30MOL   C34528243   3.355   7.194   4.189  0.3468  0.3143 -0.3376
   30MOL   C34628244   3.416   7.178   4.055  0.0517 -0.6988 -0.3403
   30MOL   N34728245   3.470   7.296   3.983  0.0046 -0.1498  0.0160
   30MOL   C34828246   3.425   7.344   3.866 -0.0079  0.0497 -0.6797
   30MOL   O34928247   3.361   7.277   3.789 -0.0063  0.0924  0.3349
   30MOL   C35028248   3.471   7.487   3.820 -0.1447 -0.2983 -0.1983
   30MOL   C35128249   3.505   7.478   3.664 -0.3920  0.1308 -0.5889
   30MOL   C35228250   3.542   7.614   3.603 -0.5770  0.0225  0.0999
   30MOL   C35328251   3.497   7.620   3.449 -0.6159  0.2089 -0.3173
   30MOL   C35428252   3.496   7.757   3.380  0.4714 -0.4937  0.1267
   30MOL   C35528253   3.635   0.014   3.347  0.5509  0.1623  0.2298
   30MOL   C35628254   3.618   0.139   3.261 -0.3879  0.2468  0.4777
   30MOL   C35728255   3.745   0.221   3.241 -0.0460 -0.7063  0.3356
   30MOL   C35828256   3.805   0.280   3.362 -0.6961  0.6526 -0.2441
   30MOL   O35928257   3.735   0.329   3.451 -0.0404  0.2512 -0.4351
   30MOL   H36028258   3.205   6.768   4.261 -0.9728 -0.9052 -0.8234
   30MOL   H36128259   3.365   6.901   4.157  1.0477  1.9789  0.7144
   30MOL   H36228260   3.248   6.966   4.060  1.3645 -0.5926 -0.9056
   30MOL   H36328261   3.160   7.028   4.416  0.1325  0.7914  1.2712
   30MOL   H36428262   3.208   7.227   4.544 -1.5766 -3.4486 -0.8033
   30MOL   H36528263   3.335   7.414   4.456 -0.6805  0.1769  0.4250
   30MOL   H36628264   3.432   7.390   4.224 -0.3551  0.9260  2.1251
   30MOL   H36728265   3.344   7.131   3.988  1.2012 -1.2655 -1.1827
   30MOL   H36828266   3.498   7.107   4.063 -1.0230 -1.8857  0.2010
   30MOL   H36928267   3.533   7.362   4.025 -0.6438  1.5338 -1.6369
   30MOL   H37028268   3.562   7.509   3.876 -1.2884 -0.6932  1.8832
   30MOL   H37128269   3.390   7.556   3.842  1.7566  1.7720  0.4556
   30MOL   H37228270   3.411   7.441   3.622  0.3412  0.5763 -2.6702
   30MOL   H37328271   3.585   7.406   3.644 -0.8491 -0.1355 -1.4856
   30MOL   H37428272   3.484   7.690   3.656 -1.1396 -0.2558 -0.1111
   30MOL   H37528273   3.649   7.632   3.612 -0.3364 -0.5317 -1.4588
   30MOL   H37628274   3.394   7.584   3.447 -0.8391  0.7595  1.1750
   30MOL   H37728275   3.550   7.547   3.387 -1.5361 -1.9323  1.3645
   30MOL   H37828276   3.431   7.746   3.293  0.1032  1.3139  0.1597
   30MOL   H37928277   3.450   0.039   3.447 -2.0237 -1.0175 -0.9478
   30MOL   H38028278   3.692   7.728   3.293  0.5354  0.5565 -0.3446
   30MOL   H38128279   3.689   0.033   3.440  0.4060  1.8108 -0.0145
   30MOL   H38228280   3.580   0.110   3.164 -0.3750  0.2860  0.4610
   30MOL   H38328281   3.548   0.208   3.308  1.1693  3.1031 -1.2441
   30MOL   H38428282   3.729   0.303   3.170 -2.2492 -1.5465 -0.1735
   30MOL   H38528283   3.820   0.158   3.194 -1.2254 -1.4829 -0.5333
   30MOL   N38628284   3.937   0.281   3.369  0.1971  0.4949 -1.0937
   30MOL   C38728285   4.015   0.300   3.492  0.5496  0.5956  0.6425
   30MOL   C38828286   4.123   0.405   3.487 -0.6726  0.0090  0.2746
   30MOL   C38928287   4.099   0.541   3.518  0.9864  1.0003 -0.7899
   30MOL   C39028288   4.196   0.640   3.489 -1.2447 -0.2810 -0.3124
   30MOL   C39128289   4.324   0.601   3.445 -0.1546 -0.1546 -0.2547
   30MOL   C39228290   4.357   0.465   3.438 -0.6607 -0.9670  0.0789
   30MOL   C39328291   4.259   0.365   3.449 -0.6037 -0.5917  0.5804
   30MOL   C39428292   4.296   0.225   3.400 -0.9639 -0.0054 -0.0913
   30MOL   N39528293   4.408   0.169   3.475  0.6663  0.3347  0.0129
   30MOL   C39628294   4.405   0.070   3.563  0.5162  1.1991 -0.0940
   30MOL   O39728295   4.307   7.789   3.587 -0.1823  0.1381 -0.1309
   30MOL   C39828296   4.536   0.042   3.638 -0.2211 -0.0078 -0.2634
   30MOL   C39928297   4.567   7.683   3.639  0.2736 -0.5209  0.5343
   30MOL   C40028298   4.706   7.660   3.708  0.9180 -0.3713 -0.2528
   30MOL   C40128299   4.725   7.511   3.740  0.1116 -0.2173 -0.7802
   30MOL   C40228300   4.873   7.483   3.782 -0.1212  0.2149 -0.0677
   30MOL   C40328301   4.895   7.501   3.936  0.6527  0.4721  1.0927
   30MOL   C40428302   5.051   7.496   3.969 -0.7763 -0.1741  0.3051
   30MOL   C40528303   5.089   7.509   4.114  0.0053  0.6583  0.3528
   30MOL   C40628304   5.055   7.377   4.182  0.7190 -0.0721  0.5865
   30MOL   O40728305   5.118   7.275   4.150 -0.1912  0.1648 -0.4659
   30MOL   H40828306   3.985   0.258   3.283  1.9187  1.7046 -0.4880
   30MOL   H40928307   3.956   0.328   3.580  1.5201  0.3877  1.3598
   30MOL   H41028308   4.042   0.201   3.529  0.3465 -0.1933 -1.2679
   30MOL   H41128309   3.999   0.570   3.546  1.2803  1.1823  0.0619
   30MOL   H41228310   4.169   0.744   3.500 -1.0071  0.1129 -2.9957
   30MOL   H41328311   4.404   0.673   3.434 -1.0343  1.3074  2.1930
   30MOL   H41428312   4.456   0.440   3.402 -0.1210  0.1885  0.7156
   30MOL   H41528313   4.320   0.233   3.294 -0.8565 -0.7653 -0.1272
   30MOL   H41628314   4.209   0.159   3.391 -1.2123  0.4343 -1.0479
   30MOL   H41728315   4.496   0.217   3.464  0.4538  0.4653 -1.1899
   30MOL   H41828316   4.620   0.091   3.589  1.5572 -0.6609  2.0370
   30MOL   H41928317   4.528   0.089   3.736  0.9991 -2.1178  0.8606
   30MOL   H42028318   4.568   7.643   3.538 -0.8979  0.6522  0.0386
   30MOL   H42128319   4.486   7.634   3.692 -1.4517  0.9004 -0.7319
   30MOL   H42228320   4.715   7.726   3.794  0.6769 -3.5282  2.2636
   30MOL   H42328321   4.778   7.703   3.639 -1.3473  1.4419 -1.5809
   30MOL   H42428322   4.657   7.478   3.819  1.3168 -0.5665  0.1184
   30MOL   H42528323   4.693   7.451   3.655  1.3998 -1.3540 -0.4842
   30MOL   H42628324   4.883   7.375   3.771  2.0718  0.3426  0.4252
   30MOL   H42728325   4.946   7.544   3.729  1.9107 -0.3115  2.0230
   30MOL   H42828326   4.831   7.432   3.990 -1.8638 -0.0390 -2.4041
   30MOL   H42928327   4.850   7.600   3.944  3.3396  1.7007  1.8321
   30MOL   H43028328   5.100   7.573   3.909 -2.0325 -1.5439 -2.5812
   30MOL   H43128329   5.081   7.400   3.927  0.7040  1.2340 -1.9753
   30MOL   H43228330   5.031   7.593   4.151  0.1858  0.9640 -0.0466
   30MOL   H43328331   5.197   7.523   4.113  0.1286 -0.2294 -1.0036
   30MOL   N43428332   4.950   7.371   4.262  0.0420 -0.5707  0.1414
   30MOL   C43528333   4.894   7.255   4.319 -0.3567  0.0532 -0.4995
   30MOL   C43628334   4.912   7.240   4.469 -0.9015 -0.1109 -0.2626
   30MOL   C43728335   4.964   7.351   4.544 -0.0639 -0.1724 -0.1087
   30MOL   C43828336   4.998   7.336   4.677  0.5106 -0.1689  0.4954
   30MOL   C43928337   4.952   7.217   4.741 -0.4026  0.0085 -0.2044
   30MOL   C44028338   4.896   7.108   4.676  0.2544 -0.3121 -0.0451
   30MOL   C44128339   4.884   7.117   4.540  0.1530 -0.0497  0.5464
   30MOL   C44228340   4.848   6.989   4.464  0.7928  0.0098  0.5097
   30MOL   N44328341   4.723   6.985   4.391 -0.1666 -0.7572  1.0653
   30MOL   C44428342   4.687   6.892   4.310  0.1874  0.2268 -0.3806
   30MOL   O44528343   4.750   6.790   4.300  0.4300  0.4044 -0.0338
   30MOL   C44628344   4.569   6.913   4.219  0.5459 -0.4626  1.0047
   30MOL   C44728345   4.578   7.033   4.126 -0.5363  0.4776  0.1719
   30MOL   C44828346   4.530   7.166   4.183 -0.1432 -0.1513  0.0887
   30MOL   C44928347   4.554   7.278   4.085  0.2509  0.0574 -0.3754
   30MOL   C45028348   4.509   7.406   4.151  0.1476  0.3209 -0.7957
   30MOL   C45128349   4.522   7.527   4.071 -0.5762  0.0349  0.5922
   30MOL   C45228350   4.437   7.650   4.112  0.4627  0.0341 -0.4977
   30MOL   C45328351   4.312   7.662   4.021  0.0699  0.2325  0.7600
   30MOL   C45428352   4.215   7.544   4.029 -0.6115  0.0764  0.3766
   30MOL   O45528353   4.119   7.547   4.110 -0.0048  0.1641  1.0562
   30MOL   H45628354   4.907   7.457   4.295  0.8620 -0.0078 -0.2345
   30MOL   H45728355   4.932   7.165   4.272  0.8360  0.8838 -1.1493
   30MOL   H45828356   4.787   7.268   4.299 -0.1636  0.4881 -1.2988
   30MOL   H45928357   4.988   7.443   4.492  2.2029 -1.1448 -0.8451
   30MOL   H46028358   5.048   7.416   4.730 -0.7641  1.2738 -0.4360
   30MOL   H46128359   4.975   7.206   4.846 -0.3496 -0.6159 -0.2829
   30MOL   H46228360   4.870   7.032   4.748  0.7370 -0.6015 -0.1784
   30MOL   H46328361   4.847   6.902   4.531 -0.3424  0.2588  0.8455
   30MOL   H46428362   4.928   6.975   4.392  0.9707 -0.5454  0.8097
   30MOL   H46528363   4.660   7.062   4.373 -1.7500 -2.1856  0.4275
   30MOL   H46628364   4.473   6.925   4.269  1.8816 -1.4111  3.9100
   30MOL   H46728365   4.561   6.819   4.165  2.0114  1.2227 -2.3478
   30MOL   H46828366   4.515   7.017   4.038  0.9204 -1.1912 -0.6027
   30MOL   H46928367   4.679   7.040   4.087  0.0858 -0.8084  1.5116
   30MOL   H47028368   4.425   7.165   4.209 -0.3189  0.0826 -0.6081
   30MOL   H47128369   4.578   7.185   4.279  1.7768 -1.0519 -0.6702
   30MOL   H47228370   4.661   7.274   4.063  0.5164 -2.6836  1.0679
   30MOL   H47328371   4.497   7.257   3.994 -0.2150 -0.2469 -0.0202
   30MOL   H47428372   4.408   7.399   4.193  0.8405 -0.1553  0.8583
   30MOL   H47528373   4.567   7.412   4.244  0.1715  0.6309 -0.8294
   30MOL   H47628374   4.507   7.494   3.968  1.6166  1.3872 -0.1935
   30MOL   H47728375   4.629   7.549   4.070 -0.8887  1.6219  1.2372
   30MOL   H47828376   4.431   7.652   4.221  0.9568  2.7901 -0.4716
   30MOL   H47928377   4.496   7.739   4.088  0.5609 -0.2234 -1.2041
   30MOL   H48028378   4.266   7.756   4.052 -0.4836  0.0743  0.4294
   30MOL   H48128379   4.352   7.666   3.919 -1.2448 -0.7746  0.1975
   30MOL   N48228380   4.241   7.433   3.957 -0.5710  0.2835 -0.5658
   30MOL   C48328381   4.180   7.300   3.958  0.4050 -0.2164  0.1449
   30MOL   C48428382   4.037   7.289   3.921  0.6226 -0.0271 -0.1098
   30MOL   C48528383   3.967   7.399   3.858  0.4193 -0.6822  0.0072
   30MOL   C48628384   3.838   7.376   3.798  0.4064  0.0339 -0.0111
   30MOL   C48728385   3.774   7.253   3.812 -0.1040 -0.0765  0.1236
   30MOL   C48828386   3.836   7.154   3.882 -0.3520 -0.2823 -0.1270
   30MOL   C48928387   3.966   7.169   3.938  0.2430  0.2968  0.2647
   30MOL   C49028388   4.012   7.049   4.015 -1.0805 -0.5155  0.1556
   30MOL   N49128389   4.091   6.970   3.926 -0.8809 -0.0481 -0.6503
   30MOL   C49228390   4.212   6.913   3.951  0.0579 -0.1017 -0.3137
   30MOL   O49328391   4.276   6.920   4.056  0.3035 -0.4168 -0.5014
   30MOL   C49428392   4.267   6.829   3.838 -0.8983 -0.3502 -0.2485
   30MOL   C49528393   4.394   6.752   3.873 -0.3345 -0.1288 -0.5135
   30MOL   C49628394   4.467   6.693   3.756 -0.3604 -0.6224 -1.3295
   30MOL   C49728395   4.594   6.618   3.802  0.0797  0.0617  0.4521
   30MOL   C49828396   4.671   6.558   3.680 -0.1275  0.4951  0.0021
   30MOL   C49928397   4.789   6.484   3.740 -0.4178  0.5487 -0.0412
   30MOL   C50028398   4.862   6.384   3.643 -0.5782 -0.8716  0.6239
   30MOL   C50128399   4.942   6.273   3.713 -0.3222  0.5242 -0.5972
   30MOL   C50228400   5.082   6.300   3.757  0.0445 -0.1493  0.0003
   30MOL   O50328401   5.149   6.392   3.704 -0.0100  0.5484  0.4474
   30MOL   H50428402   4.328   7.428   3.907  0.8045 -1.4003  1.9035
   30MOL   H50528403   4.237   7.224   3.905 -1.3664 -0.1801 -1.8400
   30MOL   H50628404   4.190   7.277   4.064  0.4669 -1.7581 -0.1866
   30MOL   H50728405   4.010   7.497   3.844 -1.0189 -0.3515 -2.3446
   30MOL   H50828406   3.775   7.454   3.758 -0.2346 -0.7998 -0.6486
   30MOL   H50928407   3.673   7.238   3.775 -0.5575 -0.2185  1.3837
   30MOL   H51028408   3.789   7.057   3.894  0.1089 -0.5966 -0.8883
   30MOL   H51128409   3.923   6.990   4.034 -0.6495 -1.0430  0.5805
   30MOL   H51228410   4.062   7.082   4.107  0.6052 -1.5198 -0.3894
   30MOL   H51328411   4.049   6.973   3.835 -0.7709 -0.0852 -0.7012
   30MOL   H51428412   4.284   6.892   3.750  0.9011  0.8096  0.9018
   30MOL   H51528413   4.186   6.759   3.816 -1.1912  0.1733 -0.8777
   30MOL   H51628414   4.381   6.670   3.943 -0.7086 -1.4595 -2.1030
   30MOL   H51728415   4.468   6.815   3.922 -2.2767  0.8376  1.2442
   30MOL   H51828416   4.406   6.625   3.697 -1.3533 -1.5122  0.6958
   30MOL   H51928417   4.502   6.769   3.686 -0.1829 -0.6908 -1.3150
   30MOL   H52028418   4.663   6.684   3.854  1.4837 -1.1776  0.1978
   30MOL   H52128419   4.580   6.541   3.877 -2.4691  0.4089  0.4123
   30MOL   H52228420   4.600   6.502   3.619  0.4467 -1.7298  1.3397
   30MOL   H52328421   4.702   6.631   3.605  0.4621 -0.8052 -1.0365
   30MOL   H52428422   4.767   6.423   3.828  1.6701 -0.0003  0.1300
   30MOL   H52528423   4.861   6.552   3.786  1.1099 -0.8546 -0.3088
   30MOL   H52628424   4.793   6.342   3.570 -0.8158 -0.0600  0.3760
   30MOL   H52728425   4.931   6.438   3.578 -0.8378  0.1372  1.1710
   30MOL   H52828426   4.951   6.186   3.648  1.7223  0.9569 -0.9277
   30MOL   H52928427   4.887   6.224   3.794  1.5937  0.3713  0.6418
   30MOL   N53028428   5.138   6.213   3.842 -0.2710  0.0174 -0.0886
   30MOL   C53128429   5.270   6.215   3.909 -0.6243  0.4314  0.0780
   30MOL   C53228430   5.363   6.114   3.836 -0.6673 -0.0175 -0.0596
   30MOL   C53328431   5.420   6.158   3.711 -0.0043 -0.4155 -0.7352
   30MOL   C53428432   5.515   6.069   3.654 -0.6989 -0.7224 -0.0373
   30MOL   C53528433   5.540   5.943   3.713 -0.0366 -0.2926 -0.2600
   30MOL   C53628434   5.487   5.904   3.842  0.3359  0.3043  0.7164
   30MOL   C53728435   5.404   5.994   3.905  0.0535 -0.4822 -0.0167
   30MOL   C53828436   5.352   5.948   4.042  0.1436  0.3297  0.2457
   30MOL   N53928437   5.436   5.991   4.148  0.3468 -0.2272  0.0405
   30MOL   C54028438   5.402   6.069   4.246  0.7095  0.4598 -0.7286
   30MOL   O54128439   5.292   6.122   4.249 -0.2385  0.0509  0.0014
   30MOL   C54228440   5.504   6.093   4.356  0.1609 -0.3495  0.2013
   30MOL   C54328441   5.447   6.163   4.482  0.6663  0.0027  0.1704
   30MOL   C54428442   5.548   6.221   4.583 -0.4001 -0.4473  0.2950
   30MOL   C54528443   5.623   6.109   4.667 -1.3172 -0.2367  0.5961
   30MOL   C54628444   5.707   6.180   4.771 -0.2664 -0.1111  0.5798
   30MOL   C54728445   5.854   6.191   4.725  0.0537 -0.7199 -0.0813
   30MOL   C54828446   5.939   6.266   4.831  0.6102  1.2835 -0.8215
   30MOL   C54928447   6.079   6.291   4.792 -0.2194  0.4478 -0.0440
   30MOL   C55028448   6.126   6.424   4.728  0.8111  0.1307  0.9057
   30MOL   O55128449   6.136   6.523   4.796 -0.4738  0.0320 -0.3814
   30MOL   H55228450   5.080   6.137   3.875  3.0542 -2.0020  1.3942
   30MOL   H55328451   5.267   6.197   4.017 -1.0326 -0.5465 -0.0936
   30MOL   H55428452   5.317   6.313   3.903  0.0828 -0.0025 -1.5446
   30MOL   H55528453   5.390   6.251   3.665  0.7743  0.4582  0.5031
   30MOL   H55628454   5.564   6.100   3.563  0.7929 -2.2469  0.2151
   30MOL   H55728455   5.616   5.880   3.670  0.8842  0.5051  0.1772
   30MOL   H55828456   5.506   5.806   3.884 -1.9387 -1.6927 -2.6318
   30MOL   H55928457   5.333   5.841   4.055  2.4362 -0.0719  0.4850
   30MOL   H56028458   5.257   5.997   4.066 -1.0432 -0.8255 -1.9247
   30MOL   H56128459   5.534   5.971   4.147 -0.0313 -2.1453 -0.4455
   30MOL   H56228460   5.574   6.165   4.313  0.6347 -1.7105 -1.3593
   30MOL   H56328461   5.570   6.007   4.373 -0.6067 -0.7374  1.2231
   30MOL   H56428462   5.395   6.083   4.535  1.8855 -0.8831  0.0445
   30MOL   H56528463   5.379   6.243   4.454 -1.4284 -2.4316 -1.9836
   30MOL   H56628464   5.626   6.276   4.531  0.0221 -2.9263 -1.8024
   30MOL   H56728465   5.489   6.288   4.645 -1.3434 -1.8777  0.9786
   30MOL   H56828466   5.553   6.042   4.717 -0.4512 -1.1633  0.5892
   30MOL   H56928467   5.685   6.053   4.596 -0.4211 -1.7031  2.4955
   30MOL   H57028468   5.663   6.271   4.813  2.8799  1.3772  0.8007
   30MOL   H57128469   5.701   6.122   4.862 -0.8574  1.3506  1.4964
   30MOL   H57228470   5.854   6.266   4.646 -3.2252 -0.9619 -0.4121
   30MOL   H57328471   5.885   6.094   4.686  3.2697  0.5261 -0.7731
   30MOL   H57428472   5.880   6.353   4.858  0.7309  0.9783  0.4454
   30MOL   H57528473   5.942   6.207   4.923  1.2641  1.1081 -0.9534
   30MOL   H57628474   6.112   6.198   4.746 -0.3486  1.2949 -1.9390
   30MOL   H57728475   6.129   6.291   4.889 -0.2230  1.4183 -0.0340
   30MOL   N57828476   6.129   6.423   4.591  0.4814 -0.4228 -0.2927
   30MOL   C57928477   6.149   6.536   4.512  0.2135 -0.7236  0.8722
   30MOL   C58028478   6.017   6.603   4.465  0.1907  0.5152 -1.1640
   30MOL   C58128479   5.897   6.570   4.530  0.4643  0.1193 -0.6365
   30MOL   C58228480   5.772   6.617   4.487  0.5399 -0.6340  0.2633
   30MOL   C58328481   5.773   6.716   4.386 -0.0084  0.3557 -0.6884
   30MOL   C58428482   5.892   6.761   4.331  0.4658  0.2738 -0.4056
   30MOL   C58528483   6.015   6.709   4.369  0.3923  0.8428  0.1987
   30MOL   C58628484   6.141   6.760   4.309 -0.5302 -0.0769  0.0893
   30MOL   N58728485   6.124   6.862   4.215  0.3216 -0.2656  0.0808
   30MOL   C58828486   6.218   6.924   4.148 -0.0893 -0.0485 -0.3033
   30MOL   O58928487   6.336   6.935   4.188 -0.0693  0.1290  0.4421
   30MOL   C59028488   6.196   6.973   4.009  0.3927  0.6843 -0.6649
   30MOL   C59128489   6.285   7.090   3.961 -0.9058 -0.0466  0.4524
   30MOL   C59228490   6.251   7.223   4.024 -0.1400 -0.2071 -0.7814
   30MOL   C59328491   6.114   7.278   3.976 -0.2914 -0.2114  0.5510
   30MOL   C59428492   5.990   7.225   4.059  0.6497  0.8253  0.3894
   30MOL   C59528493   5.963   7.300   4.188  0.3039  0.3416 -0.1891
   30MOL   C59628494   5.821   7.284   4.244 -0.0901  0.3036 -0.8218
   30MOL   C59728495   5.803   7.164   4.334 -0.0470  0.2405  0.2458
   30MOL   C59828496   5.661   7.143   4.393  0.0230  0.2293 -0.1299
   30MOL   O59928497   5.583   7.234   4.402 -0.4756 -1.0161 -0.6959
   30MOL   H60028498   6.102   6.334   4.551 -0.2305  0.1067 -1.0021
   30MOL   H60128499   6.211   6.494   4.433  0.2675  0.7971  0.0986
   30MOL   H60228500   6.210   6.616   4.555 -0.6287  1.1163 -1.2813
   30MOL   H60328501   5.895   6.496   4.609 -1.2334  1.0601  0.2247
   30MOL   H60428502   5.678   6.582   4.528  0.2940 -0.6077 -0.2776
   30MOL   H60528503   5.676   6.756   4.359 -0.3275  0.5886  0.7777
   30MOL   H60628504   5.878   6.832   4.251  1.6230 -0.3389 -1.1622
   30MOL   H60728505   6.185   6.678   4.253 -1.8306 -2.8353  2.9226
   30MOL   H60828506   6.208   6.783   4.392  0.7199 -1.3279 -0.5443
   30MOL   H60928507   6.033   6.869   4.172  0.6722  2.3703 -0.2888
   30MOL   H61028508   6.090   6.988   3.989 -0.2463 -1.4127  0.9784
   30MOL   H61128509   6.212   6.878   3.960  0.4808 -0.3280  1.2604
   30MOL   H61228510   6.278   7.102   3.853  0.0965  0.9894  0.4835
   30MOL   H61328511   6.390   7.059   3.959 -0.9804 -0.2623 -0.4371
   30MOL   H61428512   6.246   7.211   4.132  0.5963 -1.4694 -0.8827
   30MOL   H61528513   6.323   7.304   4.009 -0.6582  0.3891 -0.1182
   30MOL   H61628514   6.114   7.387   3.972 -0.1228 -0.1781  1.2683
   30MOL   H61728515   6.101   7.258   3.870  2.7015  2.1366 -0.3249
   30MOL   H61828516   5.909   7.244   3.988  1.0238 -0.7847 -0.4818
   30MOL   H61928517   5.976   7.117   4.068  1.4323  0.4574 -2.4508
   30MOL   H62028518   5.970   7.406   4.161  2.0360  0.2111 -0.3180
   30MOL   H62128519   6.040   7.285   4.263 -0.4504 -0.6638  0.3905
   30MOL   H62228520   5.801   7.372   4.304  0.8034  0.3512 -0.5764
   30MOL   H62328521   5.753   7.268   4.160  2.7888  0.1994 -3.2307
   30MOL   H62428522   5.838   7.071   4.290 -0.1597  0.3242 -0.0181
   30MOL   H62528523   5.856   7.181   4.428  1.4805 -3.7547  0.1876
   30MOL   N62628524   5.635   7.015   4.422  0.1926 -0.3299 -0.1569
   30MOL   C62728525   5.514   6.978   4.503 -0.6358 -0.3286 -0.1945
   30MOL   C62828526   5.546   6.882   4.620 -0.1657  0.5222  0.2409
   30MOL   C62928527   5.471   6.760   4.621 -0.2621  0.3881  0.6996
   30MOL   C63028528   5.490   6.660   4.722  0.1515  0.1824  0.4668
   30MOL   C63128529   5.573   6.692   4.833 -1.0219 -0.4283 -0.0296
   30MOL   C63228530   5.656   6.805   4.824  0.0008  0.0784 -0.6828
   30MOL   C63328531   5.633   6.905   4.725 -0.9537  0.0748  0.9911
   30MOL   C63428532   5.708   7.038   4.732  0.1789 -0.8861 -0.4152
   30MOL   N63528533   5.774   7.064   4.862  0.2035  0.0748 -0.2312
   30MOL   C63628534   5.776   7.179   4.927  0.2205 -0.1047 -0.2315
   30MOL   O63728535   5.724   7.273   4.883 -0.4665 -0.0613  0.3981
   30MOL   C63828536   5.846   7.191   5.059 -0.1307  0.2270  0.4369
   30MOL   C63928537   5.801   7.323   5.135 -0.5816  0.3121  0.5205
   30MOL   C64028538   5.871   7.350   5.271  0.2866  0.5511 -0.0683
   30MOL   C64128539   6.007   7.423   5.252 -0.0499  0.1756  0.5806
   30MOL   C64228540   6.103   7.422   5.366  0.2876  0.0464  0.1357
   30MOL   C64328541   6.244   7.495   5.333 -0.2869  0.0528 -1.2029
   30MOL   C64428542   6.356   7.487   5.439  0.4831 -0.0473 -0.5195
   30MOL   C64528543   6.328   7.576   5.557 -0.6238 -0.5704 -0.5124
   30MOL   C64628544   6.320   7.725   5.533 -0.6077 -0.2641 -0.1724
   30MOL   O64728545   6.403   7.783   5.462  0.3700 -0.0641 -0.3722
   30MOL   H64828546   5.705   6.944   4.411  0.1334 -0.3364 -0.4978
   30MOL   H64928547   5.455   6.936   4.421 -1.5397 -1.3131  0.9440
   30MOL   H65028548   5.467   7.067   4.543 -0.7220  1.2333 -3.6174
   30MOL   H65128549   5.398   6.745   4.544 -0.8619 -0.2438  1.3850
   30MOL   H65228550   5.438   6.566   4.717  1.0774 -0.2775 -0.5226
   30MOL   H65328551   5.582   6.612   4.905 -1.3288  0.6613  1.2329
   30MOL   H65428552   5.731   6.819   4.901 -0.7259  0.4074 -0.0306
   30MOL   H65528553   5.638   7.118   4.709  0.3881 -0.0533  1.7246
   30MOL   H65628554   5.783   7.042   4.653 -1.5898  1.9983 -2.0316
   30MOL   H65728555   5.828   6.991   4.905 -1.2675  0.4254  2.3299
   30MOL   H65828556   5.954   7.196   5.047 -0.2218 -0.6998 -0.8575
   30MOL   H65928557   5.827   7.100   5.116 -0.1911 -0.0187  0.0203
   30MOL   H66028558   5.697   7.320   5.167 -0.1282  2.6624  2.4001
   30MOL   H66128559   5.813   7.412   5.073  0.2201  0.6145  1.0992
   30MOL   H66228560   5.811   7.407   5.342  1.3896  1.0329  0.4901
   30MOL   H66328561   5.883   7.251   5.317  1.0372 -0.0965 -1.6497
   30MOL   H66428562   6.052   7.389   5.159  1.9227  1.6811  0.9578
   30MOL   H66528563   5.977   7.528   5.244  0.7304  0.3328 -0.3820
   30MOL   H66628564   6.058   7.459   5.458  0.1427  0.0411  0.0676
   30MOL   H66728565   6.130   7.318   5.383  1.9855  0.6565  1.2986
   30MOL   H66828566   6.224   7.599   5.308 -0.2378  0.1170 -0.9747
   30MOL   H66928567   6.282   7.457   5.239  0.6233 -2.2058  0.0297
   30MOL   H67028568   6.370   7.383   5.467  0.6921  0.1760  0.2100
   30MOL   H67128569   6.456   7.506   5.400  0.6173  1.2095  0.4001
   30MOL   H67228570   6.408   7.557   5.628  1.6996  0.2408 -2.8449
   30MOL   H67328571   6.233   7.542   5.599 -1.2122  0.8595 -0.6329
   30MOL   N67428572   6.239   0.002   5.614  0.0436  0.6927 -0.4496
   30MOL   C67528573   6.243   0.148   5.632  0.2265 -0.2328 -0.3486
   30MOL   C67628574   6.371   0.177   5.710 -0.7818 -0.5362  0.1850
   30MOL   C67728575   6.382   0.119   5.841 -0.0538  0.1321  0.6721
   30MOL   C67828576   6.494   0.142   5.927  0.2386 -1.0759  0.3005
   30MOL   C67928577   6.595   0.229   5.882  0.3857  0.4154 -0.2126
   30MOL   C68028578   6.595   0.292   5.757  0.0067  1.0121  0.2143
   30MOL   C68128579   6.486   0.258   5.665  0.2290 -0.0265  0.1768
   30MOL   C68228580   6.485   0.340   5.538  0.2602  0.1792 -0.3351
   30MOL   N68328581   6.462   0.249   5.420 -0.0145 -0.7710 -0.5218
   30MOL   C68428582   6.422   0.282   5.299  0.1094  0.0516 -0.0149
   30MOL   O68528583   6.382   0.398   5.270  0.2141 -0.1367  0.5680
   30MOL   C68628584   6.419   0.170   5.192 -0.4504 -0.5165 -0.9785
   30MOL   C68728585   6.275   0.127   5.166 -0.4324 -0.3596  0.4784
   30MOL   C68828586   6.260   0.013   5.065  0.0163  1.1373  0.1999
   30MOL   C68928587   6.116   7.756   5.053  0.3115  0.5084  0.0806
   30MOL   C69028588   6.107   7.643   4.946 -0.1598 -0.2851  0.0134
   30MOL   C69128589   5.966   7.628   4.890  0.0152 -0.3090  0.2020
   30MOL   C69228590   5.955   7.540   4.758 -0.1398 -0.4917  1.2236
   30MOL   C69328591   6.020   7.401   4.766 -0.1306  0.2759 -0.9863
   30MOL   C69428592   6.023   7.315   4.646  0.1262  0.1608  0.2413
   30MOL   O69528593   6.003   7.365   4.536 -0.3574  0.0964 -0.7303
   30MOL   H69628594   6.172   7.736   5.665  0.9701 -0.7032 -0.7078
   30MOL   H69728595   6.154   0.171   5.690  1.3553  2.4536  0.4082
   30MOL   H69828596   6.241   0.210   5.542  0.1895  0.9061  0.4245
   30MOL   H69928597   6.304   0.060   5.887  0.7336 -2.3490 -1.0554
   30MOL   H70028598   6.489   0.098   6.025 -2.3718 -1.4268  0.0254
   30MOL   H70128599   6.675   0.249   5.952 -0.2392  0.9724  0.3384
   30MOL   H70228600   6.683   0.344   5.721  0.9581 -1.0907 -0.6090
   30MOL   H70328601   6.566   0.412   5.525  0.0239  0.4589 -0.2599
   30MOL   H70428602   6.406   0.414   5.549 -1.1878 -0.9610 -2.6512
   30MOL   H70528603   6.481   0.150   5.430 -0.0641 -0.6706  0.6628
   30MOL   H70628604   6.487   0.088   5.214  1.6770  1.2501 -0.8381
   30MOL   H70728605   6.455   0.218   5.100  0.6497 -0.2339 -0.4086
   30MOL   H70828606   6.220   0.210   5.121 -2.9865 -0.6178  2.9937
   30MOL   H70928607   6.226   0.095   5.258  0.2471 -1.5745  0.4333
   30MOL   H71028608   6.307   0.043   4.971 -1.7651  0.2033 -1.0161
   30MOL   H71128609   6.307   7.712   5.103  0.1726  0.3413 -1.8336
   30MOL   H71228610   6.078   7.718   5.148 -0.5508 -1.9595 -1.2211
   30MOL   H71328611   6.052   0.049   5.022 -1.6975 -0.8703  0.4297
   30MOL   H71428612   6.176   7.666   4.865  0.6249 -1.2934  0.3768
   30MOL   H71528613   6.138   7.544   4.981 -1.5270 -1.4141 -1.8460
   30MOL   H71628614   5.924   7.728   4.878  1.0945  0.4007  2.1838
   30MOL   H71728615   5.901   7.582   4.964  0.4129  0.6623  1.1598
   30MOL   H71828616   6.004   7.601   4.683 -0.9470 -0.6379  0.5721
   30MOL   H71928617   5.852   7.540   4.723  0.8993 -1.2071 -1.9574
   30MOL   H72028618   5.985   7.344   4.852 -1.2827  1.9782 -0.3026
   30MOL   H72128619   6.128   7.407   4.786 -0.3429 -0.7035  0.6156
   30MOL   N72228620   6.072   7.190   4.658  0.3761 -0.2468  0.0494
   30MOL   C72328621   6.091   7.092   4.546  0.2480  0.4615  0.0713
   30MOL   C72428622   6.210   7.001   4.576 -0.1460 -0.1729 -0.2966
   30MOL   C72528623   6.336   7.028   4.521 -0.1171  1.3560  0.2490
   30MOL   C72628624   6.455   6.952   4.545  0.5215  0.1823  0.2410
   30MOL   C72728625   6.442   6.848   4.637  0.6241 -0.0807  0.4552
   30MOL   C72828626   6.319   6.829   4.706  0.1142  0.6129  0.2372
   30MOL   C72928627   6.201   6.903   4.672 -0.4762  0.0638 -0.3313
   30MOL   C73028628   6.064   6.865   4.735  0.0615  0.2283 -0.1804
   30MOL   N73128629   6.072   6.770   4.845  0.1951  0.4558 -0.2900
   30MOL   C73228630   6.020   6.778   4.967 -0.4174 -0.7866  0.2517
   30MOL   O73328631   5.968   6.886   4.997  0.6638 -0.2077  0.5875
   30MOL   C73428632   6.020   6.658   5.062 -0.1568  0.3324 -0.0657
   30MOL   C73528633   5.945   6.668   5.191 -0.7076 -0.3641  0.4814
   30MOL   C73628634   5.991   6.556   5.281  0.8753  0.1821 -0.2807
   30MOL   C73728635   5.959   6.409   5.235  0.3789  0.5356 -0.9541
   30MOL   C73828636   5.812   6.396   5.195  0.1778  0.4699 -0.1372
   30MOL   C73928637   5.763   6.248   5.186  0.1068 -0.3256 -0.0485
   30MOL   C74028638   5.616   6.225   5.150 -0.2611 -0.1369 -0.3028
   30MOL   C74128639   5.561   6.077   5.154  0.9471  0.0955  0.1288
   30MOL   C74228640   5.507   6.042   5.297  0.0511 -0.4504  0.2612
   30MOL   O74328641   5.582   6.014   5.387  0.0836  0.4791 -0.2664
   30MOL   H74428642   6.109   7.155   4.746 -1.2690 -4.2669 -0.7233
   30MOL   H74528643   6.114   7.136   4.449  1.5260 -2.4031 -0.9962
   30MOL   H74628644   5.993   7.045   4.537  1.0722 -1.5625  1.2602
   30MOL   H74728645   6.340   7.097   4.439  0.6061  2.4694  1.2159
   30MOL   H74828646   6.548   6.967   4.492  0.9772 -2.4073  0.2248
   30MOL   H74928647   6.529   6.785   4.646  1.2379  0.8774  1.2684
   30MOL   H75028648   6.315   6.750   4.780  0.9111 -0.9655 -1.3541
   30MOL   H75128649   5.985   6.825   4.671  0.0852  0.9848 -0.6884
   30MOL   H75228650   6.018   6.958   4.767 -2.6537 -1.3734  0.7857
   30MOL   H75328651   6.120   6.684   4.821 -1.7686 -0.3742 -1.3238
   30MOL   H75428652   6.126   6.635   5.060 -0.3149 -0.3826 -2.4606
   30MOL   H75528653   5.981   6.570   5.010 -1.7696 -0.2617  2.0546
   30MOL   H75628654   5.836   6.663   5.182 -0.6712 -0.0025 -0.1814
   30MOL   H75728655   5.968   6.764   5.237 -1.6179  0.6679 -1.1724
   30MOL   H75828656   6.097   6.569   5.303  1.1472 -1.5342 -0.5003
   30MOL   H75928657   5.933   6.570   5.373  1.4573  0.0986  0.1041
   30MOL   H76028658   6.029   6.380   5.156  0.0595 -1.9717 -0.3672
   30MOL   H76128659   5.981   6.343   5.319 -0.3056  0.2767 -0.9749
   30MOL   H76228660   5.751   6.448   5.269  0.5790  1.0319 -0.2003
   30MOL   H76328661   5.792   6.447   5.101 -1.0464 -0.3506 -0.3357
   30MOL   H76428662   5.775   6.194   5.280 -0.0023 -0.9951 -0.4193
   30MOL   H76528663   5.825   6.194   5.114  0.2509 -0.6044  0.2809
   30MOL   H76628664   5.548   6.291   5.204  0.2610  1.8996 -2.0352
   30MOL   H76728665   5.603   6.258   5.046 -1.5581 -0.7971 -0.3680
   30MOL   H76828666   5.475   6.073   5.087 -0.1590  1.9666  1.3852
   30MOL   H76928667   5.632   6.001   5.120  0.1924 -0.6477  0.2069
   30MOL   N77028668   5.373   6.045   5.319  0.0127 -0.1948  0.4267
   30MOL   C77128669   5.301   6.009   5.443  0.1333  0.3149  0.5532
   30MOL   C77228670   5.312   6.097   5.566  0.2431 -0.6868 -0.1286
   30MOL   C77328671   5.419   6.069   5.664  0.2729  0.3856  0.0902
   30MOL   C77428672   5.426   6.144   5.782  0.0002  0.5029  0.1087
   30MOL   C77528673   5.338   6.256   5.805  0.0199  0.1140 -0.5761
   30MOL   C77628674   5.236   6.285   5.709 -0.0959 -0.2055 -0.8116
   30MOL   C77728675   5.223   6.208   5.593 -0.0994 -0.5256  0.4386
   30MOL   C77828676   5.119   6.234   5.489  0.7610  0.2253  0.5591
   30MOL   N77928677   5.062   6.375   5.506 -0.1113  0.2932  0.5183
   30MOL   C78028678   4.936   6.404   5.523 -0.3724  0.2150  0.0383
   30MOL   O78128679   4.848   6.320   5.525  0.0365 -0.8321 -0.0935
   30MOL   C78228680   4.909   6.545   5.545 -0.4573 -0.1017  0.2982
   30MOL   C78328681   4.765   6.585   5.599  0.1876 -0.2051 -0.1434
   30MOL   C78428682   4.691   6.676   5.502  0.3375  0.1244  0.3938
   30MOL   C78528683   4.635   6.590   5.380 -0.1856 -0.7522  0.3724
   30MOL   C78628684   4.601   6.672   5.253  0.3537 -0.5409  0.3517
   30MOL   C78728685   4.722   6.742   5.184  0.3510 -0.6840  0.1628
   30MOL   C78828686   4.688   6.834   5.063 -0.3355  0.5608  0.5761
   30MOL   C78928687   4.800   6.895   4.987 -0.1241  0.1925  0.2912
   30MOL   C79028688   4.851   7.016   5.067  0.0721  0.5056 -0.2495
   30MOL   O79128689   4.778   7.113   5.072  0.1620 -0.4385  0.1666
   30MOL   H79228690   5.318   6.073   5.239 -2.0846  2.0685  2.5612
   30MOL   H79328691   5.197   5.987   5.419  0.4761 -0.8415  0.0804
   30MOL   H79428692   5.344   5.911   5.467  1.0170  0.7654  0.8468
   30MOL   H79528693   5.484   5.983   5.651 -1.2390 -0.8813  0.7950
   30MOL   H79628694   5.494   6.119   5.863 -0.1242  2.8027  0.9727
   30MOL   H79728695   5.350   6.317   5.893 -3.1552  0.6479 -0.4341
   30MOL   H79828696   5.170   6.369   5.722  1.3809  0.4870  2.6432
   30MOL   H79928697   5.044   6.155   5.484  1.1259 -0.0309 -1.1742
   30MOL   H80028698   5.157   6.217   5.388 -1.6399  1.9894 -0.6803
   30MOL   H80128699   5.135   6.445   5.495 -0.1509  0.0514 -1.5346
   30MOL   H80228700   4.930   6.604   5.456  2.8673 -1.3159  0.1773
   30MOL   H80328701   4.983   6.566   5.622  0.3010 -0.7394 -0.2485
   30MOL   H80428702   4.785   6.653   5.681  2.5588 -0.7890 -0.1853
   30MOL   H80528703   4.710   6.496   5.628 -1.0521  0.6952  0.2927
   30MOL   H80628704   4.762   6.752   5.469  1.5191 -0.7831  0.8265
   30MOL   H80728705   4.605   6.718   5.555 -0.8917 -2.8372  0.8521
   30MOL   H80828706   4.702   6.507   5.356  0.3430 -0.1567 -0.2565
   30MOL   H80928707   4.552   6.538   5.427  0.5260  0.2694  2.8101
   30MOL   H81028708   4.550   6.606   5.184  2.1800  0.2958 -1.8676
   30MOL   H81128709   4.530   6.748   5.287 -0.8367 -0.5043 -2.1319
   30MOL   H81228710   4.801   6.669   5.165  2.2475  1.4777 -0.3795
   30MOL   H81328711   4.767   6.808   5.258 -0.5935 -0.7365  0.7879
   30MOL   H81428712   4.605   6.902   5.084  0.2391  1.1409  0.9950
   30MOL   H81528713   4.632   6.774   4.991  1.4440 -0.9121  0.3789
   30MOL   H81628714   4.763   6.929   4.890 -0.2405 -2.4559 -0.6341
   30MOL   H81728715   4.876   6.818   4.976  3.3582  2.8210  4.4505
   30MOL   N81828716   4.966   7.002   5.130  0.0308 -0.5420 -0.5717
   30MOL   C81928717   5.001   7.102   5.232 -0.0939 -0.4046  0.3239
   30MOL   C82028718   4.978   7.043   5.365  0.5100 -0.8329 -0.2018
   30MOL   C82128719   4.878   7.106   5.446 -0.3241 -0.5468 -0.3357
   30MOL   C82228720   4.844   7.054   5.573  0.1150  0.5173 -0.0446
   30MOL   C82328721   4.904   6.938   5.618 -0.2497  0.1537 -0.1411
   30MOL   C82428722   5.001   6.872   5.539 -0.6341 -0.5874  0.8225
   30MOL   C82528723   5.046   6.927   5.413  0.1856 -0.3786  0.0974
   30MOL   C82628724   5.164   6.860   5.340 -0.0693 -0.0603  0.3252
   30MOL   N82728725   5.130   6.728   5.299 -0.2847  0.0026 -0.2324
   30MOL   C82828726   5.122   6.687   5.171 -0.2789 -0.0328 -0.3190
   30MOL   O82928727   5.113   6.760   5.077 -0.3263 -0.7727  0.1205
   30MOL   C83028728   5.112   6.535   5.144  0.2290  0.3147 -0.0512
   30MOL   C83128729   5.247   6.467   5.170  0.8179  0.4932  0.4801
   30MOL   C83228730   5.341   6.469   5.056  0.4056  0.3337  0.0228
   30MOL   C83328731   5.332   6.346   4.962  0.2257 -0.0991 -0.7592
   30MOL   C83428732   5.203   6.335   4.883  0.0471  0.0261  0.4720
   30MOL   C83528733   5.206   6.215   4.783 -0.2166 -0.6478  0.3660
   30MOL   C83628734   5.088   6.211   4.690 -0.0562  0.1292  0.7907
   30MOL   C83728735   5.079   6.086   4.598  0.2788  0.4075 -0.0166
   30MOL   C83828736   4.968   6.106   4.499  0.2119 -0.1774 -0.1860
   30MOL   O83928737   4.854   6.113   4.537  0.1206  0.2848  0.3317
   30MOL   H84028738   5.024   6.920   5.122  0.8025  0.0385 -0.9431
   30MOL   H84128739   5.107   7.119   5.215 -0.1067 -1.0635 -0.4304
   30MOL   H84228740   4.944   7.195   5.219  2.3784  1.9333  5.0351
   30MOL   H84328741   4.823   7.194   5.415  0.0955 -0.1624  0.0011
   30MOL   H84428742   4.770   7.104   5.633  0.0193 -0.7604  0.9065
   30MOL   H84528743   4.865   6.900   5.712 -1.5178  0.8333 -0.3794
   30MOL   H84628744   5.060   6.792   5.580  0.4996  0.5593  1.4630
   30MOL   H84728745   5.247   6.850   5.411  1.6467  1.6245 -1.3819
   30MOL   H84828746   5.189   6.920   5.253 -2.1260  0.9530  0.4115
   30MOL   H84928747   5.153   6.659   5.370 -1.2059 -0.7255 -0.6326
   30MOL   H85028748   5.073   6.518   5.043  0.5901 -0.3650 -0.0824
   30MOL   H85128749   5.042   6.485   5.210  0.7849  0.0483  0.3449
   30MOL   H85228750   5.235   6.365   5.205  0.4978  0.2975 -0.1984
   30MOL   H85328751   5.299   6.504   5.259 -0.4252  3.3599  0.0903
   30MOL   H85428752   5.446   6.479   5.085  0.4333  4.0410 -1.0246
   30MOL   H85528753   5.327   6.556   4.991 -1.8302  0.4035  0.5573
   30MOL   H85628754   5.412   6.357   4.888  0.0772 -2.4691 -1.3244
   30MOL   H85728755   5.346   6.248   5.009  0.5606  0.9100  1.2881
   30MOL   H85828756   5.127   6.319   4.960 -1.2873  1.8310 -0.4371
   30MOL   H85928757   5.180   6.426   4.828 -1.2465  0.2366  1.3379
   30MOL   H86028758   5.203   6.118   4.832 -0.8766 -0.3840  0.8516
   30MOL   H86128759   5.288   6.225   4.713 -0.0950  0.7429  0.6883
   30MOL   H86228760   5.082   6.305   4.635 -1.6059 -0.2155  0.3571
   30MOL   H86328761   4.996   6.209   4.748 -1.5015 -4.6527 -1.4414
   30MOL   H86428762   5.174   6.059   4.551  0.4815  0.3168  0.4397
   30MOL   H86528763   5.053   6.004   4.665 -4.8551  0.3688 -1.8203
   30MOL   N86628764   5.002   6.101   4.370  0.0928 -0.2091  0.4134
   30MOL   C86728765   4.907   6.102   4.258 -0.1514 -0.2640  0.1811
   30MOL   C86828766   4.864   6.239   4.205  0.0586 -0.2199  0.2503
   30MOL   C86928767   4.965   6.315   4.144 -0.4326 -0.2088 -0.3999
   30MOL   C87028768   4.936   6.438   4.091 -0.3169  0.6055 -0.2955
   30MOL   C87128769   4.807   6.501   4.107 -0.3374  0.1257  0.1039
   30MOL   C87228770   4.708   6.426   4.174  0.3973 -0.1608 -0.5840
   30MOL   C87328771   4.737   6.296   4.222  0.6741 -0.5426 -0.0509
   30MOL   C87428772   4.623   6.225   4.294 -0.0422 -0.0805  0.8330
   30MOL   N87528773   4.488   6.290   4.288  0.4435 -0.3944 -0.2241
   30MOL   C87628774   4.389   6.258   4.208  0.0995  0.1987  0.4236
   30MOL   O87728775   4.401   6.168   4.125  0.5520  0.1816  0.2597
   30MOL   C87828776   4.251   6.329   4.218  0.1187 -0.1782 -0.0639
   30MOL   C87928777   4.206   6.398   4.085  0.3048 -0.2460 -0.4675
   30MOL   C88028778   4.085   6.490   4.079  0.7891 -0.1437  0.0053
   30MOL   C88128779   4.036   6.529   3.942  0.2588 -0.6659 -0.3561
   30MOL   C88228780   3.923   6.639   3.943  0.4163 -0.2041  0.1267
   30MOL   C88328781   3.790   6.598   3.992  0.2986 -0.3163 -0.1462
   30MOL   C88428782   3.694   6.695   4.061 -0.0395 -0.3014  0.1342
   30MOL   C88528783   3.750   6.734   4.202  0.4086  0.4620  0.2727
   30MOL   C88628784   3.657   6.836   4.264 -0.5011  0.7967 -0.5166
   30MOL   O88728785   3.541   6.790   4.279  0.2754 -0.3862  1.1292
   30MOL   H88828786   5.099   6.103   4.342 -0.6632 -2.5953 -2.6579
   30MOL   H88928787   4.953   6.045   4.177  4.1779  0.0297  2.2909
   30MOL   H89028788   4.820   6.046   4.291 -1.3155  0.7712 -1.1189
   30MOL   H89128789   5.061   6.271   4.124  0.4489  0.1969  2.7170
   30MOL   H89228790   5.014   6.486   4.034 -0.3409  0.4923 -0.4231
   30MOL   H89328791   4.790   6.596   4.058 -0.6620 -0.1940 -0.4147
   30MOL   H89428792   4.612   6.471   4.195 -0.4514 -0.8362 -2.8204
   30MOL   H89528793   4.667   6.208   4.393  1.6093  1.2340  0.3594
   30MOL   H89628794   4.625   6.125   4.252 -0.7238  0.0752  0.4370
   30MOL   H89728795   4.482   6.376   4.342 -0.8866 -0.2618 -0.5729
   30MOL   H89828796   4.253   6.409   4.292 -0.0445  0.7117 -1.0121
   30MOL   H89928797   4.188   6.244   4.243 -0.1217 -0.3762 -1.3307
   30MOL   H90028798   4.200   6.311   4.020  0.5886  0.7450 -1.8482
   30MOL   H90128799   4.299   6.446   4.052  1.6357 -2.3699  0.1147
   30MOL   H90228800   3.997   6.440   4.119  0.0060  0.1188 -1.3747
   30MOL   H90328801   4.106   6.573   4.147  2.3241  0.1253 -0.7805
   30MOL   H90428802   4.111   6.563   3.870 -1.9572  1.8221 -1.5456
   30MOL   H90528803   4.001   6.434   3.901 -0.7746 -1.1973  1.7240
   30MOL   H90628804   3.957   6.732   3.988  1.6392 -1.0182  0.8876
   30MOL   H90728805   3.903   6.664   3.839  1.4221  0.3685  0.0684
   30MOL   H90828806   3.814   6.528   4.072  0.5182  0.4300  0.4443
   30MOL   H90928807   3.730   6.545   3.919 -1.9536  4.6890 -2.1383
   30MOL   H91028808   3.681   6.789   4.006 -0.9867 -0.6553 -0.2483
   30MOL   H91128809   3.597   6.648   4.070  0.5566 -1.3209  1.3912
   30MOL   H91228810   3.751   6.644   4.263  0.4022  0.8324  0.8131
   30MOL   H91328811   3.853   6.767   4.194  0.9977 -1.3367  0.2460
   30MOL   N91428812   3.709   6.949   4.312  0.6409  0.3645  0.5469
   30MOL   C91528813   3.627   7.058   4.369 -0.3585 -0.0398 -0.0087
   30MOL   C91628814   3.690   7.197   4.396  0.1220 -0.5052  0.0752
   30MOL   C91728815   3.797   7.248   4.317 -0.1938  0.0131 -0.2659
   30MOL   C91828816   3.848   7.374   4.346 -0.2679 -0.4614  0.2787
   30MOL   C91928817   3.796   7.449   4.453 -0.2393 -0.2143 -0.1656
   30MOL   C92028818   3.684   7.406   4.529 -0.3317  0.1754  0.4795
   30MOL   C92128819   3.636   7.279   4.501 -0.1133  0.0286  0.0634
   30MOL   C92228820   3.531   7.240   4.603 -0.3873 -0.0128  0.3282
   30MOL   N92328821   3.606   7.172   4.713  0.3926 -0.3333  0.0527
   30MOL   C92428822   3.639   7.232   4.823  0.2084 -0.0928 -0.3220
   30MOL   O92528823   3.602   7.346   4.859 -0.1641 -0.4073  0.1609
   30MOL   C92628824   3.740   7.155   4.906 -0.8430  0.2532 -0.0437
   30MOL   C92728825   3.876   7.221   4.911 -0.2174 -0.8531 -0.6046
   30MOL   C92828826   3.981   7.123   4.959  0.2008  0.2714  0.4393
   30MOL   C92928827   4.039   7.019   4.859  0.1040 -0.0878 -0.2937
   30MOL   C93028828   4.144   6.934   4.935  0.2108 -0.0196 -0.1175
   30MOL   C93128829   4.214   6.820   4.856 -0.2948 -0.1231  0.1500
   30MOL   C93228830   4.307   6.868   4.742 -0.1141 -0.1781  0.1149
   30MOL   C93328831   4.434   6.953   4.790  0.0864 -0.0098  0.3621
   30MOL   C93428832   4.513   7.019   4.681  0.1551 -0.3415  0.0708
   30MOL   O93528833   4.480   6.998   4.560 -0.5441  0.8205  0.2982
   30MOL   H93628834   3.807   6.960   4.289  0.0090  2.8411 -1.0910
   30MOL   H93728835   3.532   7.061   4.315 -1.3387 -1.9104  1.5428
   30MOL   H93828836   3.597   7.018   4.466  2.4810 -1.7499  0.1987
   30MOL   H93928837   3.832   7.195   4.230  1.7194  2.1329 -0.8529
   30MOL   H94028838   3.930   7.409   4.286  0.5045 -0.2266  1.4594
   30MOL   H94128839   3.846   7.540   4.482 -2.5348  0.5083  1.7894
   30MOL   H94228840   3.637   7.465   4.605 -3.1382 -0.8239 -0.4212
   30MOL   H94328841   3.462   7.162   4.571 -0.5055  0.3274 -0.2488
   30MOL   H94428842   3.478   7.332   4.625 -0.2132  0.7100 -2.1217
   30MOL   H94528843   3.645   7.081   4.692 -2.1940 -1.3768 -0.4672
   30MOL   H94628844   3.744   7.050   4.875 -0.4468 -0.2323  1.5705
   30MOL   H94728845   3.691   7.150   5.003  0.7640 -0.5844  0.7604
   30MOL   H94828846   3.868   7.308   4.977 -1.3589  0.3442 -2.2762
   30MOL   H94928847   3.912   7.254   4.814  0.8214 -0.6844 -0.1651
   30MOL   H95028848   4.068   7.185   4.981  1.2216 -0.9969  0.0017
   30MOL   H95128849   3.949   7.069   5.048 -1.3150  1.2855  0.5372
   30MOL   H95228850   3.960   6.953   4.825  1.6447 -1.9216 -0.4368
   30MOL   H95328851   4.083   7.066   4.771 -0.6138  2.1226  0.4883
   30MOL   H95428852   4.100   6.890   5.025 -0.8375  1.5865  0.1851
   30MOL   H95528853   4.221   6.987   4.990  1.0510 -4.1083  2.9392
   30MOL   H95628854   4.266   6.765   4.934  2.0816  3.1829  0.9974
   30MOL   H95728855   4.133   6.756   4.824 -0.3224 -0.2121  0.3985
   30MOL   H95828856   4.238   6.921   4.675 -0.2119 -0.4268  0.0183
   30MOL   H95928857   4.337   6.784   4.680  0.1484 -0.7791  1.0594
   30MOL   H96028858   4.495   6.884   4.849  0.5091  0.0546 -0.0027
   30MOL   H96128859   4.405   7.031   4.860 -3.1447  0.9673 -1.9431
   30MOL   H96228860   4.595   7.082   4.717 -0.3572  1.5781 -2.0072
   31MOL     N128861   0.255   7.162   2.183 -0.1093  0.0522 -0.2655
   31MOL     C228862   0.366   7.222   2.252  0.0530 -0.6499  0.4231
   31MOL     C328863   0.450   7.295   2.151  0.2368 -0.2805 -0.0759
   31MOL     C428864   0.387   7.392   2.061  0.2814  0.4459  0.0639
   31MOL     C528865   0.451   7.447   1.949  0.1536 -0.7455 -0.4607
   31MOL     C628866   0.592   7.414   1.933  0.3052  0.3134  0.1455
   31MOL     C728867   0.657   7.325   2.023 -0.7427  0.0711 -0.2804
   31MOL     C828868   0.590   7.268   2.135  0.3641  0.8314  0.1318
   31MOL     C928869   0.664   7.176   2.229 -0.3761 -0.1397 -0.4858
   31MOL    N1028870   0.809   7.166   2.201  0.9028 -0.1833 -0.4930
   31MOL    C1128871   0.870   7.065   2.148 -0.2418  0.4373  0.0084
   31MOL    O1228872   0.813   6.974   2.088 -0.2183  0.7268 -0.1625
   31MOL    C1328873   1.017   7.052   2.183  0.4486  0.7830  0.2883
   31MOL    C1428874   1.069   6.905   2.193 -0.9395 -0.3877 -0.1444
   31MOL    C1528875   1.184   6.898   2.296  0.0020 -0.2807  0.7805
   31MOL    C1628876   1.261   6.759   2.286  0.4241  0.8176 -0.0227
   31MOL    C1728877   1.381   6.754   2.376 -0.9297 -0.2134 -0.4714
   31MOL    C1828878   1.472   6.631   2.349 -0.3806 -0.0788  0.8699
   31MOL    C1928879   1.391   6.495   2.327  0.1087 -0.6033 -0.2182
   31MOL    C2028880   1.475   6.380   2.281  0.4027 -0.2623 -0.2257
   31MOL    C2128881   1.551   6.304   2.397  0.3993  0.0690 -0.3553
   31MOL    O2228882   1.504   6.299   2.509 -0.4072  0.3780  0.4905
   31MOL    H2328883   0.172   7.218   2.200 -1.1795 -1.2832 -0.9625
   31MOL    H2428884   0.323   7.289   2.327  0.4651  1.3585 -1.0983
   31MOL    H2528885   0.409   7.136   2.304 -1.2582 -1.9405 -0.5718
   31MOL    H2628886   0.281   7.405   2.078  0.3046  2.5439 -1.2434
   31MOL    H2728887   0.396   7.519   1.890 -0.4020 -0.7799  0.0028
   31MOL    H2828888   0.654   7.458   1.856 -0.0510 -1.2373 -1.0431
   31MOL    H2928889   0.757   7.295   1.996 -1.1164 -0.8982 -0.5872
   31MOL    H3028890   0.601   7.087   2.227  2.0519 -1.8883 -0.4895
   31MOL    H3128891   0.658   7.217   2.330  1.2931 -0.9203 -0.0527
   31MOL    H3228892   0.860   7.228   2.263 -0.0832  0.4283 -0.2667
   31MOL    H3328893   1.038   7.112   2.271  1.8719 -0.2928  0.6905
   31MOL    H3428894   1.070   7.106   2.104  2.3201 -0.3391  0.7644
   31MOL    H3528895   1.096   6.867   2.094 -3.9292  0.7895 -1.4565
   31MOL    H3628896   1.002   6.829   2.232 -1.1956 -0.1258 -0.0775
   31MOL    H3728897   1.262   6.969   2.272 -0.4670  0.7001  2.1120
   31MOL    H3828898   1.156   6.920   2.399 -2.1861 -1.4891  0.4876
   31MOL    H3928899   1.187   6.690   2.326  1.3893  0.9766  2.1079
   31MOL    H4028900   1.280   6.729   2.183 -3.4470 -1.9794 -0.0411
   31MOL    H4128901   1.429   6.852   2.381 -1.4470  0.1033 -1.5808
   31MOL    H4228902   1.342   6.742   2.477  1.0002  0.9700  0.4548
   31MOL    H4328903   1.535   6.621   2.438  2.5208  0.9190 -0.9700
   31MOL    H4428904   1.543   6.640   2.267 -2.1875 -1.7908 -0.9139
   31MOL    H4528905   1.338   6.466   2.418 -1.8809 -0.7290 -1.3752
   31MOL    H4628906   1.307   6.511   2.260  0.4612 -0.6908 -0.6806
   31MOL    H4728907   1.531   6.414   2.194  0.4744  1.3802  0.4372
   31MOL    H4828908   1.405   6.305   2.244 -0.5728  0.1662  0.7145
   31MOL    H4928909   0.231   7.079   2.235 -2.3329  1.2281  0.6735
   31MOL    N5028910   1.665   6.247   2.359 -0.8146  0.8579  0.2547
   31MOL    C5128911   1.753   6.181   2.450  0.0512 -0.5091  0.3004
   31MOL    C5228912   1.881   6.266   2.473 -0.5127 -0.1328 -0.4554
   31MOL    C5328913   1.928   6.349   2.368 -0.0703 -0.5302 -0.6334
   31MOL    C5428914   2.049   6.416   2.385  0.1037 -0.0503  0.6130
   31MOL    C5528915   2.128   6.413   2.497 -0.2782 -0.2880 -0.5430
   31MOL    C5628916   2.074   6.343   2.606  0.1228 -0.3586  0.7912
   31MOL    C5728917   1.950   6.270   2.595 -0.2524 -0.9755 -0.5375
   31MOL    C5828918   1.892   6.202   2.717  0.2585  0.4302  0.1408
   31MOL    N5928919   1.973   6.191   2.841  0.7830  0.8470 -1.1898
   31MOL    C6028920   1.986   6.293   2.929  0.1059  0.3545 -0.3325
   31MOL    O6128921   1.941   6.406   2.923  0.3670  0.1332  0.3318
   31MOL    C6228922   2.066   6.263   3.055 -0.4442 -0.6138 -0.4522
   31MOL    C6328923   2.025   6.352   3.173 -0.0513  0.3327  0.1080
   31MOL    C6428924   2.023   6.276   3.305  0.0101  0.0197  0.7278
   31MOL    C6528925   2.028   6.381   3.418 -0.0277 -0.0871 -0.4334
   31MOL    C6628926   2.020   6.318   3.548  0.0899 -0.1901 -0.2391
   31MOL    C6728927   2.127   6.379   3.648 -0.2152  0.5894  0.0017
   31MOL    C6828928   2.080   6.507   3.710  0.2697 -0.3602  0.0212
   31MOL    C6928929   2.188   6.579   3.781 -0.0333  0.2914 -0.2284
   31MOL    C7028930   2.152   6.703   3.862  0.1663  0.1292  0.2018
   31MOL    O7128931   2.088   6.795   3.812 -0.0622 -0.3638  0.3895
   31MOL    H7228932   1.695   6.255   2.262 -0.7476  0.3374  0.2330
   31MOL    H7328933   1.786   6.088   2.406 -1.4759  0.0260 -2.0946
   31MOL    H7428934   1.700   6.168   2.544  0.9013  0.3503  0.9150
   31MOL    H7528935   1.876   6.355   2.274  0.4899  0.8468 -0.8689
   31MOL    H7628936   2.101   6.471   2.308  0.6260 -0.1271  0.9078
   31MOL    H7728937   2.216   6.476   2.505 -1.2960  1.1093 -0.1402
   31MOL    H7828938   2.125   6.355   2.700  0.6206  1.7128  0.2781
   31MOL    H7928939   1.873   6.097   2.699 -2.1467  0.7060  0.9485
   31MOL    H8028940   1.801   6.252   2.750 -0.2989  1.5939 -3.0575
   31MOL    H8128941   2.016   6.103   2.866 -1.6000 -0.2965 -1.0194
   31MOL    H8228942   2.172   6.267   3.034 -0.2600  0.3584  0.6336
   31MOL    H8328943   2.063   6.159   3.088 -1.1484 -1.0779 -1.9398
   31MOL    H8428944   1.923   6.386   3.159 -0.7704 -1.2083  1.3853
   31MOL    H8528945   2.080   6.446   3.165 -1.1782  1.0429  0.5459
   31MOL    H8628946   1.929   6.224   3.320 -0.1886  0.2870  0.3881
   31MOL    H8728947   2.107   6.206   3.316 -0.7275 -0.7888  1.2817
   31MOL    H8828948   2.109   6.452   3.408  0.2438 -0.5796 -1.9437
   31MOL    H8928949   1.935   6.438   3.417  0.6500  1.0241 -1.2985
   31MOL    H9028950   1.918   6.334   3.580  0.0582 -1.3328  0.2286
   31MOL    H9128951   2.029   6.210   3.536  1.6841 -0.2517  1.2830
   31MOL    H9228952   2.219   6.401   3.593  0.1276 -0.4877  0.1457
   31MOL    H9328953   2.156   6.315   3.731  0.2993  3.0490  1.7654
   31MOL    H9428954   1.995   6.486   3.776  0.9782 -2.1857  0.3783
   31MOL    H9528955   2.044   6.573   3.631 -1.0361 -0.5990  0.3929
   31MOL    H9628956   2.254   6.626   3.708  1.9684 -0.4851  1.0204
   31MOL    H9728957   2.237   6.500   3.838 -1.2802 -0.3959 -0.0982
   31MOL    N9828958   2.200   6.710   3.989  0.1417 -0.0420 -0.3600
   31MOL    C9928959   2.167   6.821   4.081  1.3963 -0.6422  0.2012
   31MOL   C10028960   2.276   6.925   4.107 -0.0725 -0.5893  0.3453
   31MOL   C10128961   2.405   6.914   4.058  0.1099  0.0192 -0.3945
   31MOL   C10228962   2.506   6.997   4.113 -0.3476 -0.0663  0.0123
   31MOL   C10328963   2.480   7.109   4.200 -0.2238  0.5031 -0.9173
   31MOL   C10428964   2.343   7.125   4.227 -0.8021 -0.1145 -0.5879
   31MOL   C10528965   2.237   7.034   4.186 -0.0755  0.2919 -0.1678
   31MOL   C10628966   2.094   7.054   4.234  0.6019  0.4988 -0.0575
   31MOL   N10728967   2.095   7.125   4.358 -0.9982  0.4795 -0.5090
   31MOL   C10828968   2.007   7.226   4.388 -0.4879  0.4866  0.3605
   31MOL   O10928969   1.924   7.274   4.307 -0.8385  0.1777 -0.1153
   31MOL   C11028970   2.030   7.310   4.515 -0.3767 -0.7756 -0.7272
   31MOL   C11128971   1.917   7.306   4.621  0.1540  0.4501 -0.5585
   31MOL   C11228972   1.896   7.163   4.680  0.5923 -0.1699 -0.2320
   31MOL   C11328973   1.835   7.167   4.822  0.3178  0.2674 -0.1812
   31MOL   C11428974   1.792   7.020   4.862 -0.9505 -0.8274 -0.0211
   31MOL   C11528975   1.727   7.010   5.004  0.2426  0.3263 -0.3494
   31MOL   C11628976   1.813   7.053   5.126 -0.6069  0.2567  0.2613
   31MOL   C11728977   1.894   6.945   5.202 -0.2287 -0.8483  1.3537
   31MOL   C11828978   2.014   6.884   5.135 -0.1798 -0.1360  0.1878
   31MOL   O11928979   2.106   6.952   5.094  0.0882 -0.1486 -0.7861
   31MOL   H12028980   2.242   6.632   4.037 -0.0821 -0.5672 -1.0118
   31MOL   H12128981   2.078   6.871   4.044  0.7243 -1.5818  0.5342
   31MOL   H12228982   2.142   6.771   4.174 -0.7123  2.8657  1.6345
   31MOL   H12328983   2.435   6.840   3.986 -1.9156 -1.4591  0.2230
   31MOL   H12428984   2.609   6.978   4.089 -0.3753 -0.9463  0.5765
   31MOL   H12528985   2.558   7.175   4.235  0.0407 -0.4414  0.3016
   31MOL   H12628986   2.317   7.207   4.292  0.0942  0.5046 -0.9952
   31MOL   H12728987   2.040   6.960   4.245 -0.8589  1.1274 -1.6624
   31MOL   H12828988   2.038   7.104   4.155 -1.0603 -0.2454  0.6255
   31MOL   H12928989   2.165   7.098   4.425 -1.3320 -1.3096 -0.8687
   31MOL   H13028990   2.049   7.408   4.472 -2.0793 -0.1410 -0.0804
   31MOL   H13128991   2.126   7.277   4.555 -1.1757 -1.8063  0.4174
   31MOL   H13228992   1.831   7.339   4.563  1.0934 -0.0837 -2.2925
   31MOL   H13328993   1.947   7.377   4.697  1.0841  0.7537 -1.1974
   31MOL   H13428994   1.848   7.093   4.612 -2.4353  1.0649  0.5394
   31MOL   H13528995   1.991   7.109   4.682  1.5791  1.3653 -2.9524
   31MOL   H13628996   1.912   7.198   4.893  1.6498  1.4799 -2.1081
   31MOL   H13728997   1.750   7.236   4.820  1.0827  1.2218  0.2399
   31MOL   H13828998   1.729   6.978   4.784 -1.7893 -2.1759  1.3488
   31MOL   H13928999   1.881   6.958   4.859 -0.0426  0.4117  0.8395
   31MOL   H14029000   1.699   6.905   5.018  0.3009  0.1835 -1.3199
   31MOL   H14129001   1.632   7.064   5.003 -0.1745 -0.3934 -1.8033
   31MOL   H14229002   1.877   7.139   5.105 -0.8713  0.3350 -0.2268
   31MOL   H14329003   1.750   7.087   5.208  0.1629  0.1208  0.9131
   31MOL   H14429004   1.825   6.861   5.212  2.1688 -3.2418 -1.3864
   31MOL   H14529005   1.917   6.981   5.303 -1.3177 -0.7468  1.5770
   31MOL   N14629006   2.013   6.751   5.124 -0.5112 -0.6160 -0.1739
   31MOL   C14729007   2.107   6.671   5.051 -0.2591  0.4307  0.2868
   31MOL   C14829008   2.188   6.569   5.129 -0.5169 -0.6818 -0.0543
   31MOL   C14929009   2.171   6.565   5.268  0.3298  0.0451  0.0144
   31MOL   C15029010   2.242   6.467   5.338 -0.1723 -0.8675  0.4529
   31MOL   C15129011   2.331   6.375   5.276 -0.5334  0.0577  0.1111
   31MOL   C15229012   2.352   6.382   5.136 -1.2397 -0.1538 -0.3224
   31MOL   C15329013   2.282   6.485   5.062 -0.0963 -0.1547 -0.2081
   31MOL   C15429014   2.300   6.492   4.912  0.2728 -0.5402 -0.0854
   31MOL   N15529015   2.403   6.413   4.858  0.0635 -0.1496 -0.2919
   31MOL   C15629016   2.416   6.375   4.732 -0.2488  0.5147 -0.7669
   31MOL   O15729017   2.337   6.395   4.642  0.6502 -0.2044  0.3768
   31MOL   C15829018   2.547   6.304   4.698  0.3103 -0.5077  1.3032
   31MOL   C15929019   2.522   6.187   4.601  0.5266  0.0785 -0.3602
   31MOL   C16029020   2.458   6.060   4.652 -0.0582 -0.4944  0.0759
   31MOL   C16129021   2.373   5.978   4.547 -0.5269 -0.1930  0.1634
   31MOL   C16229022   2.244   6.045   4.505 -0.5079 -0.1735 -0.5606
   31MOL   C16329023   2.161   5.946   4.417 -0.4211  0.3476  0.4206
   31MOL   C16429024   2.023   6.007   4.392  0.1231 -0.4586 -0.0826
   31MOL   C16529025   1.945   5.928   4.289  0.1194 -0.4793 -0.7015
   31MOL   C16629026   1.940   5.775   4.319 -0.1862 -0.2662  0.0825
   31MOL   O16729027   1.871   5.732   4.409  0.4864 -0.6312  0.1938
   31MOL   H16829028   1.941   6.703   5.175  0.2908 -1.1135  0.5150
   31MOL   H16929029   2.185   6.728   5.000 -0.5548  0.2140 -0.4206
   31MOL   H17029030   2.038   6.621   4.983  1.0489 -0.2045 -0.5843
   31MOL   H17129031   2.098   6.627   5.317  0.2370 -0.6186  0.7108
   31MOL   H17229032   2.238   6.467   5.446 -0.7563 -0.6718  0.4341
   31MOL   H17329033   2.391   6.311   5.339  0.9277  2.4404  1.2094
   31MOL   H17429034   2.422   6.318   5.085 -2.7438 -1.7007 -0.4966
   31MOL   H17529035   2.311   6.596   4.881 -1.1699 -0.2775  0.2058
   31MOL   H17629036   2.206   6.472   4.860 -1.5944 -0.2795  3.0758
   31MOL   H17729037   2.485   6.398   4.915 -0.1009 -1.2327 -0.3359
   31MOL   H17829038   2.595   6.261   4.786  2.3346  0.7207  0.8323
   31MOL   H17929039   2.605   6.383   4.651 -2.1060  0.5648  0.0557
   31MOL   H18029040   2.612   6.162   4.545 -0.2404 -3.4859 -0.1257
   31MOL   H18129041   2.444   6.227   4.536  0.6930 -0.0414 -0.6340
   31MOL   H18229042   2.535   5.995   4.692 -0.4960 -0.7853  0.4469
   31MOL   H18329043   2.398   6.086   4.739 -0.7127 -0.3771 -0.4001
   31MOL   H18429044   2.439   5.953   4.464 -0.2643 -1.6231  0.7747
   31MOL   H18529045   2.355   5.881   4.594 -0.1802 -0.0763  0.5393
   31MOL   H18629046   2.200   6.082   4.597  0.7782 -0.4854  0.1951
   31MOL   H18729047   2.284   6.124   4.441  1.4374  0.6199  1.5854
   31MOL   H18829048   2.160   5.849   4.465 -0.6805 -0.0620 -0.4055
   31MOL   H18929049   2.205   5.916   4.322 -0.4575  0.2822  0.4248
   31MOL   H19029050   1.965   6.000   4.484 -0.0803  2.3012  0.0242
   31MOL   H19129051   2.027   6.113   4.368 -0.7986 -0.1508  1.0642
   31MOL   H19229052   2.002   5.930   4.197 -0.2845 -1.7206 -0.9822
   31MOL   H19329053   1.847   5.969   4.264 -0.3025 -1.4584 -0.6693
   31MOL   N19429054   2.020   5.699   4.245 -0.1866  0.5016 -0.4135
   31MOL   C19529055   2.028   5.554   4.242  0.2805  0.7562  0.0179
   31MOL   C19629056   2.050   5.500   4.099  0.0233 -0.8015 -0.0768
   31MOL   C19729057   2.030   5.575   3.980  0.2339  0.2287 -0.9126
   31MOL   C19829058   2.041   5.524   3.854 -0.2063  0.1515  0.0614
   31MOL   C19929059   2.083   5.392   3.830 -0.2583  0.3682  0.9444
   31MOL   C20029060   2.094   5.308   3.944  0.2971  0.0057  0.6926
   31MOL   C20129061   2.077   5.363   4.077  0.1734  0.3974 -0.1681
   31MOL   C20229062   2.106   5.283   4.200 -1.0452  0.2310 -0.4063
   31MOL   N20329063   2.145   5.140   4.184 -0.1243  0.5845 -0.5627
   31MOL   C20429064   2.246   5.090   4.260  0.2541 -0.4997 -0.0008
   31MOL   O20529065   2.301   5.153   4.351 -0.0835  0.1260 -0.5519
   31MOL   C20629066   2.287   4.947   4.225  0.3639  0.3423 -0.4538
   31MOL   C20729067   2.425   4.912   4.281 -0.3552 -0.7814  0.5711
   31MOL   C20829068   2.530   4.964   4.185  0.1860 -0.3950  0.2857
   31MOL   C20929069   2.673   4.940   4.238  0.5772  0.7476 -0.1535
   31MOL   C21029070   2.787   4.972   4.130 -0.0426 -1.0541  0.9161
   31MOL   C21129071   2.903   5.058   4.162 -0.8836 -0.2447 -0.0960
   31MOL   C21229072   2.976   5.015   4.294  0.9357  0.0987 -0.0817
   31MOL   C21329073   2.925   5.065   4.427  0.0541  0.5275  0.1120
   31MOL   C21429074   3.032   5.075   4.532  0.1526 -0.3369  0.5858
   31MOL   O21529075   3.153   5.053   4.506 -0.2129 -0.0399  0.0547
   31MOL   H21629076   2.081   5.740   4.175  0.7349 -0.5904 -0.2761
   31MOL   H21729077   2.111   5.526   4.307  0.0206 -0.9079 -0.3560
   31MOL   H21829078   1.945   5.508   4.296 -0.0779 -0.9398 -1.9088
   31MOL   H21929079   1.998   5.678   3.976 -2.0378 -0.3251  1.3325
   31MOL   H22029080   2.025   5.592   3.771 -2.4381 -1.4397 -0.8771
   31MOL   H22129081   2.101   5.365   3.727  1.4903  1.5431  0.9188
   31MOL   H22229082   2.136   5.209   3.930  0.8549  0.6258 -2.4845
   31MOL   H22329083   2.022   5.284   4.269 -0.4285 -0.3472  0.3707
   31MOL   H22429084   2.194   5.336   4.237  0.8255 -2.1549 -1.3056
   31MOL   H22529085   2.097   5.082   4.117  0.1685 -0.7776  0.3977
   31MOL   H22629086   2.288   4.938   4.117 -0.8005 -0.2253 -0.4204
   31MOL   H22729087   2.208   4.881   4.261  0.8174  0.7722  1.4101
   31MOL   H22829088   2.443   4.948   4.382 -1.0268  0.6035  0.2184
   31MOL   H22929089   2.416   4.806   4.302  0.1992 -1.2203 -1.3597
   31MOL   H23029090   2.516   4.913   4.090  0.7567  0.1859 -0.1147
   31MOL   H23129091   2.524   5.068   4.154  2.6026 -0.4846 -0.6353
   31MOL   H23229092   2.682   4.985   4.337 -0.2026  2.2218 -0.7270
   31MOL   H23329093   2.682   4.836   4.267 -0.7316  1.2811  2.3489
   31MOL   H23429094   2.821   4.871   4.107 -0.9118 -1.1314 -0.0775
   31MOL   H23529095   2.745   5.000   4.033  0.2493 -2.0072  0.5102
   31MOL   H23629096   2.873   5.162   4.177  1.0238  0.5053 -1.2358
   31MOL   H23729097   2.974   5.062   4.079 -0.4035 -2.0113  0.2046
   31MOL   H23829098   3.085   5.028   4.288  1.6469 -4.9119 -0.2647
   31MOL   H23929099   2.951   4.909   4.291 -0.9547  0.5213  0.1997
   31MOL   H24029100   2.901   5.171   4.416  1.3790  0.6564 -1.8188
   31MOL   H24129101   2.844   5.007   4.470 -1.8866  1.2183 -2.4534
   31MOL   N24229102   2.986   5.104   4.655  0.0557 -0.2908 -0.3996
   31MOL   C24329103   3.065   5.133   4.767 -0.5458 -0.0089  0.3912
   31MOL   C24429104   2.990   5.227   4.863  0.8958  0.3908  0.1099
   31MOL   C24529105   2.954   5.180   4.989 -0.2605 -0.0578 -0.0882
   31MOL   C24629106   2.877   5.256   5.076  0.6643  0.4836 -0.0675
   31MOL   C24729107   2.854   5.394   5.051 -0.5725 -0.5135 -0.1290
   31MOL   C24829108   2.893   5.445   4.927  0.0416 -0.3569 -1.1691
   31MOL   C24929109   2.960   5.367   4.837 -0.4967  0.2666 -0.7940
   31MOL   C25029110   2.992   5.424   4.705 -0.7936 -0.3209 -0.2261
   31MOL   N25129111   3.136   5.430   4.688  0.1871  0.0814  1.0684
   31MOL   C25229112   3.182   5.448   4.562 -0.5054 -0.6637 -0.3166
   31MOL   O25329113   3.109   5.442   4.464 -0.1135  0.2659  0.1711
   31MOL   C25429114   3.333   5.448   4.543  0.1982  0.1679  0.4630
   31MOL   C25529115   3.384   5.558   4.445 -0.0081  0.6562  0.2212
   31MOL   C25629116   3.391   5.703   4.505 -0.7054  0.0633 -0.9059
   31MOL   C25729117   3.494   5.798   4.430  1.2806  0.4565  0.1275
   31MOL   C25829118   3.520   5.930   4.496  0.4611 -0.5292  0.1048
   31MOL   C25929119   3.630   6.015   4.424 -0.2564  0.6999  0.2166
   31MOL   C26029120   3.680   6.140   4.500  0.1266 -0.1791  0.3130
   31MOL   C26129121   3.791   6.222   4.427 -0.0461  0.1711 -0.2423
   31MOL   C26229122   3.777   6.241   4.280 -0.3855  0.1525 -0.0265
   31MOL   O26329123   3.692   6.320   4.237  0.4576  0.4150 -0.4136
   31MOL   H26429124   2.889   5.114   4.679 -0.2943 -1.3757 -1.3009
   31MOL   H26529125   3.100   5.042   4.816 -0.5784  0.6669  1.6817
   31MOL   H26629126   3.151   5.189   4.731 -0.6806 -0.5420 -0.7743
   31MOL   H26729127   2.958   5.073   5.007  0.5383  0.5248  3.5165
   31MOL   H26829128   2.848   5.214   5.171  1.5190  1.2617  0.5494
   31MOL   H26929129   2.825   5.455   5.134  1.7945  0.7977 -0.2269
   31MOL   H27029130   2.873   5.549   4.906  0.8628  0.0848  0.1388
   31MOL   H27129131   2.946   5.521   4.682  1.8797  0.4808 -2.4283
   31MOL   H27229132   2.947   5.357   4.632 -0.6376  0.7510 -1.3179
   31MOL   H27329133   3.201   5.421   4.765  1.5752  0.8727  0.0347
   31MOL   H27429134   3.340   5.347   4.502 -1.9955  0.5795 -0.9536
   31MOL   H27529135   3.370   5.464   4.644 -1.1870 -0.5649  1.0962
   31MOL   H27629136   3.318   5.570   4.359  1.3441  2.2706 -0.6101
   31MOL   H27729137   3.477   5.518   4.404 -0.7746  0.3051 -1.2149
   31MOL   H27829138   3.424   5.695   4.608 -2.0571 -1.1969 -0.5602
   31MOL   H27929139   3.293   5.750   4.508 -0.5829  0.3713 -1.5370
   31MOL   H28029140   3.588   5.743   4.440  1.7177  1.3342  0.9079
   31MOL   H28129141   3.461   5.808   4.327 -0.2206  1.2997  0.6830
   31MOL   H28229142   3.426   5.982   4.513  1.1188  0.6882  0.0706
   31MOL   H28329143   3.546   5.912   4.600  1.4046 -1.0518 -0.2167
   31MOL   H28429144   3.593   6.034   4.323  0.3654  2.5047  0.3150
   31MOL   H28529145   3.713   5.946   4.418 -1.6562 -0.8183 -2.6075
   31MOL   H28629146   3.600   6.210   4.524 -1.1223 -0.2832 -3.2732
   31MOL   H28729147   3.730   6.102   4.589  0.0254  0.0533  0.4702
   31MOL   H28829148   3.799   6.315   4.483  0.2101  0.1512 -0.2442
   31MOL   H28929149   3.888   6.172   4.432  0.4321  1.0883 -0.2622
   31MOL   N29029150   3.854   6.173   4.198 -0.2591 -0.1081  0.1871
   31MOL   C29129151   3.872   6.201   4.056 -0.3664 -0.1137  0.1503
   31MOL   C29229152   3.893   6.073   3.974  0.0747 -0.7267 -0.1975
   31MOL   C29329153   4.022   6.060   3.909 -0.5024 -0.2159 -0.1059
   31MOL   C29429154   4.063   5.941   3.847  0.3980 -0.1457 -0.0784
   31MOL   C29529155   3.972   5.829   3.845  0.6948  0.1387 -0.4331
   31MOL   C29629156   3.851   5.842   3.911 -0.1040 -0.6513 -0.1581
   31MOL   C29729157   3.806   5.961   3.976 -0.1816  0.8186  0.2160
   31MOL   C29829158   3.675   5.958   4.057  0.1878  0.1149 -0.1389
   31MOL   N29929159   3.561   5.892   3.995  0.0024  0.1696  0.1048
   31MOL   C30029160   3.523   5.766   4.025 -0.1022  0.5298  1.3515
   31MOL   O30129161   3.567   5.690   4.117  0.3689 -0.3879 -0.0560
   31MOL   C30229162   3.398   5.719   3.951  0.5134  0.7062 -0.0944
   31MOL   C30329163   3.447   5.623   3.832  0.1989  0.1217  0.3075
   31MOL   C30429164   3.345   5.621   3.713 -0.2437  0.5865 -0.6264
   31MOL   C30529165   3.202   5.559   3.738 -1.0577 -0.6530  0.3526
   31MOL   C30629166   3.101   5.602   3.634 -0.1454  0.8205 -0.7856
   31MOL   C30729167   3.019   5.722   3.689  0.2622 -0.5545 -0.4364
   31MOL   C30829168   2.891   5.766   3.617 -0.3744 -0.3290  0.7003
   31MOL   C30929169   2.770   5.667   3.645 -0.9484  0.0219  0.3077
   31MOL   C31029170   2.711   5.701   3.783 -0.1256 -0.2105 -0.1153
   31MOL   O31129171   2.628   5.792   3.791  0.8395 -0.1191  0.1167
   31MOL   H31229172   3.914   6.100   4.235  2.2730  0.9704 -1.6439
   31MOL   H31329173   3.788   6.266   4.028  1.0444  1.4906 -0.4610
   31MOL   H31429174   3.960   6.264   4.041 -0.3569  0.1884  1.4415
   31MOL   H31529175   4.085   6.147   3.897 -0.3002 -0.5064 -1.1967
   31MOL   H31629176   4.159   5.944   3.797  0.2178  1.2220 -0.3727
   31MOL   H31729177   3.990   5.734   3.796 -0.7835 -0.6405  0.5153
   31MOL   H31829178   3.782   5.759   3.918 -2.3181  1.2205  1.1410
   31MOL   H31929179   3.634   6.055   4.083  1.4088  0.1974  1.5834
   31MOL   H32029180   3.707   5.895   4.141  0.4989  0.3270 -0.0957
   31MOL   H32129181   3.517   5.939   3.917  0.7105 -1.7288 -1.4778
   31MOL   H32229182   3.337   5.669   4.026  2.0516 -0.4452  0.3937
   31MOL   H32329183   3.341   5.800   3.904 -1.3959  0.1985  1.3184
   31MOL   H32429184   3.464   5.527   3.881  0.2171 -0.6947 -1.2325
   31MOL   H32529185   3.543   5.644   3.785 -1.5039  0.6642 -3.0891
   31MOL   H32629186   3.387   5.589   3.617 -0.1769  2.0457 -1.1072
   31MOL   H32729187   3.325   5.726   3.691 -0.0833  0.2369 -2.5142
   31MOL   H32829188   3.225   5.454   3.719  2.5966  0.3944 -1.7294
   31MOL   H32929189   3.163   5.560   3.840  0.2827 -1.9701  0.8962
   31MOL   H33029190   3.145   5.635   3.540 -0.8029 -0.1306 -1.4382
   31MOL   H33129191   3.034   5.520   3.608  0.5063  0.8698 -2.6866
   31MOL   H33229192   3.092   5.802   3.675  0.5235 -0.0811  3.2775
   31MOL   H33329193   3.004   5.717   3.797  1.5967  0.5089 -0.1861
   31MOL   H33429194   2.854   5.866   3.638 -3.8079 -1.5923  1.1295
   31MOL   H33529195   2.906   5.770   3.509  1.0366  0.2029  0.9091
   31MOL   H33629196   2.691   5.684   3.572  0.9825 -0.2288 -1.9121
   31MOL   H33729197   2.808   5.565   3.645  1.3786  0.8406  3.0053
   31MOL   N33829198   2.755   5.634   3.892  0.9221  0.6491  0.0270
   31MOL   C33929199   2.712   5.651   4.027  0.5856 -0.2445 -0.6406
   31MOL   C34029200   2.823   5.715   4.105  0.1552  0.1765  0.2425
   31MOL   C34129201   2.820   5.851   4.132  0.3281 -0.3754  0.1933
   31MOL   C34229202   2.921   5.916   4.209  0.7934  0.5306  0.4060
   31MOL   C34329203   3.025   5.838   4.271 -0.7162 -0.0962  0.3795
   31MOL   C34429204   3.015   5.697   4.257 -0.3592  0.3915  0.0417
   31MOL   C34529205   2.924   5.634   4.173 -0.2334 -0.0586  0.6561
   31MOL   C34629206   2.933   5.480   4.132  0.4207  0.0866  0.0547
   31MOL   N34729207   3.063   5.424   4.178  0.2527 -0.4544  0.7801
   31MOL   C34829208   3.131   5.324   4.120  0.1870 -0.1409  0.2130
   31MOL   O34929209   3.101   5.274   4.008  0.3109 -0.2850 -0.2545
   31MOL   C35029210   3.260   5.273   4.190  0.4954  0.0754  0.5994
   31MOL   C35129211   3.382   5.274   4.107  0.5528  0.6406  0.2297
   31MOL   C35229212   3.404   5.149   4.016  0.6619 -0.2716 -0.1083
   31MOL   C35329213   3.535   5.165   3.938  0.0615  0.1368 -0.7119
   31MOL   C35429214   3.525   5.235   3.797  0.1540 -0.2550  0.1523
   31MOL   C35529215   3.439   5.162   3.699 -0.0631  0.4493 -0.0855
   31MOL   C35629216   3.453   5.193   3.549 -1.0550 -0.4196 -0.3848
   31MOL   C35729217   3.353   5.112   3.461  0.1583 -0.0113 -0.1484
   31MOL   C35829218   3.359   5.156   3.319  0.5711 -0.0135 -0.1013
   31MOL   O35929219   3.295   5.260   3.295 -0.0214  0.6436 -0.4508
   31MOL   H36029220   2.802   5.547   3.870 -2.1295 -1.2377  0.7522
   31MOL   H36129221   2.629   5.721   4.034 -1.1664 -2.5876  3.4109
   31MOL   H36229222   2.677   5.562   4.079  1.6715  0.6303  1.6331
   31MOL   H36329223   2.742   5.913   4.091  1.9576  2.1735  0.8531
   31MOL   H36429224   2.932   6.021   4.227 -0.5418  0.7387  0.0330
   31MOL   H36529225   3.109   5.880   4.326  1.4457 -2.3438 -1.1189
   31MOL   H36629226   3.085   5.632   4.308  2.9975  2.3318 -1.8969
   31MOL   H36729227   2.925   5.450   4.027  0.1326  0.2793  0.0224
   31MOL   H36829228   2.858   5.419   4.183  2.1871 -0.7186  1.7172
   31MOL   H36929229   3.089   5.454   4.271  0.8023 -0.8788  0.7635
   31MOL   H37029230   3.245   5.171   4.225  1.4498 -0.1786  0.2848
   31MOL   H37129231   3.288   5.320   4.284 -2.1245  0.8632  1.0313
   31MOL   H37229232   3.469   5.289   4.171 -0.0607  0.1142  1.2141
   31MOL   H37329233   3.388   5.365   4.048  0.1900  0.2315 -0.4430
   31MOL   H37429234   3.416   5.060   4.077 -1.6867 -1.1662 -0.8780
   31MOL   H37529235   3.316   5.134   3.953 -0.7638 -1.0150  2.0168
   31MOL   H37629236   3.572   5.065   3.919  0.6928  0.4317 -1.0510
   31MOL   H37729237   3.610   5.206   4.006 -0.3277 -0.8096  0.2980
   31MOL   H37829238   3.484   5.336   3.801  0.2659 -0.2632  1.7334
   31MOL   H37929239   3.625   5.245   3.755  0.3426 -1.1117  0.3920
   31MOL   H38029240   3.338   5.189   3.731  0.2449 -0.0170  1.3020
   31MOL   H38129241   3.440   5.056   3.725  0.8473  0.1292 -1.3555
   31MOL   H38229242   3.422   5.296   3.532 -2.4322 -1.0524 -1.7896
   31MOL   H38329243   3.553   5.180   3.509 -1.3260  1.0837 -1.5741
   31MOL   H38429244   3.248   5.113   3.491 -0.1367  1.3491 -1.2332
   31MOL   H38529245   3.369   5.004   3.467 -0.8355 -0.2339 -1.3846
   31MOL   N38629246   3.413   5.076   3.226 -0.5378 -0.7908 -0.0707
   31MOL   C38729247   3.427   5.105   3.080  0.0550  0.1971 -0.4968
   31MOL   C38829248   3.295   5.067   3.001 -0.9354  0.0452  0.5405
   31MOL   C38929249   3.262   4.929   2.996 -0.9596 -0.2713  0.4479
   31MOL   C39029250   3.149   4.880   2.933 -0.2216 -0.5731  0.3210
   31MOL   C39129251   3.054   4.974   2.883 -0.1441 -0.4833 -0.6274
   31MOL   C39229252   3.082   5.115   2.889 -0.1729 -0.2463 -0.3852
   31MOL   C39329253   3.207   5.161   2.946  0.1673 -0.0341  0.0431
   31MOL   C39429254   3.240   5.308   2.951  0.4996  0.2705  0.3039
   31MOL   N39529255   3.184   5.356   3.079 -0.8250 -0.9807 -0.5388
   31MOL   C39629256   3.103   5.463   3.081  0.4491 -0.1919 -0.0589
   31MOL   O39729257   3.067   5.530   2.983  0.1796  0.5518  0.0292
   31MOL   C39829258   3.041   5.487   3.217  0.7459  0.4321  0.3238
   31MOL   C39929259   2.888   5.520   3.215 -0.3938  0.3138  0.9111
   31MOL   C40029260   2.794   5.395   3.203 -0.5329  0.0899 -1.1258
   31MOL   C40129261   2.777   5.349   3.059  0.1310 -0.9984  0.5892
   31MOL   C40229262   2.679   5.223   3.042  0.0263 -0.1410  0.0089
   31MOL   C40329263   2.622   5.206   2.901  0.5234  0.0722  0.7360
   31MOL   C40429264   2.738   5.160   2.810 -0.2111  0.1598  0.2947
   31MOL   C40529265   2.699   5.115   2.671 -0.3126  0.1517 -0.8726
   31MOL   C40629266   2.672   4.967   2.657  0.0310  0.1578  0.4157
   31MOL   O40729267   2.761   4.889   2.674  0.4269 -0.0307  0.2667
   31MOL   H40829268   3.468   4.995   3.250  1.6145  0.3159 -1.0771
   31MOL   H40929269   3.467   5.206   3.071  0.7718 -0.1385 -1.1736
   31MOL   H41029270   3.502   5.038   3.037 -0.1634  0.9690 -2.1342
   31MOL   H41129271   3.332   4.860   3.040 -0.7957  0.0738  0.7403
   31MOL   H41229272   3.132   4.774   2.922 -1.3135 -0.2588 -1.2230
   31MOL   H41329273   2.958   4.936   2.853 -0.4751 -0.6544  0.6497
   31MOL   H41429274   3.013   5.191   2.858 -0.8084  0.6235  3.0009
   31MOL   H41529275   3.182   5.354   2.871  2.0518 -0.5492 -1.3369
   31MOL   H41629276   3.349   5.319   2.955  0.4272  0.5843  1.7628
   31MOL   H41729277   3.204   5.306   3.164 -0.4047 -0.9812 -0.6351
   31MOL   H41829278   3.048   5.404   3.288 -0.9102 -0.5572 -0.6449
   31MOL   H41929279   3.096   5.572   3.258  1.0879  0.4127 -0.0892
   31MOL   H42029280   2.871   5.589   3.133  0.4212  0.4837  0.8754
   31MOL   H42129281   2.860   5.575   3.305  0.8425  0.5440  1.1786
   31MOL   H42229282   2.700   5.428   3.247  0.8187  0.6521  1.4532
   31MOL   H42329283   2.832   5.318   3.270  1.4064  0.0287 -2.2756
   31MOL   H42429284   2.733   5.435   3.008  1.2144  0.2435  1.7124
   31MOL   H42529285   2.874   5.321   3.018 -0.5533  1.4504 -2.9119
   31MOL   H42629286   2.735   5.135   3.071  0.9634 -0.0237 -1.3954
   31MOL   H42729287   2.598   5.228   3.114  1.3284 -0.6370  1.5362
   31MOL   H42829288   2.589   5.300   2.857 -0.6639 -0.7059 -0.0819
   31MOL   H42929289   2.533   5.144   2.905  0.9982 -0.7973 -1.4139
   31MOL   H43029290   2.792   5.082   2.863 -0.7351  0.6118  1.5106
   31MOL   H43129291   2.813   5.239   2.798  0.4921 -0.3939  1.0600
   31MOL   H43229292   2.773   5.136   2.595 -0.5154  0.2976 -1.0309
   31MOL   H43329293   2.619   5.184   2.644  0.7183  1.8870  0.3794
   31MOL   N43429294   2.548   4.940   2.613  0.0257  0.5343 -0.2097
   31MOL   C43529295   2.517   4.815   2.542  0.3019  0.3336  0.6295
   31MOL   C43629296   2.482   4.852   2.395 -0.4234  0.1281 -0.6939
   31MOL   C43729297   2.358   4.922   2.372  0.0120 -0.6255  0.0698
   31MOL   C43829298   2.321   4.956   2.238  0.2382  0.4226 -0.3731
   31MOL   C43929299   2.399   4.907   2.130 -0.2737  0.7411 -0.6190
   31MOL   C44029300   2.529   4.854   2.155  0.6045 -0.4701  0.5359
   31MOL   C44129301   2.571   4.829   2.284  0.8494 -0.2027  0.0597
   31MOL   C44229302   2.707   4.760   2.291  0.6169 -0.2948  0.0327
   31MOL   N44329303   2.698   4.624   2.252 -0.3216 -0.0103  0.4061
   31MOL   C44429304   2.739   4.567   2.137 -0.0769  0.1676 -0.1211
   31MOL   O44529305   2.796   4.629   2.049  0.1416 -0.2572  0.3064
   31MOL   C44629306   2.699   4.419   2.115 -0.2709 -0.2931 -0.3704
   31MOL   C44729307   2.629   4.373   1.983 -0.1920 -0.8715 -0.0091
   31MOL   C44829308   2.637   4.217   1.969 -0.0610  0.1595  0.8886
   31MOL   C44929309   2.538   4.154   2.068 -0.3575 -0.2621  0.1403
   31MOL   C45029310   2.493   4.016   2.009 -0.6505 -0.2127  0.1276
   31MOL   C45129311   2.402   3.942   2.107  0.1781 -0.4119  1.4327
   31MOL   C45229312   2.358   3.798   2.064 -0.2426 -0.1003  0.1536
   31MOL   C45329313   2.239   3.739   2.139  0.3050  0.1463  0.4561
   31MOL   C45429314   2.226   3.584   2.125  0.6771 -0.4690  0.0316
   31MOL   O45529315   2.199   3.518   2.230  0.9221 -0.3016 -0.0608
   31MOL   H45629316   2.492   5.019   2.585 -0.5057 -0.0298 -0.7384
   31MOL   H45729317   2.427   4.767   2.581 -0.6813  0.9295 -0.8725
   31MOL   H45829318   2.592   4.737   2.556 -0.9129 -0.4877  2.7822
   31MOL   H45929319   2.293   4.952   2.453 -1.3288 -0.9993 -0.8458
   31MOL   H46029320   2.229   5.009   2.222 -1.1416 -1.2494  1.7595
   31MOL   H46129321   2.366   4.915   2.027  2.0744  2.0714 -1.3062
   31MOL   H46229322   2.588   4.813   2.074 -0.0081 -2.3299  0.9921
   31MOL   H46329323   2.739   4.753   2.394 -0.2944 -3.5052  0.1558
   31MOL   H46429324   2.776   4.816   2.228  1.2023  0.9067  1.7239
   31MOL   H46529325   2.648   4.561   2.313  0.9235 -0.3125  1.1371
   31MOL   H46629326   2.662   4.381   2.210  0.8828  4.5868  2.1635
   31MOL   H46729327   2.791   4.361   2.113 -0.1924 -0.1370 -1.2712
   31MOL   H46829328   2.666   4.428   1.897 -0.5785  1.1008  1.0473
   31MOL   H46929329   2.525   4.406   1.983  0.4784  1.3513 -1.1320
   31MOL   H47029330   2.607   4.198   1.866 -1.4355  0.6700  1.1778
   31MOL   H47129331   2.740   4.187   1.984 -0.2090 -0.7190  0.1667
   31MOL   H47229332   2.581   4.145   2.168 -0.0982 -0.6959 -0.0108
   31MOL   H47329333   2.445   4.209   2.078 -0.8547 -1.0121 -0.3651
   31MOL   H47429334   2.444   4.025   1.912 -0.9106 -1.1714  0.1709
   31MOL   H47529335   2.576   3.951   1.983 -1.4367 -2.2221  2.5146
   31MOL   H47629336   2.308   3.996   2.120  1.4065  1.8985  0.8628
   31MOL   H47729337   2.437   3.957   2.209 -1.8750 -0.8027  2.2119
   31MOL   H47829338   2.332   3.792   1.959 -2.7551 -3.9327  0.8807
   31MOL   H47929339   2.444   3.734   2.082  0.5612  0.9477  0.0723
   31MOL   H48029340   2.235   3.767   2.245 -1.7359 -0.2753  0.5105
   31MOL   H48129341   2.145   3.786   2.113  2.0139  1.6121 -3.4578
   31MOL   N48229342   2.249   3.534   2.005  0.6758  0.4314  0.1340
   31MOL   C48329343   2.219   3.394   1.979  0.4148 -0.9655 -0.4675
   31MOL   C48429344   2.339   3.296   1.983 -0.3823 -0.0781 -0.8401
   31MOL   C48529345   2.452   3.319   1.909 -0.2300  0.2253  0.5166
   31MOL   C48629346   2.563   3.229   1.915 -0.4301 -0.0301 -0.2587
   31MOL   C48729347   2.563   3.121   2.003  0.1968 -0.1603  0.1578
   31MOL   C48829348   2.454   3.095   2.086 -0.0291 -0.4934  0.3226
   31MOL   C48929349   2.338   3.181   2.077  0.7359 -0.3258 -0.0416
   31MOL   C49029350   2.221   3.141   2.165  0.4352 -0.4366 -0.1228
   31MOL   N49129351   2.216   3.229   2.274 -0.2929 -1.0279 -0.1143
   31MOL   C49229352   2.241   3.200   2.400  0.7364 -0.6869  0.0464
   31MOL   O49329353   2.285   3.092   2.443 -0.4462  0.3772  1.0038
   31MOL   C49429354   2.213   3.310   2.499 -0.4391 -0.2769 -0.5533
   31MOL   C49529355   2.192   3.258   2.646  0.6934  0.5090  0.5482
   31MOL   C49629356   2.110   3.355   2.737  0.1821 -0.2612 -0.7241
   31MOL   C49729357   2.059   3.278   2.857 -0.6160 -0.1235 -0.3334
   31MOL   C49829358   1.998   3.361   2.971 -0.0757 -0.5708  0.3825
   31MOL   C49929359   1.860   3.428   2.933 -0.4619 -0.2841 -0.4636
   31MOL   C50029360   1.801   3.491   3.060  0.0538 -0.0986 -0.9245
   31MOL   C50129361   1.721   3.613   3.034  0.7705  0.0114 -0.0995
   31MOL   C50229362   1.796   3.734   2.984 -0.0270  0.2685  0.0522
   31MOL   O50329363   1.858   3.806   3.062 -0.7842 -0.0911  0.2026
   31MOL   H50429364   2.259   3.591   1.922 -2.4127 -0.9021 -1.2338
   31MOL   H50529365   2.131   3.362   2.034  0.7007 -0.8774  0.0399
   31MOL   H50629366   2.179   3.386   1.878 -0.4758  0.7797 -0.2638
   31MOL   H50729367   2.470   3.407   1.849 -1.9032 -0.1294 -0.5460
   31MOL   H50829368   2.645   3.254   1.850 -0.0557 -1.3141 -0.2917
   31MOL   H50929369   2.650   3.060   2.017 -0.5668 -1.4692 -0.6861
   31MOL   H51029370   2.462   3.013   2.156 -1.6583 -1.4700 -0.5852
   31MOL   H51129371   2.226   3.034   2.186 -0.1230 -0.7036 -1.2643
   31MOL   H51229372   2.125   3.149   2.114 -0.2807  0.5096  1.3619
   31MOL   H51329373   2.200   3.323   2.242  0.9237 -0.8883 -0.3113
   31MOL   H51429374   2.115   3.352   2.474 -1.4042 -2.1803 -0.0672
   31MOL   H51529375   2.284   3.392   2.496 -0.7636  0.1249  1.5429
   31MOL   H51629376   2.288   3.240   2.694 -0.0779 -0.3945  1.8111
   31MOL   H51729377   2.133   3.166   2.650 -0.5478  1.2633 -0.0405
   31MOL   H51829378   2.172   3.438   2.769 -1.6665  0.3393  1.4430
   31MOL   H51929379   2.026   3.402   2.687 -0.5477  2.4885  2.9046
   31MOL   H52029380   1.980   3.208   2.832 -1.5967  1.3033 -1.2531
   31MOL   H52129381   2.144   3.217   2.891  0.4338  0.2202 -2.2923
   31MOL   H52229382   1.981   3.297   3.057 -0.2462 -2.2301 -0.8616
   31MOL   H52329383   2.071   3.432   3.009  0.6668  0.2638 -2.4639
   31MOL   H52429384   1.792   3.361   2.881 -0.6902 -1.1416  0.9078
   31MOL   H52529385   1.894   3.499   2.858 -3.1554 -1.6162 -3.0307
   31MOL   H52629386   1.737   3.413   3.102  0.1582  0.2599 -0.1069
   31MOL   H52729387   1.868   3.508   3.144 -0.0457 -2.9354 -0.2264
   31MOL   H52829388   1.672   3.639   3.128  1.1169  0.5263 -0.0602
   31MOL   H52929389   1.641   3.590   2.963  3.1900 -0.0660 -2.9232
   31MOL   N53029390   1.794   3.747   2.854 -0.1937 -0.4465  0.2796
   31MOL   C53129391   1.874   3.841   2.791 -0.2963  0.5264  0.2318
   31MOL   C53229392   1.895   3.809   2.650  1.0200 -0.4387  0.2637
   31MOL   C53329393   1.992   3.715   2.617  0.0902  0.6122 -0.2149
   31MOL   C53429394   2.021   3.687   2.480  0.9592  0.4380 -0.3473
   31MOL   C53529395   1.949   3.763   2.385  0.2350 -0.4078  0.2542
   31MOL   C53629396   1.840   3.842   2.422  0.4274  0.2764 -0.9383
   31MOL   C53729397   1.811   3.864   2.553  0.3791  0.4910 -0.2911
   31MOL   C53829398   1.708   3.976   2.579 -0.0128 -0.3731 -0.1597
   31MOL   N53929399   1.773   4.098   2.528 -0.6244 -0.4855  0.6160
   31MOL   C54029400   1.817   4.203   2.600 -0.7761  0.3581 -0.3984
   31MOL   O54129401   1.811   4.192   2.721 -0.3954  0.2856 -0.7325
   31MOL   C54229402   1.868   4.332   2.526  0.2126 -0.4770  0.0517
   31MOL   C54329403   1.878   4.462   2.608  0.2902 -0.4286  0.1314
   31MOL   C54429404   1.948   4.571   2.528 -0.0028 -0.2983 -0.2098
   31MOL   C54529405   1.961   4.710   2.592  0.4616  0.0144 -0.1222
   31MOL   C54629406   2.097   4.746   2.644  0.1732 -0.8392 -0.2476
   31MOL   C54729407   2.104   4.898   2.688  0.2763  0.1841 -0.1340
   31MOL   C54829408   2.221   4.939   2.781  0.4894 -0.3482  0.0768
   31MOL   C54929409   2.245   5.089   2.794 -0.0786  0.0667  0.6690
   31MOL   C55029410   2.275   5.182   2.680  0.0292  0.4039 -0.2489
   31MOL   O55129411   2.359   5.151   2.595  0.4088 -0.0336  0.0504
   31MOL   H55229412   1.731   3.698   2.792 -0.3984 -0.9319  0.8537
   31MOL   H55329413   1.972   3.829   2.838 -0.0849  4.3513  0.9510
   31MOL   H55429414   1.835   3.941   2.810 -0.1613  0.9474 -1.6941
   31MOL   H55529415   2.037   3.660   2.699 -1.8160  0.4189  0.7334
   31MOL   H55629416   2.094   3.613   2.451 -0.4382  0.1028 -3.0915
   31MOL   H55729417   1.980   3.750   2.283  1.8896 -0.3086  0.7267
   31MOL   H55829418   1.786   3.889   2.341 -0.4637 -0.1780 -0.6027
   31MOL   H55929419   1.667   3.983   2.680  0.2965 -0.7910 -0.0037
   31MOL   H56029420   1.626   3.956   2.511  0.2938 -1.0599 -0.3303
   31MOL   H56129421   1.797   4.100   2.430  2.5195 -0.8942  1.3320
   31MOL   H56229422   1.801   4.338   2.441  0.6925 -1.4599 -0.3990
   31MOL   H56329423   1.963   4.302   2.483  0.1010 -0.6984 -0.0366
   31MOL   H56429424   1.937   4.445   2.698 -1.6418  3.0933  2.1947
   31MOL   H56529425   1.783   4.507   2.636  0.2984  0.9216 -1.8976
   31MOL   H56629426   2.050   4.542   2.506  0.5753  1.6293 -0.1122
   31MOL   H56729427   1.887   4.595   2.441 -1.4808  0.3752  0.9910
   31MOL   H56829428   1.938   4.784   2.516  1.5226  0.7786  0.2782
   31MOL   H56929429   1.885   4.725   2.668  1.2915 -3.2394  1.4680
   31MOL   H57029430   2.112   4.682   2.731 -1.5936 -0.8967  0.0423
   31MOL   H57129431   2.177   4.719   2.575 -0.4603  1.8748 -2.1537
   31MOL   H57229432   2.006   4.924   2.727  0.4832 -0.6650  0.9855
   31MOL   H57329433   2.100   4.948   2.591  1.6261 -0.1721 -0.3892
   31MOL   H57429434   2.194   4.900   2.879 -2.2890 -0.3953 -0.6689
   31MOL   H57529435   2.317   4.894   2.753  1.0451  1.2722 -0.6813
   31MOL   H57629436   2.327   5.096   2.866  0.6441 -0.9032 -0.0466
   31MOL   H57729437   2.161   5.129   2.852 -1.0779 -1.1280  0.0688
   31MOL   N57829438   2.213   5.302   2.675 -0.0345 -0.4186  0.1230
   31MOL   C57929439   2.178   5.366   2.545  0.8783  0.2414 -0.0153
   31MOL   C58029440   2.089   5.281   2.452  0.3231 -0.9352  0.5551
   31MOL   C58129441   1.972   5.228   2.510 -0.5426 -0.0631  1.1112
   31MOL   C58229442   1.881   5.161   2.428 -0.4337  0.8159  0.5380
   31MOL   C58329443   1.905   5.142   2.291 -0.6944 -0.1373 -0.6228
   31MOL   C58429444   2.030   5.192   2.238 -0.1511 -0.7257 -0.3750
   31MOL   C58529445   2.123   5.267   2.314  0.2821 -0.2450  0.1427
   31MOL   C58629446   2.240   5.329   2.244 -0.8216 -0.2906  0.2811
   31MOL   N58729447   2.372   5.271   2.285 -0.5572  0.1407  0.4711
   31MOL   C58829448   2.488   5.312   2.234 -0.2942 -0.0003  0.3289
   31MOL   O58929449   2.492   5.368   2.123  0.1261 -0.1619 -0.0492
   31MOL   C59029450   2.612   5.304   2.329 -0.5226 -0.0838  0.0953
   31MOL   C59129451   2.641   5.429   2.419 -0.2094 -0.4310 -0.1882
   31MOL   C59229452   2.540   5.470   2.519 -0.1568 -0.3372  0.1455
   31MOL   C59329453   2.576   5.613   2.579 -0.1677 -0.1126  0.2140
   31MOL   C59429454   2.502   5.637   2.713 -0.1964 -0.5358  0.7146
   31MOL   C59529455   2.502   5.791   2.753  1.3752  0.8253  0.2065
   31MOL   C59629456   2.632   5.859   2.784 -0.2979  0.0814  0.0330
   31MOL   C59729457   2.700   5.797   2.906  0.0422 -0.0503 -1.0154
   31MOL   C59829458   2.814   5.878   2.963  0.3778 -0.0215  0.2782
   31MOL   O59929459   2.796   5.994   2.991 -0.6330  0.2215 -0.2441
   31MOL   H60029460   2.170   5.342   2.758  1.1499  0.0131  0.5256
   31MOL   H60129461   2.273   5.388   2.497 -0.2310  0.3137 -2.2660
   31MOL   H60229462   2.140   5.467   2.558  0.3020 -0.1810  1.7693
   31MOL   H60329463   1.943   5.255   2.610  3.3537  0.5892  2.1529
   31MOL   H60429464   1.781   5.131   2.456 -0.2793 -0.5580 -0.4009
   31MOL   H60529465   1.838   5.084   2.229  0.4029 -1.2825 -0.7522
   31MOL   H60629466   2.045   5.188   2.131  0.3814  1.2914 -0.4009
   31MOL   H60729467   2.237   5.433   2.274  2.3539 -0.6791  2.2432
   31MOL   H60829468   2.224   5.332   2.137 -1.9451  0.4035  0.4659
   31MOL   H60929469   2.379   5.215   2.369  0.8326 -0.1923  0.1496
   31MOL   H61029470   2.699   5.281   2.267  1.0491 -2.9127  3.2185
   31MOL   H61129471   2.602   5.220   2.397 -1.9190 -0.1610 -0.1937
   31MOL   H61229472   2.660   5.512   2.352  1.0218 -1.3877 -1.0524
   31MOL   H61329473   2.737   5.406   2.465 -1.0519 -0.2737  1.7093
   31MOL   H61429474   2.441   5.473   2.473 -1.5419 -1.2623  2.9972
   31MOL   H61529475   2.534   5.398   2.600  0.3864  0.3772  0.8316
   31MOL   H61629476   2.685   5.614   2.587 -0.0678 -0.4296 -0.9987
   31MOL   H61729477   2.559   5.688   2.502 -1.0374 -0.3049  0.2051
   31MOL   H61829478   2.400   5.599   2.708 -0.3747 -0.1507  1.4065
   31MOL   H61929479   2.552   5.573   2.786  1.7906 -2.2781 -2.0692
   31MOL   H62029480   2.430   5.792   2.835 -0.6065 -0.3440 -1.4549
   31MOL   H62129481   2.446   5.846   2.677  1.9556  0.7663 -0.2664
   31MOL   H62229482   2.696   5.849   2.697  0.0425  1.0608  0.1639
   31MOL   H62329483   2.615   5.967   2.784 -1.9474 -0.1624 -0.8232
   31MOL   H62429484   2.628   5.792   2.987 -1.2127  0.6519 -2.0542
   31MOL   H62529485   2.740   5.697   2.886  0.8372  0.0173  0.2111
   31MOL   N62629486   2.931   5.816   2.981  0.0425 -0.0648  0.2406
   31MOL   C62729487   3.056   5.874   3.034  0.0000  0.3991  0.2089
   31MOL   C62829488   3.127   5.967   2.940  0.0702  0.6419 -1.0032
   31MOL   C62929489   3.101   6.107   2.962 -0.5456 -0.1290 -0.4211
   31MOL   C63029490   3.137   6.196   2.858  0.5947 -0.2539  0.1921
   31MOL   C63129491   3.219   6.153   2.752 -0.1352  0.1106 -0.2886
   31MOL   C63229492   3.269   6.021   2.745 -0.2316  0.1433 -0.1674
   31MOL   C63329493   3.219   5.926   2.839  0.0135 -0.0031  0.3904
   31MOL   C63429494   3.267   5.784   2.820  0.3995  0.8550  0.1922
   31MOL   N63529495   3.155   5.703   2.778 -0.4028 -0.5619 -0.0341
   31MOL   C63629496   3.112   5.697   2.648 -0.1339 -0.2147 -0.6910
   31MOL   O63729497   3.159   5.766   2.554  0.0151 -0.5638 -0.5639
   31MOL   C63829498   2.982   5.619   2.624 -0.1867 -0.4620 -0.3322
   31MOL   C63929499   3.010   5.466   2.633  0.3103  0.1533 -0.2425
   31MOL   C64029500   3.050   5.401   2.498  0.5201  0.1788 -0.1019
   31MOL   C64129501   3.053   5.251   2.500 -0.1451  0.0928 -0.7880
   31MOL   C64229502   3.154   5.191   2.406  0.2697 -0.0190  0.7546
   31MOL   C64329503   3.124   5.225   2.262 -0.0440  0.5716  0.2529
   31MOL   C64429504   3.245   5.215   2.171 -0.9411 -0.6902  0.7608
   31MOL   C64529505   3.337   5.081   2.178  0.2374  0.0969 -0.8730
   31MOL   C64629506   3.256   4.954   2.149 -0.8017  0.4304 -0.0797
   31MOL   O64729507   3.264   4.901   2.035 -0.2429  0.1016 -0.0439
   31MOL   H64829508   2.942   5.719   2.953 -0.5893 -0.8192  2.5265
   31MOL   H64929509   3.122   5.790   3.057  0.8988  0.2936 -2.6257
   31MOL   H65029510   3.023   5.918   3.128 -1.1512  2.1781 -0.9926
   31MOL   H65129511   3.043   6.145   3.044  0.0376 -0.9499  0.3859
   31MOL   H65229512   3.112   6.301   2.853  1.5498 -0.0915 -1.5184
   31MOL   H65329513   3.256   6.225   2.681 -2.8695  2.5439  0.6118
   31MOL   H65429514   3.344   6.005   2.669 -0.5238  0.5039 -0.5390
   31MOL   H65529515   3.298   5.748   2.918  0.1409 -0.3750 -0.1659
   31MOL   H65629516   3.349   5.768   2.750 -0.5533 -1.3835 -0.4890
   31MOL   H65729517   3.108   5.649   2.850  3.0703 -0.0399  2.7590
   31MOL   H65829518   2.937   5.645   2.529  0.1914 -3.3662 -1.3224
   31MOL   H65929519   2.900   5.642   2.692  0.8401  1.7336  0.2345
   31MOL   H66029520   2.918   5.427   2.676  1.4672 -2.6307 -0.1572
   31MOL   H66129521   3.091   5.446   2.704 -1.5216 -1.8978  1.3621
   31MOL   H66229522   2.984   5.433   2.417 -1.1985 -3.3541 -0.1887
   31MOL   H66329523   3.140   5.459   2.479 -0.6514  2.2143  0.3537
   31MOL   H66429524   3.084   5.211   2.597  1.3410  1.0083 -0.8533
   31MOL   H66529525   2.952   5.212   2.494 -0.1549  0.0070 -0.1337
   31MOL   H66629526   3.252   5.233   2.428  0.9603 -1.0120 -0.3892
   31MOL   H66729527   3.156   5.084   2.425  0.7437 -0.6899 -2.7716
   31MOL   H66829528   3.095   5.330   2.263 -1.8824  0.0824  1.9472
   31MOL   H66929529   3.048   5.166   2.209 -0.8790  1.9142 -0.0667
   31MOL   H67029530   3.215   5.241   2.069 -0.5458  0.3574  0.9056
   31MOL   H67129531   3.310   5.300   2.193  0.1475 -0.9577 -1.2714
   31MOL   H67229532   3.380   5.070   2.278  2.8524 -0.3645 -2.0357
   31MOL   H67329533   3.428   5.087   2.119  1.6807 -2.2250  1.0160
   31MOL   N67429534   3.182   4.897   2.240  0.5175 -0.0590  1.0677
   31MOL   C67529535   3.080   4.801   2.215 -0.4698  1.0920 -0.0254
   31MOL   C67629536   3.102   4.671   2.286 -0.3080  0.6833  0.1035
   31MOL   C67729537   3.087   4.679   2.425  0.3170  0.0760  0.0942
   31MOL   C67829538   3.108   4.568   2.503  0.9097  0.3781 -0.1508
   31MOL   C67929539   3.173   4.457   2.446 -0.1150 -0.4011  0.8914
   31MOL   C68029540   3.198   4.443   2.307  0.8738 -0.2166  0.0637
   31MOL   C68129541   3.157   4.555   2.224  0.7765 -0.4683 -0.3598
   31MOL   C68229542   3.184   4.546   2.077 -0.0427  0.1921  0.7922
   31MOL   N68329543   3.307   4.606   2.042 -0.3857 -0.7858 -0.1178
   31MOL   C68429544   3.427   4.548   2.044 -0.0614  0.0000  0.1488
   31MOL   O68529545   3.441   4.430   2.019  0.0934  0.3416  0.5059
   31MOL   C68629546   3.546   4.639   2.076  0.7582 -0.7754 -0.0806
   31MOL   C68729547   3.552   4.696   2.219 -0.4002  0.3304  0.5352
   31MOL   C68829548   3.678   4.770   2.267 -0.5986 -0.3043  0.2942
   31MOL   C68929549   3.699   4.911   2.211  0.0678  0.3665  0.4695
   31MOL   C69029550   3.766   4.999   2.316  0.4209  0.1732 -0.0492
   31MOL   C69129551   3.826   5.126   2.250  0.7067  0.8498  0.2086
   31MOL   C69229552   3.906   5.204   2.361  0.1893  0.5641  0.8582
   31MOL   C69329553   3.941   5.349   2.330 -0.4268  0.0369  0.6421
   31MOL   C69429554   3.820   5.441   2.310  0.3626  1.0406 -0.0036
   31MOL   O69529555   3.718   5.437   2.385 -0.6034 -0.4170  0.1957
   31MOL   H69629556   3.181   4.943   2.330  0.9571  0.2168  0.9356
   31MOL   H69729557   3.058   4.784   2.109 -1.1063  0.3881  0.2100
   31MOL   H69829558   2.987   4.844   2.253 -0.4429  0.5376  0.6607
   31MOL   H69929559   3.053   4.773   2.465 -0.1851 -1.3320  3.0669
   31MOL   H70029560   3.094   4.579   2.610 -0.1471 -0.3312 -0.1987
   31MOL   H70129561   3.211   4.377   2.509  0.0147 -0.1462  1.1396
   31MOL   H70229562   3.238   4.351   2.268  0.0716 -0.5841  0.1096
   31MOL   H70329563   3.104   4.600   2.028  1.6865  0.7379 -1.5366
   31MOL   H70429564   3.185   4.443   2.040  0.7478 -0.0027  1.3199
   31MOL   H70529565   3.297   4.706   2.031  3.3417 -0.5920 -3.0632
   31MOL   H70629566   3.540   4.710   1.994  0.8759  0.6709  1.1534
   31MOL   H70729567   3.635   4.577   2.068  0.5761 -0.9245 -0.9771
   31MOL   H70829568   3.518   4.613   2.281 -1.2000  0.1380 -0.1663
   31MOL   H70929569   3.464   4.759   2.217 -0.1381  0.6986  0.4272
   31MOL   H71029570   3.662   4.781   2.374 -4.2363  2.4762 -0.4661
   31MOL   H71129571   3.764   4.702   2.261 -0.3012  0.0950 -0.0227
   31MOL   H71229572   3.750   4.899   2.115 -2.3563 -0.4650 -0.7608
   31MOL   H71329573   3.602   4.952   2.183  0.0365 -0.5904 -0.8759
   31MOL   H71429574   3.700   5.025   2.398  1.8117 -0.9297  1.4581
   31MOL   H71529575   3.847   4.943   2.362  0.2984  1.0560  1.2531
   31MOL   H71629576   3.747   5.179   2.196 -2.8754 -3.2328  1.1570
   31MOL   H71729577   3.899   5.090   2.177 -1.9623 -1.3207 -1.4918
   31MOL   H71829578   3.993   5.145   2.390 -1.5572 -0.7759  3.6902
   31MOL   H71929579   3.846   5.222   2.451  0.7509 -0.9063  1.5410
   31MOL   H72029580   3.999   5.356   2.238 -0.3482 -3.1747  0.3869
   31MOL   H72129581   4.008   5.392   2.403 -1.3416  2.3317  0.1630
   31MOL   N72229582   3.816   5.514   2.204  0.5785 -0.2147 -0.3087
   31MOL   C72329583   3.710   5.608   2.189 -0.0176  0.1854 -0.2878
   31MOL   C72429584   3.706   5.651   2.044 -0.3817  0.8298  0.3633
   31MOL   C72529585   3.793   5.753   1.993  0.2194 -0.7049 -0.9907
   31MOL   C72629586   3.778   5.799   1.859 -0.3611  0.2718 -0.3145
   31MOL   C72729587   3.685   5.739   1.775 -0.0363  0.4240  0.4192
   31MOL   C72829588   3.621   5.617   1.815 -0.1592 -0.7430 -1.1006
   31MOL   C72929589   3.631   5.578   1.950  0.0362  0.3325  0.0704
   31MOL   C73029590   3.544   5.450   1.988 -0.1240  0.0577 -0.4116
   31MOL   N73129591   3.507   5.357   1.884 -0.3313 -0.4613  0.4268
   31MOL   C73229592   3.546   5.232   1.865 -1.0271  0.5899  0.2483
   31MOL   O73329593   3.646   5.186   1.925 -0.0448 -0.4344  0.4717
   31MOL   C73429594   3.453   5.156   1.780  0.1328 -0.4261  0.3144
   31MOL   C73529595   3.506   5.045   1.697 -0.7427 -0.0390  0.4256
   31MOL   C73629596   3.557   4.914   1.758  0.4981  0.2810 -0.4594
   31MOL   C73729597   3.611   4.818   1.645 -0.6800 -0.3400 -0.1365
   31MOL   C73829598   3.668   4.688   1.710  0.3791  0.2897 -0.5451
   31MOL   C73929599   3.713   4.586   1.596 -0.6827 -0.5395 -0.6250
   31MOL   C74029600   3.767   4.447   1.647  0.7722 -0.0454 -0.2124
   31MOL   C74129601   3.672   4.363   1.735  0.4445  0.2964 -0.0356
   31MOL   C74229602   3.542   4.312   1.675  0.0220  0.8827 -0.6445
   31MOL   O74329603   3.538   4.305   1.554 -0.1806 -0.6263  0.4157
   31MOL   H74429604   3.901   5.515   2.150  0.7166 -2.3151 -0.1679
   31MOL   H74529605   3.739   5.697   2.244  3.3110 -1.5807  0.9889
   31MOL   H74629606   3.617   5.578   2.236 -0.0948  3.1143  1.5436
   31MOL   H74729607   3.867   5.797   2.058 -0.9589 -0.0659 -0.0572
   31MOL   H74829608   3.847   5.865   1.809 -1.5289  0.9040 -1.1053
   31MOL   H74929609   3.672   5.773   1.673 -0.6911 -1.6569 -0.2214
   31MOL   H75029610   3.565   5.552   1.749  1.0940 -2.9450 -0.0561
   31MOL   H75129611   3.451   5.486   2.034  0.9319 -0.5272  2.2954
   31MOL   H75229612   3.604   5.398   2.063  0.2468  0.6919 -0.2637
   31MOL   H75329613   3.428   5.388   1.830 -1.3186 -2.5319  0.6147
   31MOL   H75429614   3.387   5.216   1.717  1.5128  1.7273  0.8753
   31MOL   H75529615   3.381   5.115   1.851 -0.3064  0.8296  0.6027
   31MOL   H75629616   3.590   5.091   1.644 -0.2821  0.7088  1.7910
   31MOL   H75729617   3.434   5.018   1.620  2.0751 -0.3886 -2.1948
   31MOL   H75829618   3.635   4.943   1.828  0.6030  1.2182 -0.9540
   31MOL   H75929619   3.481   4.866   1.820  2.0391  0.7274  1.8616
   31MOL   H76029620   3.521   4.793   1.588 -1.4119 -1.4120  1.4519
   31MOL   H76129621   3.692   4.857   1.583  2.1701 -0.1404  3.5507
   31MOL   H76229622   3.751   4.717   1.775  0.9517 -0.3179 -0.9950
   31MOL   H76329623   3.591   4.637   1.767 -0.1179  1.8671  0.1955
   31MOL   H76429624   3.795   4.626   1.536 -0.5053  0.0962  0.0486
   31MOL   H76529625   3.629   4.559   1.532 -0.5673 -0.3402 -0.8625
   31MOL   H76629626   3.790   4.396   1.554 -3.9151 -0.2295 -1.3929
   31MOL   H76729627   3.853   4.460   1.712 -1.1233  2.1025  1.9534
   31MOL   H76829628   3.729   4.275   1.765  0.0838 -0.2652 -0.9808
   31MOL   H76929629   3.658   4.418   1.828  0.5723  0.0391  0.1343
   31MOL   N77029630   3.444   4.261   1.754 -0.3311  0.1150 -0.2541
   31MOL   C77129631   3.323   4.199   1.702 -0.1299 -0.3989 -0.5245
   31MOL   C77229632   3.215   4.164   1.808 -0.0963 -0.1273 -0.1645
   31MOL   C77329633   3.239   4.185   1.948  0.0682 -0.4099 -0.4082
   31MOL   C77429634   3.136   4.164   2.045 -0.2477  0.1563 -0.1598
   31MOL   C77529635   3.010   4.112   2.002  0.0362 -0.6043 -0.1812
   31MOL   C77629636   2.988   4.096   1.864  0.5789 -0.3117 -0.3393
   31MOL   C77729637   3.092   4.111   1.773  0.1457  0.2922  0.3472
   31MOL   C77829638   3.056   4.079   1.629 -0.2380  0.8494 -0.5381
   31MOL   N77929639   2.975   4.193   1.573 -0.4860  0.1822  0.7648
   31MOL   C78029640   3.008   4.260   1.467 -0.1982 -0.3064  0.3291
   31MOL   O78129641   3.122   4.240   1.422 -0.4016 -0.6728 -0.0215
   31MOL   C78229642   2.918   4.378   1.425  0.2320 -0.2613  0.4046
   31MOL   C78329643   2.974   4.438   1.291  0.5207  1.0374 -0.3535
   31MOL   C78429644   2.939   4.588   1.257  0.8778 -0.2542  0.8764
   31MOL   C78529645   2.789   4.609   1.251  0.2663 -0.2738 -0.5102
   31MOL   C78629646   2.741   4.749   1.216 -0.1377  0.3104  0.8092
   31MOL   C78729647   2.592   4.751   1.176 -0.1630 -0.5362  0.2084
   31MOL   C78829648   2.484   4.750   1.287 -0.2731  0.2364  0.6031
   31MOL   C78929649   2.348   4.733   1.216 -0.3456 -0.3330 -0.3075
   31MOL   C79029650   2.226   4.755   1.307  0.5149  0.2079 -0.3284
   31MOL   O79129651   2.227   4.738   1.433 -0.1924 -0.6362  0.0922
   31MOL   H79229652   3.455   4.273   1.854 -2.4563  0.0751  0.0035
   31MOL   H79329653   3.270   4.253   1.623  1.0050 -0.7834 -1.5731
   31MOL   H79429654   3.358   4.104   1.659  1.9238 -0.9227  2.1759
   31MOL   H79529655   3.338   4.208   1.984  0.2578 -0.7670 -0.6953
   31MOL   H79629656   3.160   4.186   2.148 -0.6945 -2.1076  0.4514
   31MOL   H79729657   2.928   4.094   2.070 -2.0264 -1.1288 -2.7150
   31MOL   H79829658   2.892   4.058   1.831 -0.2722  1.3404  0.1357
   31MOL   H79929659   3.001   3.985   1.622  0.9187 -0.1923  3.1348
   31MOL   H80029660   3.146   4.052   1.574  0.6847  1.3361  0.7125
   31MOL   H80129661   2.879   4.206   1.603 -1.5326 -1.2271 -1.7764
   31MOL   H80229662   2.927   4.456   1.501 -0.3951 -1.0840  1.3548
   31MOL   H80329663   2.817   4.337   1.427  0.9880 -2.1828  0.5342
   31MOL   H80429664   2.937   4.376   1.209 -0.4144 -1.1486  1.6991
   31MOL   H80529665   3.082   4.425   1.286  0.3043 -0.8701 -0.1958
   31MOL   H80629666   2.988   4.611   1.163 -0.3290  2.3276  0.8380
   31MOL   H80729667   2.977   4.661   1.330  0.1812  1.9073 -0.8724
   31MOL   H80829668   2.745   4.536   1.182  0.5984 -0.0959 -0.9109
   31MOL   H80929669   2.752   4.591   1.352 -1.2446 -4.2677 -1.6640
   31MOL   H81029670   2.770   4.816   1.298 -1.4597 -1.2903  2.6307
   31MOL   H81129671   2.787   4.782   1.123  0.3247 -2.7835 -0.0943
   31MOL   H81229672   2.565   4.662   1.118 -2.6218 -0.2417  0.8322
   31MOL   H81329673   2.585   4.836   1.109  0.5759 -0.4508  0.2359
   31MOL   H81429674   2.480   4.839   1.350  0.9476  1.4650 -1.0132
   31MOL   H81529675   2.500   4.667   1.356 -0.0060 -0.6027 -0.4595
   31MOL   H81629676   2.337   4.647   1.149  0.1992  0.0746 -0.9297
   31MOL   H81729677   2.350   4.823   1.154  1.4984 -0.1294  0.0425
   31MOL   N81829678   2.118   4.805   1.249  0.1383 -0.0394 -0.0408
   31MOL   C81929679   1.984   4.831   1.312 -0.1134 -1.0489 -0.0942
   31MOL   C82029680   1.944   4.979   1.349  0.3843  0.2177 -0.3494
   31MOL   C82129681   2.044   5.079   1.352  0.2316 -0.2619 -0.1456
   31MOL   C82229682   2.006   5.208   1.387  0.1340  0.2452 -0.3859
   31MOL   C82329683   1.878   5.241   1.435  0.0991 -0.1254  0.2760
   31MOL   C82429684   1.783   5.138   1.430 -0.0034 -0.2535  0.5781
   31MOL   C82529685   1.810   5.009   1.390 -0.0730  0.2634  0.2119
   31MOL   C82629686   1.706   4.900   1.412 -0.1524 -0.3327  0.2019
   31MOL   N82729687   1.637   4.916   1.537  0.7816 -0.0607 -0.1117
   31MOL   C82829688   1.672   4.867   1.656 -0.2422  0.5753  0.4211
   31MOL   O82929689   1.615   4.910   1.755 -0.0974  0.5552  0.1415
   31MOL   C83029690   1.800   4.788   1.685 -0.3624  0.1550 -0.3381
   31MOL   C83129691   1.902   4.872   1.768 -0.3485 -0.1996  0.3956
   31MOL   C83229692   1.983   4.980   1.701  0.1973 -0.0724 -0.4220
   31MOL   C83329693   2.094   5.045   1.788  0.2646 -0.1946  0.7150
   31MOL   C83429694   2.190   5.108   1.690 -0.2351 -0.0565 -0.7589
   31MOL   C83529695   2.324   5.162   1.750 -0.3039 -0.3632  0.6351
   31MOL   C83629696   2.310   5.275   1.848  0.5345  0.3056  0.7280
   31MOL   C83729697   2.254   5.403   1.798 -0.3784 -0.4193  0.5360
   31MOL   C83829698   2.339   5.485   1.702  0.0122  0.2471  0.9305
   31MOL   O83929699   2.418   5.566   1.744  0.7184  0.2338 -0.3812
   31MOL   H84029700   2.104   4.780   1.152  3.5636 -0.0310 -0.5842
   31MOL   H84129701   1.918   4.808   1.229 -1.2030  0.2351  0.3972
   31MOL   H84229702   1.961   4.767   1.397  1.2789  0.7820  1.7208
   31MOL   H84329703   2.147   5.053   1.332 -0.1553 -2.0177 -0.0006
   31MOL   H84429704   2.084   5.283   1.389 -0.3608  0.8101 -1.6301
   31MOL   H84529705   1.850   5.339   1.469  0.0375 -0.7608  2.0910
   31MOL   H84629706   1.680   5.150   1.463 -0.3480 -2.0740  0.2016
   31MOL   H84729707   1.743   4.801   1.387 -1.8545 -1.2058  1.0550
   31MOL   H84829708   1.629   4.902   1.335  2.1936  0.7168 -2.2082
   31MOL   H84929709   1.558   4.978   1.549  0.4587 -0.5459  0.3077
   31MOL   H85029710   1.840   4.749   1.592  2.5714 -1.6069  1.5567
   31MOL   H85129711   1.767   4.702   1.743  1.8947  0.4140  1.4267
   31MOL   H85229712   1.976   4.804   1.812  0.7136  1.2125  0.8083
   31MOL   H85329713   1.850   4.928   1.845  0.6619  0.5999  0.5013
   31MOL   H85429714   1.916   5.061   1.673 -1.3676 -1.2367 -0.0872
   31MOL   H85529715   2.033   4.922   1.624  2.3342  1.7881 -0.5038
   31MOL   H85629716   2.062   5.107   1.873 -1.4828 -1.0063  0.6788
   31MOL   H85729717   2.137   4.974   1.858 -0.2062  1.0440  2.2989
   31MOL   H85829718   2.229   5.042   1.613 -2.0387 -2.1366  0.0245
   31MOL   H85929719   2.134   5.177   1.627  1.4475  0.2500 -1.9415
   31MOL   H86029720   2.387   5.193   1.668  0.2888 -1.5302  0.6377
   31MOL   H86129721   2.363   5.074   1.800  0.4270 -0.6001 -0.3479
   31MOL   H86229722   2.410   5.291   1.889  0.6155  2.1361 -0.1440
   31MOL   H86329723   2.244   5.233   1.924  0.1473  0.9059  0.7238
   31MOL   H86429724   2.161   5.384   1.745  0.0337 -1.0722  0.0529
   31MOL   H86529725   2.241   5.464   1.888  2.1208  2.0686 -0.6830
   31MOL   N86629726   2.332   5.454   1.572 -0.5125 -0.6018  0.1708
   31MOL   C86729727   2.423   5.500   1.470 -0.6659 -0.0161  0.1694
   31MOL   C86829728   2.480   5.383   1.394 -0.0562  0.1963 -0.0227
   31MOL   C86929729   2.584   5.306   1.455  0.0825 -0.2982  0.9826
   31MOL   C87029730   2.624   5.181   1.404 -0.7161  0.3067  0.0143
   31MOL   C87129731   2.557   5.131   1.293  0.1905 -0.0260 -0.4980
   31MOL   C87229732   2.450   5.198   1.235  0.0978  0.3992  0.0284
   31MOL   C87329733   2.419   5.331   1.276 -0.3191  0.1144  0.1793
   31MOL   C87429734   2.314   5.414   1.199 -0.1696  0.1966  0.3202
   31MOL   N87529735   2.225   5.339   1.122 -0.3538 -0.5597  0.2200
   31MOL   C87629736   2.241   5.269   1.009  0.3502  0.3303  0.4001
   31MOL   O87729737   2.351   5.252   0.949  0.2182 -0.1404  0.0922
   31MOL   C87829738   2.112   5.214   0.952 -0.3543  0.0076  0.3712
   31MOL   C87929739   2.103   5.058   0.946  0.2914 -0.4496  1.1996
   31MOL   C88029740   1.971   5.013   0.885 -0.6950  0.1651  0.7071
   31MOL   C88129741   1.963   5.036   0.728 -0.0616 -0.3087 -0.0850
   31MOL   C88229742   1.820   5.016   0.684 -0.3187 -0.0803  0.4605
   31MOL   C88329743   1.778   4.871   0.644 -0.9650 -0.6286 -0.3293
   31MOL   C88429744   1.630   4.852   0.610 -0.5440 -0.2091  0.2937
   31MOL   C88529745   1.596   4.914   0.478 -0.2934  0.3259  0.9661
   31MOL   C88629746   1.448   4.895   0.448 -0.0523  0.0029 -0.3596
   31MOL   O88729747   1.380   4.811   0.510  0.2777  0.0770 -0.0291
   31MOL   H88829748   2.281   5.371   1.545  3.1670 -2.1229 -2.5255
   31MOL   H88929749   2.393   5.590   1.416  1.3229  0.1167 -0.7562
   31MOL   H89029750   2.516   5.533   1.517 -0.1071 -0.0768 -0.8839
   31MOL   H89129751   2.631   5.343   1.545  1.8397  0.3850 -0.1936
   31MOL   H89229752   2.703   5.127   1.454 -0.2341 -1.4895 -2.6134
   31MOL   H89329753   2.582   5.030   1.266 -0.3984 -0.4658  0.5624
   31MOL   H89429754   2.404   5.139   1.157  0.6517 -0.2409  0.1804
   31MOL   H89529755   2.354   5.493   1.135  2.7605 -1.6316 -0.1878
   31MOL   H89629756   2.243   5.458   1.269  1.6569  1.9805  1.1395
   31MOL   H89729757   2.132   5.344   1.162  0.3663 -1.0994  2.0502
   31MOL   H89829758   2.094   5.260   0.855  0.7005 -1.1123 -0.3627
   31MOL   H89929759   2.033   5.254   1.017 -1.0655  0.9393 -1.0473
   31MOL   H90029760   2.126   5.012   1.042  0.0252  1.6197  2.2866
   31MOL   H90129761   2.184   5.020   0.884  0.4866  0.6730  0.7562
   31MOL   H90229762   1.954   4.907   0.900 -2.8510  0.4220  0.1632
   31MOL   H90329763   1.886   5.059   0.935 -1.0647 -1.4881  1.6009
   31MOL   H90429764   1.989   5.141   0.717  0.6153 -0.3838  0.7401
   31MOL   H90529765   2.029   4.973   0.670 -0.4323 -1.8747  1.1623
   31MOL   H90629766   1.745   5.059   0.751 -0.7953  1.5575 -1.0798
   31MOL   H90729767   1.810   5.064   0.586 -0.1246 -1.0612 -0.0373
   31MOL   H90829768   1.801   4.816   0.736  0.2580  1.5227  0.6921
   31MOL   H90929769   1.848   4.842   0.566  0.2377 -1.1963  0.9362
   31MOL   H91029770   1.617   4.744   0.615 -2.7996  0.0078 -0.4456
   31MOL   H91129771   1.559   4.879   0.688  0.1555 -0.0222  0.8734
   31MOL   H91229772   1.608   5.021   0.494 -1.5846  0.4557  1.1020
   31MOL   H91329773   1.670   4.887   0.403  1.0553  1.0041  2.0397
   31MOL   N91429774   1.404   4.970   0.344 -0.2016  0.1658  0.3282
   31MOL   C91529775   1.262   4.980   0.316 -0.0808 -0.5948 -0.8409
   31MOL   C91629776   1.193   5.073   0.406 -0.7752  0.2355  0.7436
   31MOL   C91729777   1.102   5.021   0.495  0.9568 -0.1422  0.7739
   31MOL   C91829778   1.009   5.099   0.571 -0.7132  0.2472  0.5473
   31MOL   C91929779   1.013   5.239   0.550 -0.3643 -0.0031  0.4357
   31MOL   C92029780   1.118   5.294   0.473 -0.3656  0.1309 -0.3351
   31MOL   C92129781   1.213   5.214   0.402  0.6380 -0.2627 -0.0690
   31MOL   C92229782   1.310   5.286   0.303 -0.3109 -0.1799 -0.4855
   31MOL   N92329783   1.446   5.286   0.361  0.4747 -0.2713  0.6468
   31MOL   C92429784   1.472   5.361   0.466 -0.1595  0.2742  1.2497
   31MOL   O92529785   1.389   5.446   0.507 -0.5009  0.0341  0.4980
   31MOL   C92629786   1.607   5.343   0.537  0.5987 -0.2782 -0.2447
   31MOL   C92729787   1.598   5.306   0.690  0.3904 -0.3345 -0.2468
   31MOL   C92829788   1.547   5.416   0.791  0.0885  0.3848  0.1379
   31MOL   C92929789   1.557   5.367   0.939  0.7330  0.4597 -0.3028
   31MOL   C93029790   1.696   5.371   0.995  0.3066 -0.9669 -0.4145
   31MOL   C93129791   1.713   5.349   1.139  0.1913 -0.2574  0.0012
   31MOL   C93229792   1.659   5.462   1.239  0.0652 -0.0039 -0.0468
   31MOL   C93329793   1.734   5.601   1.236 -0.4020 -0.0029 -0.2814
   31MOL   C93429794   1.880   5.589   1.282  0.0701  0.3692 -0.0529
   31MOL   O93529795   1.975   5.559   1.217 -0.5418  0.0174  0.2661
   31MOL   H93629796   1.462   5.041   0.303  0.5399 -0.8376 -0.3578
   31MOL   H93729797   1.251   5.025   0.217  1.7998 -1.6125 -1.5304
   31MOL   H93829798   1.205   4.888   0.309 -3.4117  1.4555 -2.2181
   31MOL   H93929799   1.112   4.914   0.506 -0.8560 -0.5911 -1.5518
   31MOL   H94029800   0.951   5.049   0.648  1.0619 -1.1236  1.0213
   31MOL   H94129801   0.955   5.301   0.618 -1.4720 -1.9975  1.3784
   31MOL   H94229802   1.134   5.401   0.467 -2.5725  0.5166  0.5689
   31MOL   H94329803   1.276   5.386   0.277  0.3889 -0.3586 -2.1657
   31MOL   H94429804   1.311   5.224   0.213 -5.2424  0.2509 -0.9777
   31MOL   H94529805   1.518   5.224   0.327  1.4116  1.5178 -0.6702
   31MOL   H94629806   1.658   5.438   0.522 -0.9989  0.6885  0.3421
   31MOL   H94729807   1.665   5.273   0.478 -0.0813  1.5088 -3.1634
   31MOL   H94829808   1.699   5.288   0.726  0.6433  1.3581 -0.0793
   31MOL   H94929809   1.545   5.212   0.705 -0.3759  0.2566  0.8429
   31MOL   H95029810   1.597   5.512   0.780  1.0197 -0.0819  0.2564
   31MOL   H95129811   1.443   5.445   0.781 -0.4118 -1.2719  0.3111
   31MOL   H95229812   1.490   5.417   1.009 -1.1486 -1.1001 -0.9569
   31MOL   H95329813   1.503   5.273   0.946 -0.9784  1.5913  2.5828
   31MOL   H95429814   1.742   5.468   0.977 -0.6086 -0.3247  0.6757
   31MOL   H95529815   1.756   5.300   0.937  0.7330  0.1737 -1.3990
   31MOL   H95629816   1.648   5.264   1.160 -0.1462 -0.0715 -0.2830
   31MOL   H95729817   1.817   5.325   1.158  1.1993  2.4687 -1.8234
   31MOL   H95829818   1.663   5.433   1.344  2.3668  1.3686  0.2762
   31MOL   H95929819   1.553   5.480   1.219  0.4770  1.5426 -0.9833
   31MOL   H96029820   1.695   5.652   1.324 -0.5268  1.2199 -1.0255
   31MOL   H96129821   1.721   5.650   1.140 -0.3681  0.8967  0.1639
   31MOL   H96229822   1.891   5.627   1.384 -1.9646 -0.5742  0.5363
   32MOL     N129823   6.549   4.342   3.256 -0.0680  0.5721  0.2838
   32MOL     C229824   6.498   4.326   3.116  0.5982  0.3725 -0.3177
   32MOL     C329825   6.618   4.328   3.019 -0.2106 -0.3876 -0.8383
   32MOL     C429826   6.682   4.208   2.977  0.1658 -0.3243  0.0354
   32MOL     C529827   6.783   4.212   2.872  1.1467  0.1531 -0.3724
   32MOL     C629828   6.820   4.335   2.822 -0.2486 -0.3798  0.2296
   32MOL     C729829   6.751   4.455   2.860  0.3076  0.1240  0.2271
   32MOL     C829830   6.655   4.454   2.963  0.0572 -0.6513 -0.1827
   32MOL     C929831   6.593   4.587   3.015 -0.1151 -0.2936 -0.8380
   32MOL    N1029832   6.634   4.607   3.155  0.3719  0.0389  0.2422
   32MOL    C1129833   6.730   4.691   3.188 -0.5611 -0.3760 -0.2162
   32MOL    O1229834   6.791   4.770   3.112  0.5124  0.0965  0.8064
   32MOL    C1329835   6.759   4.697   3.333 -0.0616 -0.6588  0.2270
   32MOL    C1429836   6.906   4.735   3.364 -0.2229 -0.7414  0.2822
   32MOL    C1529837   6.930   4.749   3.510 -0.3034 -0.5356  0.2859
   32MOL    C1629838   7.081   4.776   3.544 -0.2000 -0.6786 -0.6903
   32MOL    C1729839   7.116   4.780   3.689 -0.0070 -0.1329  0.0197
   32MOL    C1829840   7.092   4.635   3.749  0.0655  0.4830 -0.3668
   32MOL    C1929841   7.172   4.603   3.884 -0.3309  0.2554  0.2666
   32MOL    C2029842   7.107   4.490   3.966  0.4812  0.2118  0.8229
   32MOL    C2129843   6.973   4.516   4.045 -0.5492 -0.4369  0.8126
   32MOL    O2229844   6.914   4.619   4.018  0.6276  0.2734 -0.4386
   32MOL    H2329845   6.502   4.275   3.315 -0.9518  1.4901  0.6318
   32MOL    H2429846   6.448   4.235   3.084 -0.5369  1.2172 -1.0257
   32MOL    H2529847   6.425   4.404   3.092  0.4869  0.5147  0.4713
   32MOL    H2629848   6.652   4.114   3.022  1.9088 -0.3796  1.1229
   32MOL    H2729849   6.840   4.124   2.846 -0.2460 -0.6825 -0.6837
   32MOL    H2829850   6.892   4.343   2.742 -1.8140 -3.3377 -1.5991
   32MOL    H2929851   6.781   4.545   2.809  2.3903 -0.9811 -0.5628
   32MOL    H3029852   6.484   4.582   3.020 -0.1335 -0.9270 -1.6252
   32MOL    H3129853   6.623   4.671   2.952  0.7296 -0.6596 -0.9254
   32MOL    H3229854   6.601   4.541   3.225  1.9476  0.7131  1.6569
   32MOL    H3329855   6.737   4.598   3.373 -1.1507 -1.4408 -2.1876
   32MOL    H3429856   6.689   4.763   3.384  0.5129 -0.0358  0.2155
   32MOL    H3529857   6.931   4.830   3.318 -1.0109 -1.0911 -0.8828
   32MOL    H3629858   6.977   4.664   3.321  1.5266  0.5611  0.9682
   32MOL    H3729859   6.861   4.820   3.556 -1.3537 -0.8087 -0.8141
   32MOL    H3829860   6.915   4.651   3.556 -1.1711  0.5689  2.3987
   32MOL    H3929861   7.146   4.704   3.493  0.0098  0.1161 -1.5785
   32MOL    H4029862   7.113   4.870   3.498  0.5690 -1.2249 -1.2958
   32MOL    H4129863   7.218   4.807   3.715 -0.6906  1.7454  0.8047
   32MOL    H4229864   7.062   4.859   3.741  1.8284  1.6387 -0.7163
   32MOL    H4329865   7.120   4.556   3.679 -1.1468 -0.9830  0.7353
   32MOL    H4429866   6.988   4.631   3.779 -0.2619  4.0707 -0.8375
   32MOL    H4529867   7.278   4.595   3.857 -0.1315 -0.2392  1.1618
   32MOL    H4629868   7.179   4.692   3.947  1.1938  0.8414 -0.7024
   32MOL    H4729869   7.176   4.474   4.049 -1.2104  0.1077  2.2181
   32MOL    H4829870   7.072   4.410   3.901  0.6073  0.8606 -0.0615
   32MOL    H4929871   6.637   4.294   3.247  0.1306  1.2295 -1.4510
   32MOL    N5029872   6.933   4.424   4.130 -0.0703 -0.7219 -0.2256
   32MOL    C5129873   6.811   4.420   4.199  0.5324 -0.1034  0.4984
   32MOL    C5229874   6.819   4.350   4.331 -0.4310  0.5907 -0.3149
   32MOL    C5329875   6.833   4.429   4.447 -0.3034  0.1670 -0.3996
   32MOL    C5429876   6.841   4.371   4.579 -0.0964  0.6366  0.4008
   32MOL    C5529877   6.814   4.232   4.584 -0.7164 -0.6948 -0.0675
   32MOL    C5629878   6.806   4.160   4.468  0.5668 -0.6269  1.0528
   32MOL    C5729879   6.806   4.212   4.340 -0.2216  0.5149  1.1451
   32MOL    C5829880   6.803   4.117   4.213  0.0301 -0.7606 -0.1191
   32MOL    N5929881   6.920   4.033   4.198 -0.0029 -0.1044 -0.7760
   32MOL    C6029882   7.047   4.076   4.167 -0.1022 -0.3947  0.3452
   32MOL    O6129883   7.082   4.192   4.166  0.5878  0.1666 -0.1501
   32MOL    C6229884   7.142   3.963   4.121  1.0714 -0.2015  0.6174
   32MOL    C6329885   7.245   4.001   4.013  0.3447 -0.3569  0.4304
   32MOL    C6429886   7.190   4.052   3.880 -0.0273  0.3801 -0.0689
   32MOL    C6529887   7.302   4.084   3.775 -0.1761 -0.3633 -1.2633
   32MOL    C6629888   7.240   4.168   3.668 -0.5487 -0.5064 -0.2043
   32MOL    C6729889   7.135   4.095   3.580 -0.1491  0.0967  0.2855
   32MOL    C6829890   7.187   3.977   3.497 -0.4280 -0.6239  0.3291
   32MOL    C6929891   7.090   3.914   3.398  1.0016  0.0963  0.4143
   32MOL    C7029892   7.141   3.802   3.319  0.3992 -0.0507 -0.3695
   32MOL    O7129893   7.253   3.757   3.339  0.5942  0.6308  0.5668
   32MOL    H7229894   6.995   4.347   4.149  1.8228  0.8809  0.2409
   32MOL    H7329895   6.730   4.387   4.133  0.2724  3.2366 -0.9840
   32MOL    H7429896   6.770   4.519   4.224 -0.5468 -0.9629  2.2509
   32MOL    H7529897   6.833   4.537   4.441  1.6882  0.2428  0.5235
   32MOL    H7629898   6.842   4.426   4.672  0.3611  1.1976  0.0675
   32MOL    H7729899   6.805   4.181   4.678 -0.4304  1.2890  1.0720
   32MOL    H7829900   6.797   4.052   4.469  0.2751 -0.6085  2.7715
   32MOL    H7929901   6.796   4.178   4.123 -1.3851 -1.6946 -0.6696
   32MOL    H8029902   6.713   4.055   4.218 -0.1123 -0.7329 -2.1052
   32MOL    H8129903   6.905   3.934   4.184  1.7116 -0.6829  1.1441
   32MOL    H8229904   7.085   3.879   4.080 -0.6538  1.2341  0.0105
   32MOL    H8329905   7.189   3.915   4.206  0.8044  0.8538  1.3704
   32MOL    H8429906   7.306   3.915   3.983 -1.3646 -0.7049 -2.2174
   32MOL    H8529907   7.321   4.072   4.047 -0.7946  1.2618 -0.3560
   32MOL    H8629908   7.128   3.969   3.846 -2.1589  2.8999 -2.5300
   32MOL    H8729909   7.121   4.134   3.900  0.0397  0.4765 -0.2421
   32MOL    H8829910   7.382   4.139   3.824 -0.1113 -0.7137 -0.9743
   32MOL    H8929911   7.338   3.986   3.742 -0.4702 -0.8512 -0.1589
   32MOL    H9029912   7.203   4.262   3.707  0.0027 -0.7236  0.8728
   32MOL    H9129913   7.319   4.203   3.602 -0.7039 -1.1731 -0.7575
   32MOL    H9229914   7.071   4.160   3.520  1.4272  1.1983 -0.2430
   32MOL    H9329915   7.057   4.056   3.645  0.5426 -2.6684 -0.4785
   32MOL    H9429916   7.237   3.903   3.560  0.7411  0.4298  0.6572
   32MOL    H9529917   7.264   3.996   3.422 -2.4483 -0.4283 -1.7323
   32MOL    H9629918   7.059   3.991   3.327 -0.2872 -1.9039 -1.2109
   32MOL    H9729919   7.008   3.873   3.456  0.3927  1.1057  0.2920
   32MOL    N9829920   7.067   3.769   3.211  0.4613  0.5500 -0.4885
   32MOL    C9929921   7.098   3.674   3.101 -0.2405 -0.1584 -0.2217
   32MOL   C10029922   6.995   3.565   3.091  0.1989 -0.0327 -0.2177
   32MOL   C10129923   6.969   3.496   3.214 -0.2415  0.5177 -0.2233
   32MOL   C10229924   6.866   3.403   3.227 -0.1369  0.3726  0.4858
   32MOL   C10329925   6.768   3.411   3.123 -0.2606  0.2922 -0.0979
   32MOL   C10429926   6.772   3.499   3.016  0.8404 -0.3136  0.0059
   32MOL   C10529927   6.896   3.562   2.987  0.1278 -0.3813 -0.8478
   32MOL   C10629928   6.907   3.640   2.861  0.3334 -0.0633 -0.7009
   32MOL   N10729929   7.026   3.611   2.782  0.4510 -0.4289  0.0089
   32MOL   C10829930   7.046   3.646   2.656  0.5661  0.5339 -0.8586
   32MOL   O10929931   6.971   3.720   2.597 -0.5140 -0.2674 -0.2285
   32MOL   C11029932   7.178   3.590   2.597 -0.4960 -0.0432  0.3529
   32MOL   C11129933   7.264   3.694   2.515 -0.0595  0.1792  0.2360
   32MOL   C11229934   7.355   3.782   2.601  0.0993 -0.1539 -0.2394
   32MOL   C11329935   7.423   3.881   2.518 -0.4366  0.6014 -0.1141
   32MOL   C11429936   7.502   3.982   2.612 -0.7623 -0.4403  0.1835
   32MOL   C11529937   7.529   4.117   2.535  0.2510  0.6594 -0.4402
   32MOL   C11629938   7.628   4.211   2.607  0.6380  0.5993  0.5894
   32MOL   C11729939   7.674   4.330   2.517 -0.8590  0.5965 -0.0370
   32MOL   C11829940   7.562   4.433   2.498 -0.1243  0.4138  0.2499
   32MOL   O11929941   7.488   4.458   2.594 -0.9077 -0.0031  0.2366
   32MOL   H12029942   6.971   3.798   3.212  0.7397  1.5043 -1.0160
   32MOL   H12129943   7.113   3.722   3.004  1.7162  0.3553  0.3069
   32MOL   H12229944   7.197   3.638   3.127 -0.9146 -0.2791  2.3548
   32MOL   H12329945   7.042   3.505   3.294  0.2395 -0.1179 -0.5812
   32MOL   H12429946   6.858   3.349   3.320  0.9354  1.3813  1.1776
   32MOL   H12529947   6.679   3.352   3.135  0.8603 -0.9227  2.5818
   32MOL   H12629948   6.690   3.510   2.947  0.6381  1.0727  0.4527
   32MOL   H12729949   6.915   3.742   2.900 -0.9123  0.5733 -2.0655
   32MOL   H12829950   6.815   3.636   2.803 -0.5075  0.1353  0.5924
   32MOL   H12929951   7.087   3.534   2.809  0.6433 -0.2196  0.1756
   32MOL   H13029952   7.150   3.519   2.519 -1.6751 -0.0997  0.8116
   32MOL   H13129953   7.242   3.542   2.671 -0.2163  0.2226  0.2845
   32MOL   H13229954   7.197   3.763   2.462 -0.2686 -0.6389 -0.5867
   32MOL   H13329955   7.313   3.637   2.436  0.7218  1.3299 -0.1226
   32MOL   H13429956   7.301   3.832   2.681  0.4598 -0.1467 -0.0008
   32MOL   H13529957   7.437   3.729   2.649  0.2967 -1.4140 -1.9125
   32MOL   H13629958   7.501   3.839   2.455 -0.0357  1.2766 -0.0736
   32MOL   H13729959   7.360   3.934   2.446 -2.8523 -1.8981  0.0884
   32MOL   H13829960   7.447   4.012   2.701 -0.5326  0.5786 -0.0147
   32MOL   H13929961   7.598   3.943   2.645 -2.1739 -1.0320  3.8797
   32MOL   H14029962   7.434   4.161   2.505 -1.2058 -1.2232  1.3376
   32MOL   H14129963   7.579   4.087   2.442 -0.4029 -0.2668 -0.4911
   32MOL   H14229964   7.578   4.260   2.691  1.8560  1.8329  0.6165
   32MOL   H14329965   7.714   4.151   2.640  0.0712 -0.1783  0.6629
   32MOL   H14429966   7.698   4.285   2.421 -1.3106  0.7486 -0.2199
   32MOL   H14529967   7.755   4.372   2.576 -1.1865  0.7117  0.3354
   32MOL   N14629968   7.529   4.486   2.382  0.2688  0.2205 -1.1021
   32MOL   C14729969   7.419   4.579   2.361 -0.3870  0.7413  0.2443
   32MOL   C14829970   7.395   4.593   2.207 -0.0054  0.4912 -0.0970
   32MOL   C14929971   7.388   4.717   2.146 -0.3938 -0.1705 -0.3743
   32MOL   C15029972   7.351   4.737   2.014  0.5435  0.0668 -0.2426
   32MOL   C15129973   7.309   4.632   1.936  0.1221  0.3036 -0.1330
   32MOL   C15229974   7.315   4.504   1.991  0.0155  0.4437 -0.0767
   32MOL   C15329975   7.343   4.486   2.126  0.0371 -0.1301 -0.1513
   32MOL   C15429976   7.322   4.346   2.180  0.0577  0.0272 -0.7499
   32MOL   N15529977   7.387   4.251   2.103  0.3924  0.6597  0.2886
   32MOL   C15629978   7.513   4.201   2.116  0.1584  0.0165  0.6029
   32MOL   O15729979   7.591   4.234   2.206  0.4253  0.2426  0.2599
   32MOL   C15829980   7.570   4.113   2.002  1.0559 -0.8282  0.6876
   32MOL   C15929981   7.586   3.959   2.033 -0.0621 -0.9036 -0.3533
   32MOL   C16029982   7.460   3.890   2.078 -0.2192  0.0577  0.3608
   32MOL   C16129983   7.471   3.733   2.073 -0.0185  1.0404 -0.4107
   32MOL   C16229984   7.363   3.656   2.153  0.1697 -0.6141  0.7194
   32MOL   C16329985   7.341   3.498   2.121  0.1721 -0.2559 -0.6234
   32MOL   C16429986   7.450   3.412   2.179  0.4736  0.5141  0.1327
   32MOL   C16529987   7.422   3.259   2.183  0.0574 -0.2857 -0.6804
   32MOL   C16629988   7.331   3.203   2.293  0.1799  0.2763 -0.3253
   32MOL   O16729989   7.218   3.157   2.270 -0.0184  0.3587  0.2813
   32MOL   H16829990   7.597   4.459   2.312  0.2402  3.1851 -2.3372
   32MOL   H16929991   7.439   4.676   2.406  2.5375  0.1422  0.3497
   32MOL   H17029992   7.324   4.542   2.399  1.4682 -2.9112  1.6556
   32MOL   H17129993   7.423   4.802   2.202 -1.0444 -1.7050  2.4736
   32MOL   H17229994   7.344   4.839   1.979  2.2798  0.1940 -0.2570
   32MOL   H17329995   7.269   4.651   1.837 -2.4454  0.9530  0.9903
   32MOL   H17429996   7.290   4.415   1.934  0.2637  0.9770 -1.0338
   32MOL   H17529997   7.216   4.333   2.159  0.0510  2.2461 -2.3577
   32MOL   H17629998   7.356   4.331   2.282  2.3255  0.4221 -1.4182
   32MOL   H17729999   7.342   4.217   2.020  0.0394 -1.3761  1.2888
   32MOL   H17830000   7.667   4.150   1.969  0.5345 -0.8831 -0.9974
   32MOL   H17930001   7.503   4.129   1.916  2.7423  1.8721 -0.1926
   32MOL   H18030002   7.663   3.933   2.106 -1.4977 -0.4718  1.3667
   32MOL   H18130003   7.621   3.920   1.938  0.8859 -2.6544  0.6815
   32MOL   H18230004   7.428   3.923   2.176 -1.0026 -0.7187  0.3732
   32MOL   H18330005   7.384   3.933   2.012  0.6485 -0.5144 -1.0534
   32MOL   H18430006   7.473   3.682   1.977 -2.0055 -3.1886  1.6884
   32MOL   H18530007   7.559   3.693   2.123  0.0520 -0.2811 -1.5621
   32MOL   H18630008   7.361   3.682   2.259  0.4940 -2.3228  1.1767
   32MOL   H18730009   7.269   3.699   2.121  0.6306  0.5375  0.9011
   32MOL   H18830010   7.342   3.485   2.013 -0.1906 -0.4695 -0.5988
   32MOL   H18930011   7.243   3.464   2.153  0.6646 -1.7015 -0.6207
   32MOL   H19030012   7.538   3.424   2.115  1.5904  0.2690  1.6047
   32MOL   H19130013   7.473   3.446   2.280  0.0795  2.1125 -0.3070
   32MOL   H19230014   7.519   3.212   2.199  0.3792  0.3582 -0.7395
   32MOL   H19330015   7.380   3.223   2.089 -1.0307  1.0382 -0.7145
   32MOL   N19430016   7.385   3.183   2.417 -0.2290  0.3067  0.2060
   32MOL   C19530017   7.329   3.125   2.535 -0.2584  0.4004  0.2584
   32MOL   C19630018   7.336   3.206   2.661  0.3186  0.4128 -0.2411
   32MOL   C19730019   7.219   3.260   2.709  0.6515 -0.2770  0.2505
   32MOL   C19830020   7.216   3.327   2.832 -0.1128  0.6171 -0.3763
   32MOL   C19930021   7.332   3.347   2.903  0.4343 -0.3100 -0.2021
   32MOL   C20030022   7.452   3.293   2.849 -0.4841 -0.4847 -0.0839
   32MOL   C20130023   7.456   3.223   2.732 -0.1562  0.0198  0.2984
   32MOL   C20230024   7.593   3.159   2.699  0.3991 -0.1252 -0.1851
   32MOL   N20330025   7.698   3.251   2.651  0.1298 -0.0675  0.2547
   32MOL   C20430026   7.720   3.277   2.524 -0.5643 -0.0397  0.4617
   32MOL   O20530027   7.653   3.225   2.437 -0.2497  0.2235  0.5181
   32MOL   C20630028   0.040   3.375   2.489  0.7060 -0.1700 -0.2406
   32MOL   C20730029   0.075   3.382   2.341  0.1408 -0.3240 -0.1716
   32MOL   C20830030   0.178   3.491   2.291  0.0239  0.5618  0.4897
   32MOL   C20930031   0.117   3.626   2.261  0.5746 -0.6223  0.3596
   32MOL   C21030032   0.223   3.719   2.212  0.4241 -0.4628  0.0083
   32MOL   C21130033   0.153   3.858   2.214 -0.0975 -0.4410 -0.2860
   32MOL   C21230034   0.158   3.932   2.353  0.1742  1.3671  0.0607
   32MOL   C21330035   0.096   4.068   2.359 -0.2872 -0.0198  0.3089
   32MOL   C21430036   0.167   4.181   2.287  0.9016  0.4096  0.0046
   32MOL   O21530037   0.287   4.195   2.292 -0.1121 -0.0689 -0.4554
   32MOL   H21630038   7.482   3.212   2.422  0.3556 -1.3043 -1.3166
   32MOL   H21730039   7.223   3.114   2.512 -0.5264 -0.1448  1.6589
   32MOL   H21830040   7.373   3.026   2.549  1.6275  1.3542  1.2732
   32MOL   H21930041   7.126   3.251   2.655  0.0501  2.7232  0.7075
   32MOL   H22030042   7.125   3.365   2.877 -0.1040  1.5057 -1.0829
   32MOL   H22130043   7.342   3.407   2.993  1.4954 -0.5818 -0.1268
   32MOL   H22230044   7.544   3.314   2.901  1.6785 -2.0115 -3.1012
   32MOL   H22330045   7.574   3.063   2.650  0.4257  0.9295 -2.3560
   32MOL   H22430046   7.641   3.130   2.792  0.4818 -1.3983 -0.6120
   32MOL   H22530047   7.740   3.308   2.723  0.3612  0.1762 -0.0760
   32MOL   H22630048   0.128   3.349   2.547 -0.2267 -1.5960  0.5640
   32MOL   H22730049   0.010   3.476   2.516 -2.0196 -1.5514  2.2429
   32MOL   H22830050   0.119   3.287   2.311  1.6523  0.2936  0.0474
   32MOL   H22930051   7.768   3.401   2.295  1.4448  0.5714 -2.6291
   32MOL   H23030052   0.269   3.500   2.350  0.4348 -4.5144  0.8554
   32MOL   H23130053   0.216   3.450   2.197 -0.5822 -2.8234  1.6310
   32MOL   H23230054   0.036   3.621   2.188  0.0950  0.1310  0.8247
   32MOL   H23330055   0.063   3.675   2.343 -1.4135 -2.1684  0.0189
   32MOL   H23430056   0.311   3.712   2.276 -0.5904 -3.0779  1.1610
   32MOL   H23530057   0.259   3.691   2.113  0.9835  0.2480  0.0010
   32MOL   H23630058   0.052   3.852   2.173 -0.0918  0.4803 -0.4475
   32MOL   H23730059   0.200   3.927   2.144  1.3773 -0.5055  0.6353
   32MOL   H23830060   0.257   3.940   2.398  1.1319 -2.8789 -1.0298
   32MOL   H23930061   0.105   3.865   2.421 -1.1887  0.5576 -1.7574
   32MOL   H24030062   7.786   4.050   2.320 -0.7648 -0.7189  1.8279
   32MOL   H24130063   0.102   4.092   2.465 -2.0131  1.4804  0.0951
   32MOL   N24230064   0.083   4.263   2.223 -0.6714  0.7189  0.1743
   32MOL   C24330065   0.123   4.380   2.150 -0.0561  0.1524 -0.0347
   32MOL   C24430066   0.071   4.502   2.219  0.1965  0.3365 -0.7148
   32MOL   C24530067   0.111   4.522   2.346 -0.0818  0.3580 -0.2048
   32MOL   C24630068   0.078   4.640   2.414 -0.2149  0.5389  0.0149
   32MOL   C24730069   7.781   4.727   2.353 -0.7575 -0.3221  0.1651
   32MOL   C24830070   7.729   4.701   2.224  0.3628 -0.2650  0.6123
   32MOL   C24930071   7.765   4.586   2.154  0.3794  0.3311  0.1097
   32MOL   C25030072   7.707   4.565   2.019  0.2874 -0.2914  0.1360
   32MOL   N25130073   0.003   4.623   1.914  0.0687  0.2345 -0.0812
   32MOL   C25230074   7.745   4.715   1.826  0.7495  0.2847  0.0011
   32MOL   O25330075   7.625   4.726   1.812 -0.2348 -0.1840 -0.3087
   32MOL   C25430076   0.064   4.801   1.752  1.4308  0.2765 -0.0215
   32MOL   C25530077   0.007   4.940   1.725  0.7273  0.0296  0.6314
   32MOL   C25630078   0.024   5.028   1.851 -0.9589  0.0934 -0.7019
   32MOL   C25730079   7.733   5.159   1.846  0.8287  0.1176 -0.2123
   32MOL   C25830080   0.002   5.279   1.920 -0.3458  0.0429 -0.3529
   32MOL   C25930081   7.702   5.402   1.904 -0.0412 -0.3517 -0.2173
   32MOL   C26030082   7.731   5.511   2.007 -0.3734  0.0843  0.5578
   32MOL   C26130083   7.615   5.618   2.001  0.0240 -0.0884  0.5956
   32MOL   C26230084   7.644   5.732   2.104  0.0637 -0.5653 -0.2419
   32MOL   O26330085   7.609   5.716   2.226 -0.2591  0.4544  0.0858
   32MOL   H26430086   7.776   4.244   2.241 -1.1800  1.5591 -1.6130
   32MOL   H26530087   0.232   4.388   2.140  0.1584 -1.7001  0.5952
   32MOL   H26630088   0.081   4.363   2.051  2.2776 -3.4391 -0.5010
   32MOL   H26730089   0.170   4.450   2.401 -2.6123 -0.0423  2.0993
   32MOL   H26830090   0.117   4.666   2.511  1.7697  3.4622 -1.5035
   32MOL   H26930091   7.754   4.813   2.412  0.8869  0.1155  0.2992
   32MOL   H27030092   7.684   4.788   2.178  0.8147  0.1927  1.0310
   32MOL   H27130093   7.603   4.597   2.029  1.3701  3.3622  0.3960
   32MOL   H27230094   7.681   4.465   1.984 -0.6754  1.1151 -3.3798
   32MOL   H27330095   0.103   4.608   1.917 -0.4042 -3.4108  0.4191
   32MOL   H27430096   0.075   4.749   1.657  3.9745 -0.2748  0.5368
   32MOL   H27530097   0.159   4.793   1.805  1.6115  1.2229 -0.1922
   32MOL   H27630098   7.692   4.926   1.697  0.8715  0.4754 -0.1479
   32MOL   H27730099   0.057   4.973   1.634 -0.2341 -0.0030  0.0810
   32MOL   H27830100   0.130   5.053   1.856 -1.1859  1.0521 -0.6436
   32MOL   H27930101   0.004   4.977   1.945  0.9140 -0.5848 -0.6454
   32MOL   H28030102   7.740   5.185   1.741  0.5210  1.0172 -0.0078
   32MOL   H28130103   7.626   5.143   1.863  0.8929  2.1655  2.4551
   32MOL   H28230104   0.013   5.236   2.019 -0.5105 -0.2844 -0.4768
   32MOL   H28330105   0.100   5.305   1.880  0.2797 -1.4614  0.2130
   32MOL   H28430106   7.603   5.360   1.923 -0.5084  0.0414 -1.7258
   32MOL   H28530107   7.702   5.435   1.801 -2.7952 -2.1865 -0.8804
   32MOL   H28630108   7.756   5.477   2.107  0.7303  0.6290  0.4682
   32MOL   H28730109   0.035   5.556   1.975 -1.2980  0.8377 -1.1629
   32MOL   H28830110   7.601   5.671   1.907 -3.7914  0.5627  1.4658
   32MOL   H28930111   7.519   5.576   2.030 -0.4650  1.3427  1.1270
   32MOL   N29030112   7.690   5.848   2.058  0.5465 -0.1159 -0.3968
   32MOL   C29130113   7.696   5.973   2.123  0.3509 -0.4702  0.4173
   32MOL   C29230114   0.012   6.061   2.064 -0.2722 -0.4778 -0.1977
   32MOL   C29330115   0.142   6.055   2.121 -0.1618 -0.2008 -0.7860
   32MOL   C29430116   0.245   6.138   2.069  1.2230 -0.0904  0.4655
   32MOL   C29530117   0.223   6.229   1.965 -0.0190 -0.2420  0.3278
   32MOL   C29630118   0.094   6.236   1.912  0.0806 -0.5675  0.6244
   32MOL   C29730119   7.778   6.152   1.957  0.6925 -0.7179  0.3654
   32MOL   C29830120   7.633   6.163   1.904  0.8808 -0.2927 -0.1481
   32MOL   N29930121   7.583   6.060   1.808 -0.4489 -0.0308 -0.3729
   32MOL   C30030122   7.455   6.044   1.772 -0.7370 -0.0461 -0.3176
   32MOL   O30130123   7.369   6.127   1.790 -0.7442  0.3020 -0.3330
   32MOL   C30230124   7.418   5.912   1.716 -0.1932 -0.3998  0.2353
   32MOL   C30330125   7.291   5.856   1.779 -0.2640 -0.0748  0.1665
   32MOL   C30430126   7.301   5.787   1.910  0.4740  0.0410 -0.1174
   32MOL   C30530127   7.295   5.874   2.039 -0.7375 -0.7347 -0.2680
   32MOL   C30630128   7.157   5.948   2.064  0.8173 -0.3490  0.2506
   32MOL   C30730129   7.139   6.009   2.211  0.2193  0.5206  0.9123
   32MOL   C30830130   6.987   6.039   2.238  0.1341 -0.2074 -0.3286
   32MOL   C30930131   6.889   5.914   2.252  0.7591  0.2333 -0.0361
   32MOL   C31030132   6.748   5.957   2.274  0.1949  0.0549 -0.4492
   32MOL   O31130133   6.715   6.071   2.247  0.7595 -0.2522  0.0342
   32MOL   H31230134   7.711   5.846   1.959  1.5138  1.4114 -0.2336
   32MOL   H31330135   7.593   6.007   2.107  0.4745 -0.6549 -0.8328
   32MOL   H31430136   7.707   5.956   2.230 -1.6926 -1.2274  0.5220
   32MOL   H31530137   0.156   5.987   2.204 -0.0875  0.2640 -0.4155
   32MOL   H31630138   0.340   6.125   2.118  2.2054  2.7807 -0.5492
   32MOL   H31730139   0.298   6.296   1.927 -1.9385  2.2417  0.8149
   32MOL   H31830140   0.069   6.300   1.829  2.6668 -2.0565 -1.3614
   32MOL   H31930141   7.618   6.267   1.874  0.7199 -0.3808 -0.3794
   32MOL   H32030142   7.565   6.155   1.988  1.5976 -0.6699  0.4022
   32MOL   H32130143   7.647   5.988   1.778 -0.1196  1.0710 -2.3476
   32MOL   H32230144   7.396   5.942   1.613  0.6330  2.2211  0.7789
   32MOL   H32330145   7.498   5.839   1.720  1.4865  1.4284  0.8426
   32MOL   H32430146   7.253   5.781   1.711 -1.3393  1.4854 -0.9727
   32MOL   H32530147   7.206   5.923   1.767 -0.0924 -0.1799 -1.8202
   32MOL   H32630148   7.386   5.719   1.910  1.3776  1.1513 -0.6137
   32MOL   H32730149   7.211   5.726   1.912 -1.1988  2.3295 -2.5036
   32MOL   H32830150   7.306   5.798   2.116  1.9074  0.0628  0.1717
   32MOL   H32930151   7.378   5.944   2.045 -1.4009  0.0181  0.1610
   32MOL   H33030152   7.139   6.024   1.988  0.3659  0.0271  0.7282
   32MOL   H33130153   7.090   5.863   2.050  0.2809  0.1743 -0.3965
   32MOL   H33230154   7.193   6.103   2.225 -0.6600  0.9483  1.4921
   32MOL   H33330155   7.182   5.957   2.297 -0.0384  0.2970  0.9043
   32MOL   H33430156   6.979   6.092   2.333  0.3915  1.7832 -1.4083
   32MOL   H33530157   6.945   6.106   2.163  0.4928 -0.9820 -1.2355
   32MOL   H33630158   6.876   5.852   2.164 -1.0641 -0.2351  0.5463
   32MOL   H33730159   6.924   5.852   2.335 -1.6821 -1.3414 -0.1478
   32MOL   N33830160   6.671   5.861   2.330  0.0233  0.2744  0.4665
   32MOL   C33930161   6.534   5.885   2.365 -0.2575 -0.2718  0.4892
   32MOL   C34030162   6.531   5.928   2.511  0.1443  0.6898  0.3865
   32MOL   C34130163   6.499   6.060   2.554  0.3146 -0.1601  0.0425
   32MOL   C34230164   6.498   6.096   2.683 -0.1648 -0.5380  0.3363
   32MOL   C34330165   6.519   6.003   2.784  0.7828  0.8830  0.1921
   32MOL   C34430166   6.555   5.869   2.749  0.6788 -0.0409 -0.2169
   32MOL   C34530167   6.559   5.834   2.616 -0.3972 -0.0082  0.6016
   32MOL   C34630168   6.595   5.691   2.586  0.3249 -0.1594  0.5738
   32MOL   N34730169   6.730   5.658   2.633 -0.4182  0.0643 -1.1564
   32MOL   C34830170   6.842   5.621   2.572  0.0218 -0.0468 -0.0399
   32MOL   O34930171   6.855   5.630   2.447  0.6837 -0.2177 -0.0807
   32MOL   C35030172   6.959   5.572   2.661 -0.0612 -0.1324  0.3818
   32MOL   C35130173   7.100   5.601   2.594 -0.0022 -0.0578  0.1433
   32MOL   C35230174   7.147   5.753   2.581  0.1946 -0.1956 -0.3784
   32MOL   C35330175   7.284   5.761   2.513  0.7380  0.1592  0.0108
   32MOL   C35430176   7.349   5.899   2.535  0.0278  0.5284 -0.4490
   32MOL   C35530177   7.486   5.897   2.466 -0.4511  0.4283 -0.0217
   32MOL   C35630178   7.561   6.023   2.489  0.4332 -0.1383 -0.0571
   32MOL   C35730179   7.497   6.151   2.424  0.2893  0.0849 -0.1996
   32MOL   C35830180   7.420   6.235   2.522 -0.0469  0.5617  0.0611
   32MOL   O35930181   7.473   6.281   2.622 -0.0397  0.0032 -0.3056
   32MOL   H36030182   6.695   5.764   2.314  0.2044  0.3046  0.5580
   32MOL   H36130183   6.489   5.968   2.310  2.3135  0.7038 -0.2328
   32MOL   H36230184   6.475   5.795   2.350  0.1920 -0.4298 -0.3769
   32MOL   H36330185   6.489   6.138   2.480 -0.4614 -2.2520 -2.1570
   32MOL   H36430186   6.469   6.199   2.699  0.3762 -0.2444 -0.5066
   32MOL   H36530187   6.507   6.035   2.887 -0.2214  2.0771 -0.2920
   32MOL   H36630188   6.560   5.786   2.818 -1.6017  0.0676  0.1344
   32MOL   H36730189   6.584   5.659   2.483  0.6323  0.4169  0.3593
   32MOL   H36830190   6.528   5.619   2.634  0.4521  0.2312  1.3613
   32MOL   H36930191   6.729   5.626   2.729 -1.6031 -1.1308 -1.5530
   32MOL   H37030192   6.953   5.467   2.690 -2.3956 -0.2626 -0.5287
   32MOL   H37130193   6.942   5.633   2.750  1.0277  0.4538  0.1991
   32MOL   H37230194   7.106   5.567   2.491  0.5006 -0.5910  0.3435
   32MOL   H37330195   7.172   5.551   2.658 -1.7925 -1.9863  0.7104
   32MOL   H37430196   7.068   5.815   2.539 -0.1205 -0.9682 -0.9309
   32MOL   H37530197   7.150   5.797   2.681  2.2351 -0.6669 -0.2254
   32MOL   H37630198   7.288   5.727   2.410  0.9670  1.8333 -0.5514
   32MOL   H37730199   7.355   5.687   2.551  0.8832  0.4172  0.2441
   32MOL   H37830200   7.280   5.978   2.504 -1.1821 -0.0570  0.6673
   32MOL   H37930201   7.351   5.919   2.642  0.0666  1.3203 -0.5951
   32MOL   H38030202   7.475   5.869   2.361  3.2325  0.7412 -0.5694
   32MOL   H38130203   7.543   5.812   2.507 -0.6720  0.4699  0.3679
   32MOL   H38230204   7.583   6.033   2.595 -0.2086 -0.3334  0.0956
   32MOL   H38330205   7.658   6.008   2.442  0.0916  1.3760 -1.2980
   32MOL   H38430206   7.433   6.123   2.340 -1.1263  0.8957  0.5870
   32MOL   H38530207   7.571   6.218   2.379  0.0753  0.9859  0.7837
   32MOL   N38630208   7.293   6.256   2.491 -0.0707 -0.6595  0.4142
   32MOL   C38730209   7.191   6.310   2.579  0.1383  0.0626  0.3211
   32MOL   C38830210   7.089   6.216   2.624 -0.0586  0.6801  0.3360
   32MOL   C38930211   6.972   6.202   2.549 -0.3039 -0.1997 -0.2368
   32MOL   C39030212   6.861   6.130   2.583  0.0830  0.6867 -0.4674
   32MOL   C39130213   6.874   6.047   2.703  0.1586  0.1601  0.4507
   32MOL   C39230214   6.994   6.054   2.776 -0.4876 -0.3643 -0.0195
   32MOL   C39330215   7.103   6.142   2.740 -0.2035 -0.0111  0.8365
   32MOL   C39430216   7.217   6.158   2.831 -0.2996  0.6962 -0.0979
   32MOL   N39530217   7.246   6.047   2.913 -0.3142  0.2889 -0.2156
   32MOL   C39630218   7.279   6.041   3.044 -0.2375  0.0425 -0.2267
   32MOL   O39730219   7.299   6.141   3.112 -0.1882  0.0188 -0.0187
   32MOL   C39830220   7.300   5.910   3.112  0.3151  0.0748  0.4094
   32MOL   C39930221   7.444   5.884   3.159  0.4462 -0.6509  0.8973
   32MOL   C40030222   7.555   5.871   3.051  0.1628 -0.2755 -0.3429
   32MOL   C40130223   7.520   5.761   2.947 -0.2432  0.0725  0.3673
   32MOL   C40230224   7.640   5.712   2.862 -0.9406  0.5633  0.5957
   32MOL   C40330225   7.608   5.591   2.779 -0.1607  0.3927  0.1021
   32MOL   C40430226   7.613   5.451   2.836  1.0167 -0.1258 -0.0995
   32MOL   C40530227   7.541   5.335   2.765 -0.3257  0.3433  0.0476
   32MOL   C40630228   7.475   5.239   2.872 -0.2881 -0.5034  0.3593
   32MOL   O40730229   7.529   5.213   2.982 -0.2230  0.9599 -0.1897
   32MOL   H40830230   7.261   6.237   2.397  1.1510  2.3978 -0.7026
   32MOL   H40930231   7.237   6.354   2.667  1.6345  1.2944 -1.0336
   32MOL   H41030232   7.148   6.394   2.524  0.8630  0.6483  0.6354
   32MOL   H41130233   6.960   6.260   2.459 -0.2895 -3.0825 -2.1350
   32MOL   H41230234   6.778   6.135   2.514 -0.8247  0.6858  0.5991
   32MOL   H41330235   6.797   5.975   2.725 -0.5464 -0.0884 -2.6164
   32MOL   H41430236   7.004   5.996   2.867 -1.3707 -1.1504 -0.4297
   32MOL   H41530237   7.192   6.237   2.902 -1.3273 -0.1513  0.5091
   32MOL   H41630238   7.308   6.183   2.778  0.0614  1.1836  0.7332
   32MOL   H41730239   7.238   5.958   2.865  0.6870 -0.3195  0.7274
   32MOL   H41830240   7.236   5.900   3.200  0.6173  1.4117  0.7953
   32MOL   H41930241   7.269   5.828   3.048 -0.3591 -0.1812  1.0544
   32MOL   H42030242   7.431   5.788   3.208 -2.6206 -0.5018  0.4308
   32MOL   H42130243   7.471   5.955   3.237  0.0393  2.5971 -1.7576
   32MOL   H42230244   7.648   5.841   3.097 -0.7593 -1.6978  0.6037
   32MOL   H42330245   7.567   5.971   3.009  0.0188 -0.3824 -0.6438
   32MOL   H42430246   7.485   5.677   3.008  2.1196  0.2108  2.0031
   32MOL   H42530247   7.439   5.791   2.882  0.4891  2.2264  0.4142
   32MOL   H42630248   7.682   5.787   2.794 -2.2065  0.7500  0.0099
   32MOL   H42730249   7.723   5.688   2.928  0.2461 -2.1357 -1.7798
   32MOL   H42830250   7.667   5.587   2.687  1.4177  0.6959  1.1013
   32MOL   H42930251   7.510   5.623   2.742  0.6071  4.1996  1.0786
   32MOL   H43030252   7.561   5.479   2.928  1.0929  0.3866 -0.2142
   32MOL   H43130253   7.709   5.419   2.875  0.8519 -4.5460 -2.8519
   32MOL   H43230254   7.602   5.269   2.704 -0.2508  1.3448 -0.9583
   32MOL   H43330255   7.460   5.371   2.702 -0.7454 -0.2539  0.2432
   32MOL   N43430256   7.346   5.203   2.850 -0.7814  0.3370  0.2052
   32MOL   C43530257   7.267   5.110   2.933 -0.9302 -0.1986  0.3168
   32MOL   C43630258   7.116   5.111   2.914  0.0205  0.5327 -0.5460
   32MOL   C43730259   7.049   5.233   2.888  0.2518 -0.2239 -0.1153
   32MOL   C43830260   6.908   5.244   2.879 -0.2382  0.3633 -0.2462
   32MOL   C43930261   6.834   5.128   2.879 -0.1045  0.1266 -0.4025
   32MOL   C44030262   6.893   5.008   2.907  0.3208  0.3779 -0.4434
   32MOL   C44130263   7.033   4.997   2.923  0.4691 -0.0516 -0.2825
   32MOL   C44230264   7.092   4.861   2.946 -0.1201 -0.3755 -0.0733
   32MOL   N44330265   7.160   4.842   3.080  0.4654  0.2114  0.2715
   32MOL   C44430266   7.282   4.794   3.103 -0.2175  0.2682 -0.6012
   32MOL   O44530267   7.371   4.786   3.023 -0.0544 -0.4846  0.0073
   32MOL   C44630268   7.307   4.758   3.249  0.0582 -0.1810 -0.5789
   32MOL   C44730269   7.416   4.843   3.318 -0.1469 -0.4802  0.0668
   32MOL   C44830270   7.413   4.846   3.476 -0.0581 -0.7245  0.0745
   32MOL   C44930271   7.534   4.903   3.551 -0.1682 -0.0903 -0.1477
   32MOL   C45030272   7.558   5.045   3.498 -0.2487 -0.7053  0.1485
   32MOL   C45130273   7.513   5.153   3.605  0.0411 -0.0222 -0.2699
   32MOL   C45230274   7.558   5.290   3.557 -0.3380 -0.2111  0.1086
   32MOL   C45330275   7.487   5.412   3.624 -0.0716 -0.0529  0.1226
   32MOL   C45430276   7.507   5.421   3.771 -0.4084 -0.2666  0.1458
   32MOL   O45530277   7.606   5.375   3.832  0.4995  0.4152  1.1784
   32MOL   H45630278   7.308   5.230   2.760 -2.0831 -0.2062  0.5792
   32MOL   H45730279   7.284   5.125   3.040  0.6140  0.5659 -0.0326
   32MOL   H45830280   7.314   5.016   2.907  0.5798  0.9054 -1.0452
   32MOL   H45930281   7.108   5.323   2.882  0.0184 -0.1382 -1.1319
   32MOL   H46030282   6.864   5.341   2.862 -2.3747 -0.8040 -1.5686
   32MOL   H46130283   6.726   5.134   2.871  0.0729  0.9175 -2.5261
   32MOL   H46230284   6.832   4.920   2.906 -0.7737  1.1342 -0.8350
   32MOL   H46330285   7.159   4.841   2.862  0.5040  1.4212 -0.0281
   32MOL   H46430286   7.017   4.783   2.936  0.2436 -1.0745  2.2697
   32MOL   H46530287   7.100   4.854   3.160  0.3511 -1.0191  0.3763
   32MOL   H46630288   7.323   4.650   3.248 -0.4073 -0.2442 -1.0261
   32MOL   H46730289   7.218   4.770   3.311 -0.0780  0.5933 -0.9146
   32MOL   H46830290   7.396   4.942   3.280  1.0417 -0.1956  0.1468
   32MOL   H46930291   7.514   4.810   3.282  1.1376  1.9206  1.2225
   32MOL   H47030292   7.326   4.903   3.507 -0.9704 -1.1915 -1.5546
   32MOL   H47130293   7.400   4.749   3.525  1.4469  0.0378  2.0321
   32MOL   H47230294   7.527   4.900   3.660  1.0308  2.2672  0.0237
   32MOL   H47330295   7.624   4.850   3.517 -1.0475  0.7808 -4.0713
   32MOL   H47430296   7.663   5.056   3.471 -0.8241  2.0541 -1.0665
   32MOL   H47530297   7.513   5.077   3.404  2.3638  0.9961 -0.5561
   32MOL   H47630298   7.552   5.130   3.704 -1.5603  0.1016  0.4002
   32MOL   H47730299   7.407   5.148   3.628 -0.2323  0.2848 -1.4432
   32MOL   H47830300   7.667   5.301   3.561 -0.4081  0.5649 -0.0530
   32MOL   H47930301   7.524   5.298   3.454  0.7872  2.3822 -0.1198
   32MOL   H48030302   7.523   5.503   3.577  0.7340  0.6207  2.0117
   32MOL   H48130303   7.382   5.410   3.596 -0.0466 -2.7754  0.0304
   32MOL   N48230304   7.422   5.507   3.828  0.1136  0.3209 -0.0323
   32MOL   C48330305   7.412   5.550   3.968  0.3128  0.3521  0.5649
   32MOL   C48430306   7.273   5.519   4.026 -0.1863  0.5795 -0.1424
   32MOL   C48530307   7.188   5.416   3.968 -0.6710 -0.2604 -0.3841
   32MOL   C48630308   7.059   5.393   4.014  0.3532  0.5337 -0.6482
   32MOL   C48730309   7.012   5.473   4.114 -0.1484 -0.1090  0.3519
   32MOL   C48830310   7.090   5.570   4.180  0.0403 -0.0139  0.5613
   32MOL   C48930311   7.222   5.589   4.138  0.1766 -0.0464  0.0786
   32MOL   C49030312   7.309   5.686   4.216 -1.0800 -0.3319 -0.5127
   32MOL   N49130313   7.267   5.697   4.353 -0.8030  0.0408  0.4967
   32MOL   C49230314   7.262   5.814   4.417  0.1079 -0.9686  0.0201
   32MOL   O49330315   7.294   5.930   4.376 -0.1018 -0.2420  0.6745
   32MOL   C49430316   7.200   5.788   4.554 -0.1982 -0.2520 -0.8643
   32MOL   C49530317   7.224   5.898   4.660  0.1297 -0.2199 -0.2032
   32MOL   C49630318   7.128   5.892   4.774 -0.3987 -0.5688  0.2556
   32MOL   C49730319   7.125   6.026   4.855 -0.6166 -0.4268  0.6864
   32MOL   C49830320   7.015   6.030   4.959  0.1455  0.7296  0.4964
   32MOL   C49930321   6.876   6.081   4.911 -0.0097 -0.3258 -0.0975
   32MOL   C50030322   6.767   6.091   5.026 -0.0084  0.5559  0.3930
   32MOL   C50130323   6.627   6.127   4.977 -0.5012  0.4998 -0.2166
   32MOL   C50230324   6.555   6.019   4.893 -0.0749 -0.5284  0.3503
   32MOL   O50330325   6.533   5.913   4.944 -0.0369 -0.5067 -0.2493
   32MOL   H50430326   7.351   5.548   3.770 -1.2232 -0.2345  1.1890
   32MOL   H50530327   7.480   5.483   4.020  1.0743  0.9813  0.3960
   32MOL   H50630328   7.453   5.651   3.974  1.6890 -0.2592  2.0713
   32MOL   H50730329   7.220   5.361   3.880 -0.3661  0.8920 -1.0026
   32MOL   H50830330   7.006   5.310   3.969 -0.3513  1.4187 -1.4965
   32MOL   H50930331   6.917   5.453   4.163  1.0359 -0.7492  2.4539
   32MOL   H51030332   7.054   5.620   4.269 -0.8119  0.3077  0.0381
   32MOL   H51130333   7.305   5.783   4.166  2.6669 -0.4745 -1.2812
   32MOL   H51230334   7.417   5.665   4.216 -0.6772  1.6498 -1.3145
   32MOL   H51330335   7.257   5.606   4.396  0.9367 -1.1200 -1.4331
   32MOL   H51430336   7.236   5.690   4.583  0.3972 -0.8466 -3.4557
   32MOL   H51530337   7.095   5.761   4.546  0.0186 -1.0768 -0.9644
   32MOL   H51630338   7.216   6.000   4.622 -0.3113  1.4312  4.0617
   32MOL   H51730339   7.328   5.899   4.694 -0.1001  2.3569  0.5227
   32MOL   H51830340   7.027   5.882   4.735  0.3555  0.3228 -2.0354
   32MOL   H51930341   7.146   5.813   4.846  2.7015  0.4001  0.6400
   32MOL   H52030342   7.225   6.045   4.894  0.8458  1.5893 -3.7774
   32MOL   H52130343   7.106   6.116   4.797  0.8291  0.8855  2.2140
   32MOL   H52230344   6.998   5.930   5.001  1.4344 -0.4165 -1.6519
   32MOL   H52330345   7.053   6.086   5.044  0.8440 -0.3591  0.9139
   32MOL   H52430346   6.841   6.028   4.823 -3.0589  0.4558  0.5780
   32MOL   H52530347   6.877   6.175   4.857 -2.6574 -0.8928 -1.2171
   32MOL   H52630348   6.783   6.005   5.091 -1.2874  0.4648  0.6001
   32MOL   H52730349   6.796   6.161   5.105 -1.0512  0.1244  1.1674
   32MOL   H52830350   6.630   6.220   4.920  1.6636  0.2851 -0.4914
   32MOL   H52930351   6.571   6.155   5.066  2.4508  3.1985  0.8868
   32MOL   N53030352   6.517   6.053   4.771  0.7118 -0.1668  0.3375
   32MOL   C53130353   6.480   5.955   4.670 -0.3435  0.0371  0.6196
   32MOL   C53230354   6.598   5.882   4.606  0.8444  0.5225  0.7454
   32MOL   C53330355   6.688   5.955   4.532 -0.4606 -0.5382 -0.4176
   32MOL   C53430356   6.794   5.896   4.468 -0.4720  0.0464  0.3981
   32MOL   C53530357   6.819   5.760   4.464  0.0223  0.4972 -0.2128
   32MOL   C53630358   6.734   5.682   4.542 -0.2289 -0.8375  0.0266
   32MOL   C53730359   6.628   5.740   4.615  0.4141 -0.4336 -0.2109
   32MOL   C53830360   6.535   5.648   4.694  0.2397 -0.4270  0.4404
   32MOL   N53930361   6.579   5.506   4.696 -0.6869 -0.0221  0.0014
   32MOL   C54030362   6.608   5.434   4.802  0.4235  0.1000 -0.2468
   32MOL   O54130363   6.578   5.467   4.917  0.2449 -0.0916  0.8385
   32MOL   C54230364   6.666   5.299   4.778 -0.4236  0.5328 -0.0736
   32MOL   C54330365   6.552   5.194   4.802 -0.2176 -0.7082 -0.1290
   32MOL   C54430366   6.614   5.050   4.801  0.1271  0.3589 -0.3549
   32MOL   C54530367   6.515   4.932   4.815 -0.3295  0.2846  0.0406
   32MOL   C54630368   6.457   4.911   4.952  0.2679  0.1450 -0.3498
   32MOL   C54730369   6.350   4.808   4.962  0.0891  0.3652 -0.7340
   32MOL   C54830370   6.269   4.810   5.087 -0.0330 -0.5826 -0.1192
   32MOL   C54930371   6.343   4.736   5.195 -0.0611 -0.6870 -1.0368
   32MOL   C55030372   6.249   4.747   5.319  0.9333  0.2217  0.5144
   32MOL   O55130373   6.243   4.847   5.392 -0.6428  0.2182 -0.5131
   32MOL   H55230374   6.516   6.153   4.754 -2.1925  0.0438  1.4617
   32MOL   H55330375   6.436   6.012   4.587  1.2376  0.4252  0.0348
   32MOL   H55430376   6.406   5.883   4.704  1.6976 -2.2995  0.2414
   32MOL   H55530377   6.683   6.063   4.528  2.7167 -0.3216 -0.3377
   32MOL   H55630378   6.859   5.965   4.415  0.9522 -1.1239  0.5755
   32MOL   H55730379   6.900   5.713   4.409  0.0811  0.7468 -0.3359
   32MOL   H55830380   6.749   5.575   4.539  0.2661 -0.7516 -0.7714
   32MOL   H55930381   6.432   5.653   4.660 -0.0830  3.1108  1.8337
   32MOL   H56030382   6.534   5.689   4.795 -0.0298  1.3978 -0.2883
   32MOL   H56130383   6.578   5.458   4.606 -2.6354 -0.6967  0.3545
   32MOL   H56230384   6.755   5.289   4.839  0.6787  0.4533 -1.6632
   32MOL   H56330385   6.700   5.287   4.675  0.0150 -1.9414  0.3391
   32MOL   H56430386   6.489   5.190   4.713  0.5390 -0.3132 -0.6875
   32MOL   H56530387   6.490   5.205   4.891 -0.0270  2.9251 -0.3775
   32MOL   H56630388   6.675   5.045   4.711  1.4052 -0.9424  0.5558
   32MOL   H56730389   6.681   5.038   4.887 -0.7341 -0.2116  0.2409
   32MOL   H56830390   6.444   4.945   4.734 -1.1963 -1.2362  0.5323
   32MOL   H56930391   6.568   4.838   4.794  0.8812  0.8206  0.6702
   32MOL   H57030392   6.536   4.891   5.024 -0.9895 -1.2886  0.6594
   32MOL   H57130393   6.414   5.007   4.982  2.2327  1.7463 -2.5016
   32MOL   H57230394   6.401   4.712   4.958 -0.9193 -0.2595  0.8832
   32MOL   H57330395   6.272   4.825   4.888 -1.0449 -0.2378  0.2976
   32MOL   H57430396   6.252   4.911   5.123  1.0794 -0.3379 -0.2412
   32MOL   H57530397   6.174   4.759   5.077  0.0203 -0.3939 -1.6451
   32MOL   H57630398   6.437   4.783   5.226 -1.6135  0.3547  2.3771
   32MOL   H57730399   6.368   4.634   5.164  0.8349 -0.4702 -1.0590
   32MOL   N57830400   6.169   4.643   5.332  0.3084  0.3881 -0.5672
   32MOL   C57930401   6.055   4.631   5.425 -0.9078  0.5166 -0.2546
   32MOL   C58030402   5.922   4.611   5.356 -0.3919  0.0591  0.4859
   32MOL   C58130403   5.910   4.596   5.217  0.4544 -0.1773 -0.8945
   32MOL   C58230404   5.788   4.565   5.152  0.1758 -0.1140 -0.4782
   32MOL   C58330405   5.670   4.556   5.226 -0.1614  0.3051 -0.0156
   32MOL   C58430406   5.673   4.572   5.367 -0.2447 -0.1869 -0.3491
   32MOL   C58530407   5.800   4.602   5.429  0.2038  0.4697 -0.2077
   32MOL   C58630408   5.803   4.610   5.584 -0.4270 -0.3447  0.4614
   32MOL   N58730409   5.832   4.748   5.633 -0.5744 -0.4223 -0.6629
   32MOL   C58830410   5.739   4.845   5.669  0.1833  0.8721 -0.3572
   32MOL   O58930411   5.619   4.827   5.688  0.5969 -0.1146  0.0405
   32MOL   C59030412   5.798   4.987   5.685 -0.5482  0.4618  0.2147
   32MOL   C59130413   5.744   5.047   5.810 -0.4036  0.3109 -0.2937
   32MOL   C59230414   5.822   5.178   5.858 -0.3663  0.0461 -0.2809
   32MOL   C59330415   5.799   5.295   5.761 -0.1150  0.4630  0.0567
   32MOL   C59430416   5.922   5.396   5.765 -0.3463 -0.0874 -0.6355
   32MOL   C59530417   5.927   5.486   5.640 -0.7374  0.5317  0.3697
   32MOL   C59630418   5.961   5.407   5.522 -0.1531  0.4358 -0.1578
   32MOL   C59730419   6.004   5.495   5.402 -0.3572  0.3705 -0.0459
   32MOL   C59830420   5.896   5.574   5.323  0.3178  0.1852 -0.8318
   32MOL   O59930421   5.779   5.545   5.344  0.3401 -0.0842  0.5604
   32MOL   H60030422   6.183   4.572   5.262  1.2563  0.8780 -0.8754
   32MOL   H60130423   6.055   4.726   5.479  0.8584 -0.6706  1.9458
   32MOL   H60230424   6.068   4.554   5.501  0.2030  1.6497  0.7245
   32MOL   H60330425   6.002   4.592   5.161  1.1229  2.4871 -0.0467
   32MOL   H60430426   5.774   4.537   5.049  0.5404  2.4785 -1.2596
   32MOL   H60530427   5.582   4.513   5.181 -0.5990 -1.3526  2.3395
   32MOL   H60630428   5.582   4.552   5.422  0.5341 -3.5974 -0.1556
   32MOL   H60730429   5.877   4.545   5.630 -0.2770 -0.6366 -0.1906
   32MOL   H60830430   5.709   4.577   5.628 -0.8945 -1.4923 -1.3348
   32MOL   H60930431   5.929   4.777   5.631 -0.9950  1.0539 -0.2543
   32MOL   H61030432   5.759   5.037   5.597 -0.1305  0.9273  0.2933
   32MOL   H61130433   5.906   4.990   5.675 -0.4982 -0.9713  0.1833
   32MOL   H61230434   5.748   4.972   5.888  0.0366  0.1562 -0.4648
   32MOL   H61330435   5.637   5.069   5.804 -0.2969  1.5242  1.9352
   32MOL   H61430436   5.782   5.211   5.954  3.0366  0.7973  0.9393
   32MOL   H61530437   5.926   5.149   5.875 -1.0548 -0.9966  2.2946
   32MOL   H61630438   5.783   5.257   5.660  0.1866 -0.5034  0.3696
   32MOL   H61730439   5.715   5.364   5.775  0.2388  1.1328 -1.0590
   32MOL   H61830440   5.902   5.463   5.849 -0.8370  1.4350 -1.9441
   32MOL   H61930441   6.017   5.346   5.785 -0.9590  0.0052  2.8240
   32MOL   H62030442   5.998   5.565   5.667 -1.1248  0.4213  1.7425
   32MOL   H62130443   5.834   5.536   5.617 -1.6412 -0.9973  0.6106
   32MOL   H62230444   6.048   5.352   5.557 -1.0473 -0.7688  0.2085
   32MOL   H62330445   5.883   5.334   5.497  0.9712 -0.3910 -1.3187
   32MOL   H62430446   6.094   5.552   5.426 -0.8996  1.5155 -0.6990
   32MOL   H62530447   6.028   5.426   5.321 -1.9037 -0.8440  0.5163
   32MOL   N62630448   5.932   5.673   5.247 -0.1099  0.4754 -0.4763
   32MOL   C62730449   5.851   5.778   5.193 -0.2747 -0.2312 -0.0737
   32MOL   C62830450   5.930   5.839   5.077  0.1013  0.5207  0.2851
   32MOL   C62930451   5.901   5.798   4.946  0.3217 -0.3494 -0.7276
   32MOL   C63030452   5.974   5.847   4.831  0.3077 -0.6973  0.2061
   32MOL   C63130453   6.077   5.932   4.855 -0.6404 -0.4412  0.4769
   32MOL   C63230454   6.108   5.976   4.987  0.6490  0.0600 -0.0086
   32MOL   C63330455   6.029   5.936   5.094 -0.4542  0.1327  0.9275
   32MOL   C63430456   6.057   6.004   5.227 -0.5019  0.4770  0.0166
   32MOL   N63530457   6.194   5.981   5.273 -0.5273 -0.3001  0.1130
   32MOL   C63630458   6.299   6.059   5.273 -0.2018 -0.2268  0.3390
   32MOL   O63730459   6.294   6.177   5.231 -0.2532  0.4888  0.3901
   32MOL   C63830460   6.424   5.989   5.311 -0.2627  0.0284 -1.5774
   32MOL   C63930461   6.537   6.073   5.380  0.5095  0.1413  0.0273
   32MOL   C64030462   6.666   5.998   5.391  0.3298  0.1516 -0.3224
   32MOL   C64130463   6.773   6.083   5.450 -0.7720 -0.6527 -0.5949
   32MOL   C64230464   6.910   6.023   5.437  0.6203 -0.2056  0.2218
   32MOL   C64330465   7.013   6.107   5.521 -1.0403  0.0942 -0.4797
   32MOL   C64430466   7.039   6.253   5.481 -0.0475 -0.3701  0.0740
   32MOL   C64530467   7.102   6.261   5.339  0.4972 -0.0014  0.2938
   32MOL   C64630468   7.247   6.215   5.338  0.3122 -0.0632  0.2384
   32MOL   O64730469   7.318   6.231   5.437  0.1818 -0.0189  0.0085
   32MOL   H64830470   6.030   5.692   5.229 -0.4256  1.1034 -1.6446
   32MOL   H64930471   5.837   5.842   5.279  1.7154 -0.6435  0.5865
   32MOL   H65030472   5.754   5.745   5.158 -0.4482  1.2261 -1.0237
   32MOL   H65130473   5.824   5.725   4.931 -1.7022  1.7279 -0.7731
   32MOL   H65230474   5.962   5.813   4.729  3.5451  0.3789 -0.5799
   32MOL   H65330475   6.133   5.974   4.773  0.3527 -1.3168  0.6955
   32MOL   H65430476   6.184   6.052   4.998  0.3412  0.3516  0.1007
   32MOL   H65530477   5.973   5.988   5.295 -0.8378  0.6887 -0.3484
   32MOL   H65630478   6.053   6.108   5.196 -1.9988  1.5178  3.4748
   32MOL   H65730479   6.210   5.889   5.313  2.6943  0.1152 -0.1018
   32MOL   H65830480   6.456   5.956   5.212 -0.4934  1.1358 -2.0311
   32MOL   H65930481   6.395   5.909   5.378 -1.5426  0.1805 -1.9359
   32MOL   H66030482   6.514   6.107   5.480  1.2954  0.2087  0.1882
   32MOL   H66130483   6.566   6.164   5.327 -0.8674 -0.5214 -1.9615
   32MOL   H66230484   6.657   5.906   5.449 -1.5270  0.1936 -0.5258
   32MOL   H66330485   6.695   5.964   5.292  1.9168  0.8144 -0.0976
   32MOL   H66430486   6.773   6.178   5.396  0.3626 -1.0242 -1.2687
   32MOL   H66530487   6.757   6.098   5.557 -1.7167  0.6994 -0.9116
   32MOL   H66630488   6.911   5.916   5.457  2.1334 -0.1656  0.4666
   32MOL   H66730489   6.948   6.018   5.335  0.3844 -1.9279  0.2049
   32MOL   H66830490   7.107   6.054   5.508 -1.0603 -0.6108  1.9411
   32MOL   H66930491   6.995   6.097   5.628 -0.4476  0.2753 -0.3622
   32MOL   H67030492   6.946   6.309   5.477 -0.1018 -0.5259 -1.1480
   32MOL   H67130493   7.094   6.304   5.560 -2.3176  0.5454  1.1020
   32MOL   H67230494   7.095   6.359   5.293  0.9350  0.1703  0.5895
   32MOL   H67330495   7.046   6.202   5.267  0.8592 -0.6018  0.5014
   32MOL   N67430496   7.294   6.158   5.223  0.3016 -0.0590  0.1012
   32MOL   C67530497   7.432   6.119   5.205  0.2250 -0.0617 -0.0488
   32MOL   C67630498   7.453   6.006   5.103  0.2391 -0.0940  0.2355
   32MOL   C67730499   7.508   6.042   4.978  0.5834  0.1926  0.7183
   32MOL   C67830500   7.541   5.940   4.880  0.1913  0.3113  0.3754
   32MOL   C67930501   7.500   5.806   4.907  0.3670 -0.4341 -0.0549
   32MOL   C68030502   7.423   5.771   5.026  0.2698 -0.2373  1.0865
   32MOL   C68130503   7.404   5.870   5.121 -0.4397 -0.8886 -0.9401
   32MOL   C68230504   7.351   5.815   5.258  0.5709  0.6764 -0.9519
   32MOL   N68330505   7.440   5.834   5.367 -0.3286  0.2963 -0.3469
   32MOL   C68430506   7.416   5.827   5.497 -0.2501  0.0181 -0.7430
   32MOL   O68530507   7.307   5.793   5.546 -0.1842 -0.4712 -0.8958
   32MOL   C68630508   7.531   5.887   5.585 -0.1694  0.1443  0.0597
   32MOL   C68730509   7.483   5.992   5.692  0.0163 -0.6181 -0.0013
   32MOL   C68830510   7.592   6.031   5.790 -0.2761 -0.4644  0.2357
   32MOL   C68930511   7.585   6.182   5.824 -0.2471  0.2700 -0.2707
   32MOL   C69030512   7.689   6.224   5.932 -0.2305  0.9718 -0.0767
   32MOL   C69130513   7.682   6.368   5.965  0.3292 -0.2969  0.2629
   32MOL   C69230514   7.781   6.419   6.074  0.0964 -0.1041 -0.6907
   32MOL   C69330515   0.024   6.567   6.066  0.3202  0.6695 -0.8593
   32MOL   C69430516   0.132   6.618   5.974 -0.6672 -0.0876  0.0685
   32MOL   O69530517   0.115   6.585   5.859 -0.2531  0.7976  0.2495
   32MOL   H69630518   7.221   6.139   5.156  0.4511 -0.0839 -0.0525
   32MOL   H69730519   7.486   6.090   5.295  0.0293  1.4377  0.5743
   32MOL   H69830520   7.478   6.211   5.169 -2.4248  0.9041 -1.0658
   32MOL   H69930521   7.544   6.142   4.962 -2.0312  0.8821 -1.1390
   32MOL   H70030522   7.594   5.970   4.791  0.3148  2.7509  1.2241
   32MOL   H70130523   7.521   5.729   4.834  0.8991  0.2815 -0.6480
   32MOL   H70230524   7.416   5.665   5.049  0.6950 -0.9321 -1.7511
   32MOL   H70330525   7.335   5.707   5.261 -0.2663  0.8403  1.1221
   32MOL   H70430526   7.253   5.859   5.277  0.4813 -0.3201  1.0747
   32MOL   H70530527   7.527   5.878   5.344 -1.1199  1.8003 -0.4999
   32MOL   H70630528   7.611   5.934   5.526  0.6021 -0.7960  0.3375
   32MOL   H70730529   7.574   5.799   5.634 -0.2137 -0.5607 -1.1328
   32MOL   H70830530   7.408   5.945   5.756  0.7768 -0.3422  1.1176
   32MOL   H70930531   7.436   6.080   5.649  0.0915 -0.2768  0.6004
   32MOL   H71030532   7.575   5.968   5.878  0.6287 -1.4671 -0.2868
   32MOL   H71130533   7.692   6.004   5.756  1.5416  0.1445  4.6943
   32MOL   H71230534   7.587   6.237   5.730  0.0225  0.9759  0.1394
   32MOL   H71330535   7.493   6.219   5.868 -0.5021  0.6103 -1.0750
   32MOL   H71430536   7.672   6.151   6.012 -0.8630 -0.5387 -1.5550
   32MOL   H71530537   7.788   6.200   5.893 -0.4983 -0.8751  0.3299
   32MOL   H71630538   7.582   6.394   5.999 -0.2377 -0.9604 -0.8855
   32MOL   H71730539   7.690   6.427   5.874 -2.8596 -0.6510 -0.2989
   32MOL   H71830540   0.087   6.366   6.067 -0.4662 -1.1857 -0.3123
   32MOL   H71930541   7.744   6.391   6.173  1.0692 -1.3612 -0.6656
   32MOL   H72030542   0.055   6.596   6.167 -2.2835 -0.9775  0.4707
   32MOL   H72130543   7.723   6.622   6.041 -0.9178 -0.6461  0.6348
   32MOL   N72230544   0.239   6.685   6.018 -0.3025  0.8184 -0.0898
   32MOL   C72330545   0.361   6.727   5.939  0.4270  0.1677 -0.0271
   32MOL   C72430546   0.450   6.809   6.036  0.5953  0.2418 -0.0184
   32MOL   C72530547   0.425   6.945   6.041  0.0941 -0.0813 -0.3060
   32MOL   C72630548   0.491   7.028   6.138 -0.3011  0.2713  0.2105
   32MOL   C72730549   0.595   6.972   6.214  0.3819 -0.0756 -0.0417
   32MOL   C72830550   0.616   6.835   6.214 -0.1110 -0.0983 -0.1408
   32MOL   C72930551   0.544   6.752   6.127  0.5812  0.5787  0.2196
   32MOL   C73030552   0.578   6.608   6.116  0.4025  0.2370 -0.5889
   32MOL   N73130553   0.685   6.590   6.018  0.0956 -0.1228 -0.2262
   32MOL   C73230554   0.715   6.485   5.947  0.4892  0.6528 -0.2692
   32MOL   O73330555   0.655   6.382   5.963 -0.5172  0.7066 -0.3787
   32MOL   C73430556   0.829   6.489   5.842  0.6915 -0.6214 -0.1205
   32MOL   C73530557   0.807   6.386   5.736 -0.2889  0.3534  0.8078
   32MOL   C73630558   0.876   6.417   5.608 -0.5009 -0.2686 -0.1549
   32MOL   C73730559   0.866   6.295   5.510  0.2640  0.4251 -0.8457
   32MOL   C73830560   0.724   6.261   5.464  0.1924 -0.9540  0.6761
   32MOL   C73930561   0.654   6.369   5.375 -0.0271 -0.0647  0.2033
   32MOL   C74030562   0.519   6.329   5.323 -0.4281 -0.7269 -0.5402
   32MOL   C74130563   0.464   6.421   5.214  0.1448  0.8259  0.5115
   32MOL   C74230564   0.318   6.382   5.170  0.1990 -0.4010 -0.0501
   32MOL   O74330565   0.281   6.269   5.198  0.7204  0.2039 -0.2085
   32MOL   H74430566   0.246   6.713   6.115  0.7626  0.8009 -0.1490
   32MOL   H74530567   0.318   6.781   5.855  0.0789  2.0181  1.3342
   32MOL   H74630568   0.420   6.641   5.904  0.0526  0.6867 -2.0198
   32MOL   H74730569   0.338   6.980   5.987 -2.0511 -2.3762  1.5299
   32MOL   H74830570   0.470   7.133   6.151 -0.1831  0.8342 -3.6112
   32MOL   H74930571   0.646   7.036   6.285 -1.6223  0.0413  1.3280
   32MOL   H75030572   0.684   6.798   6.289 -1.5064  0.6647  1.5222
   32MOL   H75130573   0.485   6.553   6.103  0.6806 -1.1334  2.5725
   32MOL   H75230574   0.614   6.566   6.210 -1.1670  1.0887  0.4067
   32MOL   H75330575   0.736   6.669   5.982 -0.5173  0.5287  0.3247
   32MOL   H75430576   0.913   6.469   5.907 -0.0414  1.9581  1.7002
   32MOL   H75530577   0.835   6.590   5.801 -0.0791  0.2799  1.9189
   32MOL   H75630578   0.700   6.378   5.717 -0.0779 -0.7018 -0.0137
   32MOL   H75730579   0.839   6.287   5.769 -2.0927 -0.1029  1.2354
   32MOL   H75830580   0.822   6.506   5.574  0.3301  0.2521 -0.1192
   32MOL   H75930581   0.981   6.442   5.620 -0.6338 -0.7817  2.2802
   32MOL   H76030582   0.934   6.307   5.425  0.5762 -3.6565 -1.2761
   32MOL   H76130583   0.915   6.209   5.554  2.0300  2.1164  0.5950
   32MOL   H76230584   0.733   6.173   5.400  0.2447 -0.5875  0.1757
   32MOL   H76330585   0.661   6.224   5.544 -0.8884 -0.1752  0.1856
   32MOL   H76430586   0.711   6.392   5.285 -1.9225 -0.5064 -1.1250
   32MOL   H76530587   0.644   6.459   5.436 -0.9764  0.0429 -0.1154
   32MOL   H76630588   0.512   6.226   5.288  0.0697 -0.3709 -1.7287
   32MOL   H76730589   0.442   6.333   5.400  0.9237  0.5203  0.7681
   32MOL   H76830590   0.457   6.525   5.246 -0.3565  1.4257 -1.4367
   32MOL   H76930591   0.524   6.444   5.126  0.2779 -0.8217  0.1569
   32MOL   N77030592   0.252   6.471   5.093 -0.2229 -0.5214  0.1893
   32MOL   C77130593   0.114   6.451   5.052 -0.6770 -0.4913  0.2475
   32MOL   C77230594   0.104   6.507   4.908  0.3824  0.5020 -0.1281
   32MOL   C77330595   0.110   6.646   4.879 -0.9444  0.2632 -0.2755
   32MOL   C77430596   0.105   6.695   4.746 -0.3085  0.6844 -0.1535
   32MOL   C77530597   0.107   6.605   4.642  0.3240  0.2088 -0.2604
   32MOL   C77630598   0.111   6.468   4.666 -0.3844  0.5003  0.1586
   32MOL   C77730599   0.113   6.419   4.797 -0.2916  0.2919  0.6114
   32MOL   C77830600   0.109   6.264   4.832 -0.2098  1.3238  0.1837
   32MOL   N77930601   0.151   6.171   4.722  0.2872  0.3651 -0.1843
   32MOL   C78030602   0.274   6.160   4.673 -0.4128 -0.1047  0.4014
   32MOL   O78130603   0.370   6.185   4.743  0.0923 -0.2473 -0.2817
   32MOL   C78230604   0.286   6.097   4.531 -0.5120 -0.2679  0.6527
   32MOL   C78330605   0.423   6.027   4.508 -0.5514 -0.2122 -0.6137
   32MOL   C78430606   0.438   5.900   4.586  0.2270 -0.3778 -0.1129
   32MOL   C78530607   0.562   5.804   4.552  0.2609 -0.2403 -0.3032
   32MOL   C78630608   0.563   5.740   4.415 -0.3611 -0.1210  0.1964
   32MOL   C78730609   0.478   5.612   4.418  0.2449  0.7478 -0.0779
   32MOL   C78830610   0.332   5.628   4.382 -0.5673 -0.4617 -0.3465
   32MOL   C78930611   0.297   5.603   4.232  0.7255  0.2904  0.0273
   32MOL   C79030612   0.316   5.719   4.132  0.0120  0.2700  0.8503
   32MOL   O79130613   0.340   5.834   4.173  0.2929  0.4547 -0.4123
   32MOL   H79230614   0.294   6.560   5.070  0.6560 -1.5452 -2.3936
   32MOL   H79330615   0.079   6.349   5.069 -1.6121 -0.5704 -1.9670
   32MOL   H79430616   0.055   6.520   5.113 -1.0805 -0.6756  0.0637
   32MOL   H79530617   0.119   6.706   4.968  1.4381 -1.8244  0.9772
   32MOL   H79630618   0.099   6.802   4.731 -1.1430  0.3625 -2.3393
   32MOL   H79730619   0.102   6.636   4.539 -2.6344 -1.9837 -0.8610
   32MOL   H79830620   0.103   6.402   4.580 -1.6246 -0.9694  1.3665
   32MOL   H79930621   0.012   6.232   4.869  0.1676 -1.2734 -0.9383
   32MOL   H80030622   0.171   6.236   4.917  0.2143 -2.7496 -1.3310
   32MOL   H80130623   0.075   6.147   4.661  0.2635 -0.6917  0.2437
   32MOL   H80230624   0.288   6.176   4.455  2.4773 -1.0044 -0.0917
   32MOL   H80330625   0.202   6.029   4.514 -1.0641 -0.2671  3.1997
   32MOL   H80430626   0.515   6.083   4.524  1.0795 -2.7969 -0.5311
   32MOL   H80530627   0.429   6.002   4.402  0.2596  1.4800 -0.9790
   32MOL   H80630628   0.345   5.842   4.582 -0.0088  0.0042 -0.2327
   32MOL   H80730629   0.443   5.933   4.690 -0.2369  1.3675 -0.6235
   32MOL   H80830630   0.649   5.867   4.573 -0.4626  0.6209  0.1160
   32MOL   H80930631   0.568   5.729   4.632  0.4061 -0.6277 -0.6724
   32MOL   H81030632   0.535   5.809   4.335  1.2819  0.2224 -0.0996
   32MOL   H81130633   0.665   5.705   4.400 -0.5987 -0.3404 -0.9670
   32MOL   H81230634   0.482   5.566   4.517 -1.4854  2.2315  0.7306
   32MOL   H81330635   0.532   5.540   4.357  1.1952  1.1833  0.2411
   32MOL   H81430636   0.300   5.726   4.418 -2.4811 -0.6335 -1.5401
   32MOL   H81530637   0.274   5.554   4.437 -1.8809  1.2393  0.5996
   32MOL   H81630638   0.191   5.579   4.223  0.3589  1.4195  1.2192
   32MOL   H81730639   0.359   5.520   4.199  1.3228  0.6330  0.2997
   32MOL   N81830640   0.319   5.690   3.999 -0.7953  0.2823 -0.3921
   32MOL   C81930641   0.348   5.779   3.892 -0.1669  0.2778 -0.0437
   32MOL   C82030642   0.229   5.843   3.823  0.1177 -0.0397 -0.3516
   32MOL   C82130643   0.127   5.759   3.770 -0.1031 -0.7728 -0.8715
   32MOL   C82230644   0.006   5.807   3.707 -0.2403 -0.8449  0.3428
   32MOL   C82330645   0.006   5.940   3.674 -0.1655 -0.4549 -0.4564
   32MOL   C82430646   0.107   6.028   3.715 -0.0277  0.3791  0.3948
   32MOL   C82530647   0.218   5.985   3.796  0.0165  0.3978  0.0842
   32MOL   C82630648   0.323   6.086   3.840  0.4515 -0.2516 -0.8652
   32MOL   N82730649   0.308   6.126   3.982  1.1585  0.9746 -0.1089
   32MOL   C82830650   0.313   6.245   4.037  0.5348  0.2956  0.3440
   32MOL   O82930651   0.344   6.344   3.971  0.0838  0.2382 -0.4093
   32MOL   C83030652   0.288   6.251   4.193 -0.6367 -0.4818 -0.3237
   32MOL   C83130653   0.197   6.366   4.220  0.3555  0.0682 -0.2720
   32MOL   C83230654   0.055   6.327   4.251  0.0383  0.2281 -0.4179
   32MOL   C83330655   7.743   6.430   4.222 -0.6927 -0.0641  0.4306
   32MOL   C83430656   7.751   6.549   4.316  0.6151  0.8457  0.2702
   32MOL   C83530657   7.674   6.670   4.264 -0.2794  0.4181 -0.0613
   32MOL   C83630658   7.699   6.792   4.353  0.0586  0.0583  0.2123
   32MOL   C83730659   7.686   6.920   4.278 -0.1524  0.4255  0.3905
   32MOL   C83830660   7.548   6.932   4.219  0.1303 -0.1890 -0.1294
   32MOL   O83930661   7.447   6.922   4.292 -0.1251 -0.0545  0.3474
   32MOL   H84030662   0.286   5.596   3.979  0.4066 -0.4494  0.9720
   32MOL   H84130663   0.429   5.838   3.934  0.5048 -0.1020 -0.7767
   32MOL   H84230664   0.405   5.729   3.813 -1.6113  2.3663 -2.4518
   32MOL   H84330665   0.136   5.654   3.794  0.9248 -0.7998 -1.3319
   32MOL   H84430666   7.719   5.746   3.663 -0.8967  0.0448  0.2220
   32MOL   H84530667   7.714   5.982   3.618  0.6628  0.1779 -1.1976
   32MOL   H84630668   0.103   6.131   3.683  2.1575 -0.0810 -1.5093
   32MOL   H84730669   0.299   6.169   3.773 -0.4004 -0.5897 -0.9787
   32MOL   H84830670   0.426   6.059   3.818  0.4473 -1.4042  0.4525
   32MOL   H84930671   0.258   6.056   4.036 -1.3506  1.3232 -1.8551
   32MOL   H85030672   0.384   6.264   4.243 -0.7708 -0.5051 -0.0627
   32MOL   H85130673   0.254   6.156   4.233  2.0824 -1.2318  0.3329
   32MOL   H85230674   0.189   6.444   4.144 -1.1432  0.0831 -0.1146
   32MOL   H85330675   0.240   6.409   4.311  1.2905 -1.7536  0.1709
   32MOL   H85430676   0.044   6.287   4.352  2.2309  0.6783  0.0337
   32MOL   H85530677   0.039   6.231   4.202 -0.3494 -1.6787  3.2146
   32MOL   H85630678   7.754   6.478   4.125 -1.7341 -1.5486 -0.4287
   32MOL   H85730679   7.644   6.386   4.232 -0.5596 -0.6534 -0.8076
   32MOL   H85830680   7.707   6.519   4.411 -0.9356 -0.3119 -0.7818
   32MOL   H85930681   0.064   6.581   4.326  0.7089  0.9725 -0.9489
   32MOL   H86030682   7.569   6.644   4.260 -0.3315  0.7263 -0.6958
   32MOL   H86130683   7.718   6.687   4.166 -2.4873 -1.6226 -1.4469
   32MOL   H86230684   0.013   6.781   4.383 -0.3366  0.0452  1.6166
   32MOL   H86330685   7.635   6.785   4.441 -0.5002  4.1865  0.2152
   32MOL   H86430686   7.694   6.996   4.356 -0.9859  0.8036  0.1113
   32MOL   H86530687   7.772   6.928   4.211  0.8021  0.0149  1.5452
   32MOL   N86630688   7.531   6.967   4.093  0.1606  0.6612  0.2625
   32MOL   C86730689   7.405   7.004   4.035  0.1062  0.0530  0.0860
   32MOL   C86830690   7.370   7.156   4.038  0.3543 -0.3123 -0.2397
   32MOL   C86930691   7.465   7.256   4.015 -0.1238 -0.0593 -0.5232
   32MOL   C87030692   7.427   7.389   4.003 -0.2084 -0.4375 -0.2921
   32MOL   C87130693   7.297   7.427   4.023  0.9190 -0.1964  0.0958
   32MOL   C87230694   7.203   7.328   4.049  0.5207 -0.4852 -0.0848
   32MOL   C87330695   7.239   7.192   4.054 -0.1230 -0.6943 -0.4900
   32MOL   C87430696   7.129   7.094   4.086  0.1424 -0.1826  0.5807
   32MOL   N87530697   7.008   7.147   4.148  0.5647  0.4673  0.0472
   32MOL   C87630698   6.880   7.125   4.112  0.7746 -0.5181  0.2727
   32MOL   O87730699   6.847   7.061   4.013  0.2431 -0.5449  0.0093
   32MOL   C87830700   6.782   7.179   4.209 -0.5984 -0.1381  0.1422
   32MOL   C87930701   6.636   7.160   4.159  0.1186 -0.0406 -0.0955
   32MOL   C88030702   6.533   7.190   4.273  0.0702  1.0123  0.1304
   32MOL   C88130703   6.539   7.328   4.332 -0.4931  0.1675 -0.0223
   32MOL   C88230704   6.436   7.361   4.437 -0.4964 -0.4304 -0.0345
   32MOL   C88330705   6.443   7.505   4.483 -0.2695 -0.0692 -0.3890
   32MOL   C88430706   6.330   7.568   4.574 -0.1829  0.1731  0.4648
   32MOL   C88530707   6.340   7.723   4.597 -0.6143  0.7666 -0.1092
   32MOL   C88630708   6.311   0.014   4.476  0.2674 -0.6896 -0.1792
   32MOL   O88730709   6.195   0.047   4.444 -0.1261  0.4144 -0.6257
   32MOL   H88830710   7.613   6.981   4.036 -1.1612 -1.3983 -2.2685
   32MOL   H88930711   7.414   6.972   3.931 -1.7759  1.2952 -0.4730
   32MOL   H89030712   7.337   6.932   4.081 -0.1531  0.2390 -0.0136
   32MOL   H89130713   7.567   7.233   3.990  0.0415  1.6886 -1.5523
   32MOL   H89230714   7.500   7.468   3.992 -3.1364  2.6273  1.5682
   32MOL   H89330715   7.270   7.531   4.027 -0.7540 -0.6725  2.6193
   32MOL   H89430716   7.104   7.356   4.083  0.8536 -0.1947  0.6551
   32MOL   H89530717   7.166   7.025   4.162  1.5133 -0.6996 -0.5362
   32MOL   H89630718   7.101   7.043   3.994 -1.1627  0.2754  0.7177
   32MOL   H89730719   7.027   7.205   4.229  2.2080 -0.0017  0.0093
   32MOL   H89830720   6.804   7.283   4.234 -0.0577 -0.6012  1.6308
   32MOL   H89930721   6.795   7.126   4.303  0.0780 -0.1104  0.0622
   32MOL   H90030722   6.620   7.058   4.125 -1.3660  0.1096  0.1377
   32MOL   H90130723   6.616   7.214   4.066 -0.4401  1.8168  1.0736
   32MOL   H90230724   6.431   7.188   4.232 -0.4207  0.0293  1.3814
   32MOL   H90330725   6.522   7.119   4.355  2.6918 -0.0941 -0.4393
   32MOL   H90430726   6.636   7.327   4.383 -0.5678  0.1897  0.1204
   32MOL   H90530727   6.560   7.409   4.262 -1.4598  0.2271 -0.2485
   32MOL   H90630728   6.346   7.353   4.376  0.3835 -0.7289 -1.3187
   32MOL   H90730729   6.436   7.297   4.525 -1.0017 -0.3975 -0.0126
   32MOL   H90830730   6.455   7.574   4.399 -3.6878  0.3395 -0.6022
   32MOL   H90930731   6.534   7.518   4.542  0.0248  3.2980 -1.4931
   32MOL   H91030732   6.235   7.555   4.523  0.1991 -1.3968  0.1403
   32MOL   H91130733   6.320   7.520   4.672 -0.7079 -2.9240 -1.0514
   32MOL   H91230734   6.265   7.765   4.664 -1.3344 -1.5905  0.6171
   32MOL   H91330735   6.436   7.749   4.641  0.1878  0.6865 -1.7829
   32MOL   N91430736   6.418   0.043   4.400 -0.5245  0.3745  0.0630
   32MOL   C91530737   6.408   0.128   4.282 -0.5349 -0.8456  0.2666
   32MOL   C91630738   6.547   0.153   4.221 -0.7095  0.2170 -0.3396
   32MOL   C91730739   6.583   0.105   4.091  0.0541  0.4332  0.0227
   32MOL   C91830740   6.709   0.135   4.027 -0.1315  0.2073  0.2739
   32MOL   C91930741   6.811   0.207   4.102  0.5091 -0.5888  0.4724
   32MOL   C92030742   6.772   0.252   4.230  0.4250 -0.0008  0.1653
   32MOL   C92130743   6.645   0.227   4.288 -0.0604  0.7512 -0.5158
   32MOL   C92230744   6.614   0.287   4.423  0.0255 -0.3321 -0.3151
   32MOL   N92330745   6.711   0.247   4.522  0.1906 -0.0332 -0.1853
   32MOL   C92430746   6.736   0.120   4.564 -0.1048 -0.1290 -0.9072
   32MOL   O92530747   6.682   0.022   4.525  0.0628  0.4746 -0.4464
   32MOL   C92630748   6.846   0.101   4.664  0.8533  0.0512 -0.3697
   32MOL   C92730749   6.812   7.786   4.770  0.0469 -0.4844  0.7652
   32MOL   C92830750   6.729   0.053   4.889 -0.8347 -1.1159  0.9349
   32MOL   C92930751   6.702   7.736   4.998 -0.4993  0.7086  0.4698
   32MOL   C93030752   6.606   7.618   4.948  0.0579 -0.7522 -0.1698
   32MOL   C93130753   6.575   7.508   5.054 -0.5855 -0.6073  0.2390
   32MOL   C93230754   6.491   7.388   5.018  1.0522 -0.3501 -0.1429
   32MOL   C93330755   6.518   7.322   4.882 -0.9498  0.8262 -0.1716
   32MOL   C93430756   6.435   7.192   4.868  0.4781 -0.1365  0.1674
   32MOL   O93530757   6.309   7.198   4.848  0.4488 -0.0662  0.1271
   32MOL   H93630758   6.506   0.014   4.440 -1.7143 -0.5716  2.0901
   32MOL   H93730759   6.348   0.087   4.200  0.6836 -3.6841  0.7385
   32MOL   H93830760   6.362   0.224   4.303  0.3240 -0.6779  1.4041
   32MOL   H93930761   6.509   0.058   4.027  1.9449 -1.1013 -1.1215
   32MOL   H94030762   6.721   0.087   3.931 -0.5941  2.1786 -0.8006
   32MOL   H94130763   6.912   0.228   4.072  0.7270  1.8654  2.7248
   32MOL   H94230764   6.836   0.314   4.291 -0.1693  1.7979 -1.0134
   32MOL   H94330765   6.517   0.278   4.472  1.6510 -0.1732  3.0729
   32MOL   H94430766   6.625   0.395   4.428 -1.2685 -0.2693  2.1799
   32MOL   H94530767   6.758   0.324   4.569  1.7173 -1.1868  0.2009
   32MOL   H94630768   6.866   0.191   4.723  2.6249 -0.4905 -0.0954
   32MOL   H94730769   6.924   0.076   4.592  0.7751 -1.8489  0.1915
   32MOL   H94830770   6.896   7.733   4.815  1.2793  1.0304  0.3338
   32MOL   H94930771   6.750   7.709   4.726 -1.0993  0.6189  0.4140
   32MOL   H95030772   6.769   0.147   4.927  1.1809 -0.9896 -1.3534
   32MOL   H95130773   6.634   0.101   4.866  1.0096  1.9591 -0.5639
   32MOL   H95230774   6.795   7.698   5.040 -0.8837 -2.3948 -1.3051
   32MOL   H95330775   6.651   0.002   5.076 -1.9132  2.3254 -1.5504
   32MOL   H95430776   6.651   7.562   4.865 -0.2415  0.1611 -0.9533
   32MOL   H95530777   6.521   7.677   4.915  1.9913  1.3016 -1.6295
   32MOL   H95630778   6.674   7.471   5.081 -0.4002  0.5604  1.1995
   32MOL   H95730779   6.529   7.558   5.139  0.6883 -0.9730  1.1403
   32MOL   H95830780   6.382   7.398   5.017  0.8518 -2.3854 -2.0565
   32MOL   H95930781   6.509   7.310   5.092 -0.1249 -0.6106 -0.1184
   32MOL   H96030782   6.624   7.302   4.868 -0.9394 -0.5702  1.8179
   32MOL   H96130783   6.489   7.382   4.796 -2.2621 -1.9516 -1.7434
   32MOL   H96230784   6.486   7.096   4.885 -2.8876 -2.3202 -1.4686
   33MOL     N130785   1.343   4.518   1.223 -0.1610 -0.2078  0.6209
   33MOL     C230786   1.460   4.575   1.295 -0.1571 -0.4675 -0.4987
   33MOL     C330787   1.533   4.670   1.201  0.1162 -0.8703  0.3868
   33MOL     C430788   1.650   4.629   1.147 -0.4243  0.1122  0.1695
   33MOL     C530789   1.730   4.705   1.060  0.3785 -1.2783  0.3894
   33MOL     C630790   1.686   4.834   1.025  0.5294 -0.6765  0.6495
   33MOL     C730791   1.566   4.879   1.070  0.3830  1.2140 -0.7615
   33MOL     C830792   1.488   4.800   1.162  0.0477 -1.2436 -0.3052
   33MOL     C930793   1.351   4.848   1.205  0.2381 -0.2529 -0.3195
   33MOL    N1030794   1.326   4.995   1.194 -0.1819 -0.1617 -0.2263
   33MOL    C1130795   1.375   5.096   1.266 -0.3226  0.4161  0.2866
   33MOL    O1230796   1.455   5.077   1.355  0.0961  0.0331  0.5022
   33MOL    C1330797   1.323   5.238   1.243 -0.3915 -0.2965 -0.4974
   33MOL    C1430798   1.184   5.238   1.308  0.0648 -0.4964  0.1858
   33MOL    C1530799   1.127   5.380   1.285  0.2036 -0.3325 -0.1551
   33MOL    C1630800   0.976   5.401   1.323  0.3242 -0.1562  0.3064
   33MOL    C1730801   0.924   5.544   1.304 -0.3613  0.2127 -1.1614
   33MOL    C1830802   0.774   5.575   1.329  0.3990  0.3800  0.1142
   33MOL    C1930803   0.732   5.719   1.292  0.7613  0.0155  0.4657
   33MOL    C2030804   0.591   5.748   1.333  1.1437  0.2316  0.4536
   33MOL    C2130805   0.550   5.890   1.336  0.0985 -1.0837  0.0910
   33MOL    O2230806   0.594   5.966   1.247  0.0119 -0.6362 -0.0310
   33MOL    H2330807   1.332   4.419   1.238  0.2629 -0.1552  1.2692
   33MOL    H2430808   1.437   4.614   1.394 -2.1350  0.5320 -1.3145
   33MOL    H2530809   1.528   4.493   1.319 -1.3685 -1.2253  0.4342
   33MOL    H2630810   1.677   4.531   1.182  1.4787  0.3579 -0.5778
   33MOL    H2730811   1.823   4.667   1.019  0.7455 -1.2351  1.1616
   33MOL    H2830812   1.738   4.902   0.959 -2.3542 -1.3597 -2.3911
   33MOL    H2930813   1.528   4.973   1.032  0.0217  0.4958 -2.2318
   33MOL    H3030814   1.327   4.815   1.306 -2.3419 -0.1194 -0.8562
   33MOL    H3130815   1.272   4.801   1.146  0.4083  0.0930 -0.8263
   33MOL    H3230816   1.245   5.007   1.133  0.1368 -1.2517 -0.8823
   33MOL    H3330817   1.312   5.259   1.137  1.9011 -2.0597 -1.1450
   33MOL    H3430818   1.400   5.305   1.283  0.4545 -0.4544 -1.8457
   33MOL    H3530819   1.178   5.220   1.416  1.0889  0.6696  0.4420
   33MOL    H3630820   1.117   5.167   1.259 -2.0382 -0.1986  2.5106
   33MOL    H3730821   1.186   5.457   1.335  1.5043 -0.3426 -1.6508
   33MOL    H3830822   1.143   5.395   1.178  1.0196 -1.2306 -0.1718
   33MOL    H3930823   0.913   5.331   1.268  1.4290 -1.6233  0.8772
   33MOL    H4030824   0.949   5.381   1.426  0.6856  0.0380  0.4415
   33MOL    H4130825   0.984   5.610   1.367  1.3981 -2.3457 -0.0804
   33MOL    H4230826   0.961   5.585   1.211  1.0859  1.8009  0.0723
   33MOL    H4330827   0.754   5.558   1.434 -0.3241 -1.2605 -0.2740
   33MOL    H4430828   0.702   5.511   1.278 -0.3007  0.9436  0.3780
   33MOL    H4530829   0.784   5.796   1.349 -0.2452 -0.0063  1.4156
   33MOL    H4630830   0.755   5.738   1.187  1.8109  0.9795  0.8634
   33MOL    H4730831   0.561   5.696   1.424 -1.2133 -0.3901 -0.6157
   33MOL    H4830832   0.531   5.696   1.257  0.7818 -0.3066  1.1066
   33MOL    H4930833   1.252   4.552   1.251 -0.5928  0.6658 -1.7224
   33MOL    N5030834   0.464   5.928   1.436  0.5659  0.4546 -0.5585
   33MOL    C5130835   0.418   6.061   1.458  0.4545  0.0235  0.1813
   33MOL    C5230836   0.272   6.078   1.408 -0.7056 -0.2454 -0.7656
   33MOL    C5330837   0.248   6.135   1.276 -0.1592 -0.0873  0.6133
   33MOL    C5430838   0.120   6.164   1.232  0.6799  0.1713 -0.4890
   33MOL    C5530839   0.016   6.120   1.312  0.3959 -0.5865  0.1525
   33MOL    C5630840   0.031   6.063   1.442 -0.1868  0.2537 -0.3814
   33MOL    C5730841   0.162   6.039   1.482  0.1308 -0.5683 -0.7414
   33MOL    C5830842   0.173   5.969   1.617  0.3765  0.0589 -0.4281
   33MOL    N5930843   0.132   5.833   1.599 -0.2821  0.0853  0.2666
   33MOL    C6030844   0.034   5.766   1.665  0.0908  1.0366 -0.1462
   33MOL    O6130845   7.773   5.812   1.769  0.1796 -0.1153  0.0372
   33MOL    C6230846   7.769   5.638   1.599 -0.3483 -0.1108  0.0323
   33MOL    C6330847   7.616   5.623   1.595 -0.0120 -0.0657  0.5135
   33MOL    C6430848   7.580   5.489   1.533  1.0031 -0.6236  0.2092
   33MOL    C6530849   7.429   5.446   1.514  0.0378  0.4810 -0.0324
   33MOL    C6630850   7.363   5.440   1.648 -0.4036 -0.4548 -0.3227
   33MOL    C6730851   7.235   5.364   1.652  0.7930 -0.6208 -0.4746
   33MOL    C6830852   7.173   5.328   1.786 -0.6628  0.6216  0.0701
   33MOL    C6930853   7.072   5.433   1.837  0.6317  0.1684  0.8519
   33MOL    C7030854   7.009   5.422   1.971 -0.4299 -0.0735  0.1439
   33MOL    O7130855   7.022   5.317   2.034  0.2402  0.2428 -0.3408
   33MOL    H7230856   0.428   5.858   1.500  1.9936  1.4509  1.3959
   33MOL    H7330857   0.476   6.129   1.395 -2.1536  2.0718 -0.0914
   33MOL    H7430858   0.445   6.094   1.558 -2.3372 -0.1587  1.0517
   33MOL    H7530859   0.333   6.151   1.212 -0.2753 -0.5810  0.3369
   33MOL    H7630860   0.093   6.200   1.134 -1.4850 -1.7737 -0.6456
   33MOL    H7730861   7.705   6.148   1.283 -0.1491 -1.6962  0.9449
   33MOL    H7830862   7.743   6.039   1.513 -2.0805  1.5867 -1.9595
   33MOL    H7930863   0.114   6.032   1.684 -0.4400  2.4549 -3.2601
   33MOL    H8030864   0.274   5.958   1.655 -0.4801 -1.2213  1.5608
   33MOL    H8130865   0.175   5.784   1.521  0.4066  1.6720 -0.3586
   33MOL    H8230866   0.021   5.562   1.665  0.0718  2.0553  2.3402
   33MOL    H8330867   0.027   5.613   1.505 -1.5720 -1.7241 -0.1863
   33MOL    H8430868   7.569   5.704   1.540  0.2357 -0.7729 -0.7711
   33MOL    H8530869   7.578   5.627   1.697 -0.6175  0.3534  0.2697
   33MOL    H8630870   7.624   5.479   1.433  2.5179 -5.4557  1.2061
   33MOL    H8730871   7.624   5.403   1.582  0.0097 -1.9227 -1.1115
   33MOL    H8830872   7.376   5.526   1.462  0.2990 -0.2007 -1.3779
   33MOL    H8930873   7.412   5.360   1.450 -1.6276  1.8218 -1.4676
   33MOL    H9030874   7.425   5.404   1.730  1.5235  0.8958 -1.1633
   33MOL    H9130875   7.330   5.538   1.684 -1.1629 -0.9702  0.4271
   33MOL    H9230876   7.262   5.262   1.623 -1.4137 -1.3979  0.0832
   33MOL    H9330877   7.167   5.403   1.576 -1.1861 -3.0131  0.0125
   33MOL    H9430878   7.251   5.304   1.859  0.9295  1.0383 -1.4738
   33MOL    H9530879   7.121   5.232   1.778  1.9769 -0.8645  0.3041
   33MOL    H9630880   6.986   5.418   1.771  0.6549  1.1360  0.5880
   33MOL    H9730881   7.108   5.534   1.817 -1.7595  1.0322  0.6825
   33MOL    N9830882   6.948   5.530   2.027  0.1772  0.1210 -0.1191
   33MOL    C9930883   6.893   5.531   2.164  0.1061 -0.4141 -0.6827
   33MOL   C10030884   6.744   5.551   2.158  0.1995 -0.5078 -1.2466
   33MOL   C10130885   6.692   5.652   2.075 -0.4704  0.1193  0.2156
   33MOL   C10230886   6.556   5.681   2.079 -0.1546 -0.3982  0.4380
   33MOL   C10330887   6.469   5.599   2.148  0.5120 -0.2966  0.7637
   33MOL   C10430888   6.516   5.501   2.230  0.1118  0.0121  0.3593
   33MOL   C10530889   6.653   5.474   2.236 -0.4010  0.6368  0.1036
   33MOL   C10630890   6.704   5.355   2.308  0.0512 -0.4839  0.2469
   33MOL   N10730891   6.605   5.274   2.389  0.2897 -0.4285  0.1869
   33MOL   C10830892   6.606   5.247   2.519  0.6375 -0.0428 -0.3666
   33MOL   O10930893   6.692   5.296   2.591 -0.3763  0.5969 -0.2818
   33MOL   C11030894   6.483   5.174   2.574  0.2005  0.2001 -0.4291
   33MOL   C11130895   6.483   5.023   2.539  0.0063 -0.3908 -0.3945
   33MOL   C11230896   6.607   4.957   2.604 -0.6644 -0.3036  0.5015
   33MOL   C11330897   6.606   4.805   2.638 -0.3584  0.0637 -0.4742
   33MOL   C11430898   6.646   4.711   2.519 -0.0914 -0.0054 -0.2504
   33MOL   C11530899   6.527   4.640   2.452 -0.8771  0.6736  0.4374
   33MOL   C11630900   6.555   4.602   2.301 -0.1228 -0.4921 -0.5582
   33MOL   C11730901   6.430   4.528   2.238  0.2263  0.4075 -0.1546
   33MOL   C11830902   6.383   4.397   2.303 -0.1677  0.5978 -0.3078
   33MOL   O11930903   6.304   4.394   2.401  0.1407 -0.3762  0.2593
   33MOL   H12030904   6.921   5.606   1.965 -1.2190 -0.6595 -0.4735
   33MOL   H12130905   6.922   5.442   2.220 -0.9457  0.1037  0.6875
   33MOL   H12230906   6.942   5.620   2.203 -0.9101  0.3072 -1.0384
   33MOL   H12330907   6.749   5.724   2.019 -1.8943  0.8266 -0.3389
   33MOL   H12430908   6.512   5.766   2.030  0.1665 -0.3035  0.3147
   33MOL   H12530909   6.363   5.618   2.136  0.5086 -0.9628 -0.3225
   33MOL   H12630910   6.444   5.448   2.291 -0.9667  1.0376 -0.0034
   33MOL   H12730911   6.783   5.375   2.379 -0.8981  2.4963  0.5224
   33MOL   H12830912   6.752   5.292   2.233  2.5716  3.7380 -1.9104
   33MOL   H12930913   6.518   5.262   2.338  0.9018  0.8650 -1.2006
   33MOL   H13030914   6.390   5.218   2.540  1.7660  3.5296 -0.6829
   33MOL   H13130915   6.481   5.184   2.683  0.3958 -3.5905 -0.0056
   33MOL   H13230916   6.482   5.019   2.430 -2.1237  1.3633 -0.4783
   33MOL   H13330917   6.389   4.979   2.572 -1.1073  0.3979 -2.3696
   33MOL   H13430918   6.697   4.977   2.546 -0.8252 -0.2554  0.2654
   33MOL   H13530919   6.639   5.009   2.694 -0.2208 -0.1042  0.2329
   33MOL   H13630920   6.660   4.784   2.730 -2.5919 -3.9669  0.0204
   33MOL   H13730921   6.505   4.773   2.666  0.4014 -1.7930  0.2399
   33MOL   H13830922   6.684   4.778   2.442 -1.2489  1.2350  0.2459
   33MOL   H13930923   6.726   4.641   2.543  0.3558  1.1264  1.6038
   33MOL   H14030924   6.445   4.713   2.452 -1.2416  0.3789 -3.2012
   33MOL   H14130925   6.486   4.564   2.518  0.7768 -1.4544 -0.9364
   33MOL   H14230926   6.567   4.691   2.240  0.8208 -0.7893 -0.8244
   33MOL   H14330927   6.634   4.526   2.295  1.5818  1.3214 -1.5525
   33MOL   H14430928   6.452   4.488   2.138 -1.9183 -0.0400 -0.4730
   33MOL   H14530929   6.351   4.603   2.242 -0.4211 -0.2249 -0.8231
   33MOL   N14630930   6.448   4.285   2.260 -0.1847  0.1091 -0.0237
   33MOL   C14730931   6.432   4.149   2.322  0.8861  0.9739  0.0473
   33MOL   C14830932   6.536   4.098   2.416  0.4046  0.3517  0.3364
   33MOL   C14930933   6.657   4.165   2.431  0.3006 -0.0385  0.2748
   33MOL   C15030934   6.752   4.115   2.521  0.0517 -1.0609  0.1326
   33MOL   C15130935   6.735   3.997   2.590 -0.2088  1.3774  0.0575
   33MOL   C15230936   6.621   3.919   2.566  0.0728 -0.4953 -0.3119
   33MOL   C15330937   6.515   3.971   2.480  0.5131 -0.1252 -0.2335
   33MOL   C15430938   6.384   3.890   2.469  0.9791  0.0407 -0.4704
   33MOL   N15530939   6.385   3.796   2.354  0.3318 -0.9519 -0.2839
   33MOL   C15630940   6.276   3.742   2.303  0.2855  0.9967  0.5898
   33MOL   O15730941   6.158   3.773   2.321  0.5115  0.0764 -0.5796
   33MOL   C15830942   6.304   3.624   2.210 -0.3661 -0.3965 -0.1711
   33MOL   C15930943   6.278   3.660   2.060  0.7524 -0.4199 -0.4626
   33MOL   C16030944   6.393   3.752   2.006  0.1619 -0.0677 -0.7085
   33MOL   C16130945   6.362   3.827   1.875 -0.3694  0.3577 -1.0654
   33MOL   C16230946   6.299   3.967   1.904  0.5832  1.0436 -0.0061
   33MOL   C16330947   6.231   4.018   1.775  0.1090 -0.2419 -0.0665
   33MOL   C16430948   6.202   4.163   1.782 -0.3702  0.1247  0.3729
   33MOL   C16530949   6.147   4.214   1.651 -0.8985  0.2608  0.3735
   33MOL   C16630950   6.083   4.351   1.652  0.4381  0.1853  0.0549
   33MOL   O16730951   6.002   4.385   1.740 -0.1574 -0.2385 -0.0028
   33MOL   H16830952   6.515   4.304   2.187 -0.7771 -1.5594 -1.0280
   33MOL   H16930953   6.425   4.083   2.236 -0.7437  1.4126 -0.1650
   33MOL   H17030954   6.333   4.143   2.367  1.4305  1.8076  1.4056
   33MOL   H17130955   6.676   4.257   2.378  1.4207  0.0262  0.7515
   33MOL   H17230956   6.837   4.180   2.535 -0.6874  0.7775 -3.2577
   33MOL   H17330957   6.807   3.954   2.658  0.6046  2.0211 -0.3961
   33MOL   H17430958   6.611   3.829   2.625  0.2994 -0.4085 -0.1411
   33MOL   H17530959   6.305   3.966   2.464 -1.0134 -1.7136  2.6362
   33MOL   H17630960   6.361   3.824   2.553  0.9127  0.5816 -0.0554
   33MOL   H17730961   6.473   3.752   2.328  2.3972  2.4659  0.6036
   33MOL   H17830962   6.248   3.536   2.242  0.3456 -0.1406  1.8855
   33MOL   H17930963   6.410   3.599   2.219  0.0395  1.3139  0.0067
   33MOL   H18030964   6.180   3.708   2.052  0.1749 -1.3605  0.7400
   33MOL   H18130965   6.268   3.574   1.994 -0.1711  0.6260 -1.7308
   33MOL   H18230966   6.427   3.814   2.088 -1.1750  0.2170 -0.3583
   33MOL   H18330967   6.475   3.686   1.976 -0.2584  0.5348 -3.3811
   33MOL   H18430968   6.453   3.847   1.818  0.8420 -0.2041  0.6021
   33MOL   H18530969   6.304   3.757   1.815  0.2786 -0.8625 -0.3149
   33MOL   H18630970   6.225   3.964   1.984  1.5378 -0.6995  0.8227
   33MOL   H18730971   6.377   4.036   1.937  0.6678  0.2068  1.5799
   33MOL   H18830972   6.146   3.952   1.757  1.9610 -2.5386 -0.7995
   33MOL   H18930973   6.303   4.002   1.695  1.9140 -1.2161  1.7084
   33MOL   H19030974   6.141   4.183   1.870 -2.4034 -1.7965 -0.5667
   33MOL   H19130975   6.292   4.214   1.816 -1.6222  3.4324 -1.0102
   33MOL   H19230976   6.075   4.141   1.615 -1.5466  0.6115  0.9555
   33MOL   H19330977   6.223   4.216   1.573 -0.0134 -0.3607  1.2088
   33MOL   N19430978   6.101   4.434   1.550 -0.1581 -0.7448 -0.2996
   33MOL   C19530979   6.036   4.566   1.535  0.2382 -1.0162 -0.2517
   33MOL   C19630980   6.008   4.600   1.389  0.4858 -0.7981 -0.3156
   33MOL   C19730981   6.084   4.700   1.324 -0.2515  0.2260  0.0957
   33MOL   C19830982   6.046   4.746   1.195  0.3191 -0.7904  0.5128
   33MOL   C19930983   5.928   4.698   1.136  0.0480 -0.6408  0.7405
   33MOL   C20030984   5.863   4.587   1.193  0.0769  0.2267  0.7668
   33MOL   C20130985   5.895   4.536   1.323  0.7446 -0.7392 -0.6905
   33MOL   C20230986   5.805   4.433   1.389  0.1785 -0.3111  0.3738
   33MOL   N20330987   5.699   4.381   1.308 -0.2753  0.3242  0.1536
   33MOL   C20430988   5.566   4.418   1.318 -0.2719 -0.0879 -0.0424
   33MOL   O20530989   5.521   4.490   1.409 -0.0741  0.1853  0.6705
   33MOL   C20630990   5.470   4.369   1.212 -0.2661 -0.0793  0.4312
   33MOL   C20730991   5.400   4.470   1.123  0.6991  0.2005  0.3164
   33MOL   C20830992   5.479   4.587   1.065 -0.0300 -0.1814 -0.6867
   33MOL   C20930993   5.396   4.705   1.010  0.6238 -0.3607  0.9022
   33MOL   C21030994   5.346   4.674   0.870 -0.0037  0.0428 -0.0172
   33MOL   C21130995   5.300   4.796   0.778 -0.4555 -0.0926 -0.1132
   33MOL   C21230996   5.265   4.761   0.638  0.1793 -0.0225 -0.5923
   33MOL   C21330997   5.199   4.880   0.566  0.2717  0.3761  0.0728
   33MOL   C21430998   5.103   4.839   0.456  0.4770  0.1668  0.3946
   33MOL   O21530999   5.012   4.756   0.470  0.5028  0.6346  0.3720
   33MOL   H21631000   6.178   4.399   1.494  2.3481  0.7747  2.0524
   33MOL   H21731001   5.940   4.567   1.586  0.2183 -3.7645 -0.1175
   33MOL   H21831002   6.105   4.638   1.580 -2.4635 -0.0513  2.5307
   33MOL   H21931003   6.166   4.747   1.376 -0.1042  0.1617 -0.0771
   33MOL   H22031004   6.111   4.823   1.157 -1.6625 -0.9438 -3.5425
   33MOL   H22131005   5.895   4.721   1.036 -1.6494 -1.6859  1.0308
   33MOL   H22231006   5.780   4.543   1.141  0.6071  0.4090 -0.2462
   33MOL   H22331007   5.755   4.483   1.472 -1.1880  0.1102 -0.6658
   33MOL   H22431008   5.870   4.357   1.431  1.2935  1.6484  2.2718
   33MOL   H22531009   5.733   4.328   1.229 -0.3289  0.5041  0.0090
   33MOL   H22631010   5.390   4.318   1.265 -0.5978  0.5964  0.5879
   33MOL   H22731011   5.513   4.294   1.145 -0.8949  1.1806 -1.4439
   33MOL   H22831012   5.358   4.414   1.040  2.1559  1.1267 -1.0734
   33MOL   H22931013   5.325   4.514   1.189  1.5058  0.2808  1.2030
   33MOL   H23031014   5.516   4.638   1.154 -1.9132 -0.1102  0.0838
   33MOL   H23131015   5.562   4.562   0.999 -1.4567 -0.4923 -2.4137
   33MOL   H23231016   5.318   4.731   1.080 -0.4594 -0.0322 -0.4033
   33MOL   H23331017   5.468   4.787   1.010  1.0202 -0.5665 -3.0386
   33MOL   H23431018   5.426   4.640   0.803  0.1935 -0.3820  0.4298
   33MOL   H23531019   5.275   4.592   0.872  1.4241 -1.3007 -2.0436
   33MOL   H23631020   5.369   4.880   0.786 -0.1092 -0.1662 -2.0536
   33MOL   H23731021   5.217   4.832   0.840  0.3222 -0.0498  0.9188
   33MOL   H23831022   5.198   4.675   0.634  0.0607  0.0919 -1.1945
   33MOL   H23931023   5.345   4.726   0.574  0.6715 -2.1497  1.1224
   33MOL   H24031024   5.127   4.935   0.627 -2.3347  0.0601 -2.6393
   33MOL   H24131025   5.260   4.965   0.534  0.6730 -0.1745 -0.6268
   33MOL   N24231026   5.123   4.903   0.338 -0.2872 -0.1116 -0.4231
   33MOL   C24331027   5.033   4.906   0.224  0.0612 -0.0670  0.3381
   33MOL   C24431028   5.065   4.806   0.111  0.3872  0.2842 -0.4615
   33MOL   C24531029   5.093   4.670   0.140 -0.2730 -0.1518 -0.2584
   33MOL   C24631030   5.140   4.587   0.039 -0.0066 -0.2808 -0.2181
   33MOL   C24731031   5.137   4.620   7.693 -0.4638 -0.2452 -0.2533
   33MOL   C24831032   5.089   4.749   7.662  0.3171  0.7376  0.0154
   33MOL   C24931033   5.058   4.847   7.762 -0.0040  0.5442  0.1244
   33MOL   C25031034   5.023   4.987   7.720 -0.0909  0.7603 -0.5136
   33MOL   N25131035   5.127   5.087   7.760 -0.0572 -0.2094  0.3184
   33MOL   C25231036   5.093   5.211   0.008 -0.0317 -0.5327 -0.2140
   33MOL   O25331037   4.978   5.247   0.027 -0.5262 -0.4919 -0.3922
   33MOL   C25431038   5.218   5.305   0.034 -0.2798  0.2704  0.5075
   33MOL   C25531039   5.211   5.394   0.161 -0.2581  0.2554  0.1552
   33MOL   C25631040   5.285   5.331   0.277  0.0491 -0.7310  0.4115
   33MOL   C25731041   5.245   5.384   0.414  0.7479  0.4203 -0.4554
   33MOL   C25831042   5.342   5.324   0.514  0.5271 -0.0170 -0.9909
   33MOL   C25931043   5.305   5.351   0.660  0.0269 -0.0116 -1.1207
   33MOL   C26031044   5.418   5.321   0.763  0.7608  0.1792 -0.1688
   33MOL   C26131045   5.453   5.165   0.774  0.5312  0.1632 -0.6141
   33MOL   C26231046   5.565   5.134   0.878  0.4883 -0.7872  0.0827
   33MOL   O26331047   5.555   5.169   0.997  0.1591  0.2371 -0.5955
   33MOL   H26431048   5.210   4.953   0.324 -1.8757  3.0323  0.6001
   33MOL   H26531049   4.935   4.894   0.270  1.2766 -1.0437  2.7771
   33MOL   H26631050   5.032   5.011   0.196  0.6195 -0.4837 -1.3101
   33MOL   H26731051   5.085   4.629   0.240  0.7228  0.4150  0.0657
   33MOL   H26831052   5.149   4.482   0.064  2.7862 -0.9032 -3.5266
   33MOL   H26931053   5.164   4.551   7.615  3.0395 -0.3723  0.9914
   33MOL   H27031054   5.085   4.779   7.558  1.4721  2.7036  0.5293
   33MOL   H27131055   4.926   5.016   7.759  0.8720 -1.1808  3.5523
   33MOL   H27231056   5.010   5.000   7.612 -3.0303  2.3862 -0.0212
   33MOL   H27331057   5.224   5.074   7.739 -0.0487 -1.1704  0.9353
   33MOL   H27431058   5.218   5.372   7.738  2.0747 -0.6085 -0.2260
   33MOL   H27531059   5.312   5.249   0.038 -0.1179  0.4620 -0.5479
   33MOL   H27631060   5.107   5.416   0.185  0.1735  1.0872  1.2789
   33MOL   H27731061   5.245   5.496   0.141 -0.5933  0.6520  1.5947
   33MOL   H27831062   5.391   5.348   0.255 -0.2167 -0.1796 -0.4775
   33MOL   H27931063   5.274   5.223   0.282  0.4224 -0.7019  2.7062
   33MOL   H28031064   5.230   5.491   0.404 -0.0076  0.0562 -4.0704
   33MOL   H28131065   5.144   5.350   0.438  0.9715 -1.4876 -2.0740
   33MOL   H28231066   5.342   5.216   0.502 -0.0118  0.0594 -1.6910
   33MOL   H28331067   5.448   5.341   0.496  0.9309  1.6961  2.4958
   33MOL   H28431068   5.219   5.288   0.685  1.2357 -0.9243  0.8476
   33MOL   H28531069   5.276   5.455   0.668 -1.2474 -0.4272 -0.0362
   33MOL   H28631070   5.504   5.385   0.744  0.0640  1.2886  0.3626
   33MOL   H28731071   5.391   5.353   0.864 -0.8199 -0.7851 -0.2663
   33MOL   H28831072   5.361   5.112   0.798 -0.9309  1.0947 -3.8452
   33MOL   H28931073   5.490   5.115   0.684 -1.6930 -1.5730 -0.6256
   33MOL   N29031074   5.671   5.063   0.835 -0.0712  0.5526 -0.1088
   33MOL   C29131075   5.776   5.016   0.929  0.2158  0.2553  0.5500
   33MOL   C29231076   5.918   4.990   0.873 -0.2034  0.3292  0.0359
   33MOL   C29331077   6.019   5.086   0.901  0.4334 -0.2839  0.1665
   33MOL   C29431078   6.147   5.068   0.853 -0.2248 -0.2823  0.5365
   33MOL   C29531079   6.175   4.964   0.762  0.9131  0.3941 -0.9132
   33MOL   C29631080   6.076   4.880   0.723  0.5805  0.6564 -0.5360
   33MOL   C29731081   5.947   4.882   0.782  0.1805  0.0226 -0.0689
   33MOL   C29831082   5.853   4.772   0.740  0.5277 -0.2928 -0.5194
   33MOL   N29931083   5.856   4.751   0.594 -0.6344  0.4344 -0.4359
   33MOL   C30031084   5.786   4.814   0.497 -0.5333  0.2558 -0.6611
   33MOL   O30131085   5.697   4.896   0.520  0.2606 -0.0548 -0.4266
   33MOL   C30231086   5.824   4.776   0.353  0.1768 -0.2651  0.3276
   33MOL   C30331087   5.871   4.898   0.276 -0.7115  0.2414  0.1263
   33MOL   C30431088   5.955   4.869   0.158 -0.0241  0.0034 -0.0093
   33MOL   C30531089   6.005   4.987   0.079  0.0763 -0.5315 -0.8168
   33MOL   C30631090   6.081   4.962   7.743 -0.7575 -0.4669  0.5651
   33MOL   C30731091   6.217   4.886   7.767 -0.2274 -0.4981 -0.4031
   33MOL   C30831092   6.269   4.830   7.631  0.0660  0.0503  0.4411
   33MOL   C30931093   6.400   4.753   7.638  0.1447  0.1592 -0.2423
   33MOL   C31031094   6.437   4.705   7.492 -0.1823 -0.3116  0.3860
   33MOL   O31131095   6.527   4.763   7.429  0.2064 -0.2879 -0.4352
   33MOL   H31231096   5.666   5.029   0.740 -0.0684 -0.0580  0.1139
   33MOL   H31331097   5.791   5.095   1.003  3.2109  1.4874 -1.2918
   33MOL   H31431098   5.743   4.929   0.985  0.2624  0.0996  0.3325
   33MOL   H31531099   6.011   5.165   0.974 -0.3106  0.1598 -0.3792
   33MOL   H31631100   6.224   5.140   0.877 -0.9751  0.9207 -0.5872
   33MOL   H31731101   6.277   4.958   0.725  0.1606 -0.9598 -2.8403
   33MOL   H31831102   6.105   4.796   0.662 -1.0804 -0.6684  0.4429
   33MOL   H31931103   5.748   4.795   0.756  0.1430 -2.7719  0.6356
   33MOL   H32031104   5.885   4.684   0.795  1.3878 -0.9137 -1.9667
   33MOL   H32131105   5.923   4.682   0.567 -0.6643  1.3986 -3.1545
   33MOL   H32231106   5.894   4.693   0.352 -1.5662 -1.7963  1.9884
   33MOL   H32331107   5.734   4.742   0.303  1.2341 -0.7071 -1.3282
   33MOL   H32431108   5.917   4.973   0.340 -3.4231  1.6062  0.5566
   33MOL   H32531109   5.783   4.947   0.234 -1.0040 -1.3080 -1.1357
   33MOL   H32631110   5.886   4.817   0.091  0.3516  0.8191 -1.0432
   33MOL   H32731111   6.043   4.806   0.173 -0.5707 -0.1460  2.6510
   33MOL   H32831112   5.919   5.050   0.055  0.2533  0.1850  0.4323
   33MOL   H32931113   6.054   5.062   0.140  1.2957 -1.9552 -0.0265
   33MOL   H33031114   6.015   4.916   7.669  0.9403  1.3087 -2.1588
   33MOL   H33131115   6.120   5.054   7.701 -1.4012 -0.7594 -0.6984
   33MOL   H33231116   6.201   4.797   0.038  1.4020 -0.2486  0.4199
   33MOL   H33331117   6.289   4.960   0.012 -1.1967 -0.2719  1.2058
   33MOL   H33431118   6.186   4.767   7.597  0.1296  0.8816 -1.3224
   33MOL   H33531119   6.280   4.915   7.564  0.3244 -1.5274 -1.5832
   33MOL   H33631120   6.475   4.817   7.686  0.2940  0.9207 -1.4447
   33MOL   H33731121   6.386   4.662   7.696 -1.4766 -0.8390 -2.1590
   33MOL   N33831122   6.376   4.597   7.446 -0.1573  0.1273 -0.0659
   33MOL   C33931123   6.391   4.531   7.316  0.5733 -0.1705 -0.0665
   33MOL   C34031124   6.372   4.384   7.336 -0.3681 -0.3441 -0.7526
   33MOL   C34131125   6.238   4.324   7.323  0.0895 -0.4267 -0.0689
   33MOL   C34231126   6.222   4.187   7.334  0.2673 -0.3226  0.0211
   33MOL   C34331127   6.334   4.106   7.347  0.2383 -0.6787 -0.2866
   33MOL   C34431128   6.462   4.157   7.370 -0.5449  0.1261 -0.5262
   33MOL   C34531129   6.483   4.295   7.361  0.6095  0.3026 -0.1255
   33MOL   C34631130   6.624   4.345   7.384 -0.5107  0.3150  0.0864
   33MOL   N34731131   6.684   4.281   7.504 -0.4052 -0.2633 -0.4043
   33MOL   C34831132   6.803   4.216   7.507 -0.0526 -0.7308  1.1146
   33MOL   O34931133   6.871   4.215   7.403  0.3085 -0.1100 -0.2332
   33MOL   C35031134   6.859   4.153   7.632  0.2627  0.7350  0.2085
   33MOL   C35131135   6.750   4.057   7.679 -0.3226  0.1593  0.8104
   33MOL   C35231136   6.787   3.988   0.019  0.4954  0.3416  0.0757
   33MOL   C35331137   6.754   4.076   0.146 -0.2244 -0.9231 -0.3972
   33MOL   C35431138   6.784   4.009   0.283  0.2683 -0.6023  0.2479
   33MOL   C35531139   6.799   4.096   0.408  0.2124  0.4399  0.1069
   33MOL   C35631140   6.753   4.024   0.532 -0.2387  0.9982 -0.4948
   33MOL   C35731141   6.747   4.126   0.649 -0.5198  0.1397  0.4004
   33MOL   C35831142   6.888   4.161   0.706 -0.2704  0.1914  0.3343
   33MOL   O35931143   6.954   4.088   0.780 -0.7271  0.5493  0.3026
   33MOL   H36031144   6.312   4.570   7.519  0.9345  0.1785  0.9216
   33MOL   H36131145   6.318   4.575   7.247 -0.7622 -1.7668  0.3046
   33MOL   H36231146   6.487   4.551   7.269  0.5559 -0.9770 -0.4476
   33MOL   H36331147   6.151   4.384   7.301 -1.0668 -1.6334  1.0889
   33MOL   H36431148   6.135   4.129   7.310 -0.0254 -0.0114  0.3289
   33MOL   H36531149   6.327   3.998   7.347 -1.0859 -0.5954  0.0244
   33MOL   H36631150   6.549   4.096   7.383 -0.8096  0.2561  2.1371
   33MOL   H36731151   6.632   4.452   7.399 -3.4130  0.7221 -1.0849
   33MOL   H36831152   6.681   4.321   7.294  1.5580  1.7547  0.9728
   33MOL   H36931153   6.638   4.279   7.594 -0.9478  0.1385 -0.6657
   33MOL   H37031154   6.887   4.230   7.704 -1.4117  2.2721 -0.7540
   33MOL   H37131155   6.953   4.104   7.606 -0.5002 -0.3610 -0.5131
   33MOL   H37231156   6.753   3.976   7.606 -1.9309  1.9016 -1.2622
   33MOL   H37331157   6.649   4.096   7.683 -1.5389 -2.7730  0.0846
   33MOL   H37431158   6.740   3.890   0.020 -0.2891  0.7096 -0.3920
   33MOL   H37531159   6.893   3.963   0.015 -0.2442 -2.8040 -3.0319
   33MOL   H37631160   6.653   4.119   0.143  0.2388  0.3258  1.0757
   33MOL   H37731161   6.818   4.163   0.133 -1.0003 -0.4384 -0.9841
   33MOL   H37831162   6.704   3.937   0.293 -0.0728 -0.3814 -0.7707
   33MOL   H37931163   6.876   3.950   0.276 -0.5550 -2.0755  1.6806
   33MOL   H38031164   6.741   4.184   0.383 -1.0778  0.2754  2.4245
   33MOL   H38131165   6.900   4.134   0.424  0.5073 -0.7472  1.1091
   33MOL   H38231166   6.654   3.981   0.517  0.0390  0.0627  0.3595
   33MOL   H38331167   6.825   3.943   0.543 -0.1658  1.0357 -0.6809
   33MOL   H38431168   6.692   4.079   0.730 -1.7661 -0.2381 -0.6400
   33MOL   H38531169   6.687   4.207   0.609 -2.5539 -2.2897 -1.6751
   33MOL   N38631170   6.929   4.277   0.665  0.9625  0.6358 -0.2193
   33MOL   C38731171   7.054   4.343   0.706 -0.1620 -0.1954 -0.2768
   33MOL   C38831172   7.043   4.432   0.829  0.9005 -0.2723  0.0350
   33MOL   C38931173   6.923   4.438   0.908  0.4385 -0.0145  0.3169
   33MOL   C39031174   6.909   4.537   1.009 -0.7443  0.1425  0.2237
   33MOL   C39131175   7.016   4.616   1.042  0.6736  0.0457 -0.6956
   33MOL   C39231176   7.131   4.616   0.963  0.6843 -0.0143 -0.5568
   33MOL   C39331177   7.144   4.526   0.855  0.5253  0.5053  0.3463
   33MOL   C39431178   7.272   4.536   0.776 -0.3586 -0.0668  1.0022
   33MOL   N39531179   7.349   4.416   0.763 -0.3056 -0.3008 -0.4556
   33MOL   C39631180   7.464   4.399   0.689  0.4805  0.1825  0.1365
   33MOL   O39731181   7.504   4.478   0.599  0.7933 -0.1312 -0.2833
   33MOL   C39831182   7.540   4.267   0.715  0.5641 -0.7134 -0.6543
   33MOL   C39931183   7.654   4.227   0.618 -0.0258 -0.4003 -0.4822
   33MOL   C40031184   7.704   4.089   0.638 -0.1868  0.3024 -0.2992
   33MOL   C40131185   0.031   4.048   0.547 -0.2076 -0.2148  0.9796
   33MOL   C40231186   0.102   3.909   0.582 -0.4280  0.6503 -0.1919
   33MOL   C40331187   0.021   3.784   0.550  0.5456  0.3679 -0.1668
   33MOL   C40431188   0.091   3.649   0.586  0.6019  0.2649 -0.1795
   33MOL   C40531189   0.209   3.623   0.497  0.1935 -0.1400  1.1344
   33MOL   C40631190   0.170   3.608   0.356  0.6055  0.2485 -0.0223
   33MOL   O40731191   0.075   3.527   0.324 -0.1653  0.1511 -0.3430
   33MOL   H40831192   6.861   4.317   0.603 -2.4585 -3.7599  0.4503
   33MOL   H40931193   7.121   4.261   0.732 -2.0375 -1.7547 -0.1778
   33MOL   H41031194   7.089   4.404   0.623 -2.0664  0.6749 -0.4619
   33MOL   H41131195   6.844   4.368   0.887  1.0287 -0.0421 -2.0227
   33MOL   H41231196   6.821   4.541   1.072 -0.3978  0.2060  0.6995
   33MOL   H41331197   7.014   4.681   1.128  1.0187 -1.1966  0.2547
   33MOL   H41431198   7.215   4.682   0.979  2.5231 -2.2522 -0.7204
   33MOL   H41531199   7.329   4.617   0.822 -0.7345  1.7563 -1.6182
   33MOL   H41631200   7.246   4.578   0.678 -0.1990  0.0264  0.9994
   33MOL   H41731201   7.323   4.344   0.828 -0.2747  1.5979  1.7016
   33MOL   H41831202   7.578   4.274   0.817 -1.5756 -1.0422  0.1904
   33MOL   H41931203   7.470   4.185   0.730 -1.3606  1.0888  0.3821
   33MOL   H42031204   7.730   4.303   0.599  1.8921 -2.6783 -2.1682
   33MOL   H42131205   7.614   4.227   0.516  1.4942  2.8765 -1.1448
   33MOL   H42231206   7.612   4.034   0.617 -0.4219  0.9864 -1.1138
   33MOL   H42331207   7.720   4.076   0.745 -0.7896 -1.1274 -0.3585
   33MOL   H42431208   7.783   4.042   0.445 -3.0777  1.2910  1.9159
   33MOL   H42531209   0.109   4.125   0.544 -0.2806 -0.1061  1.7371
   33MOL   H42631210   0.199   3.901   0.533 -0.1894  0.2350  0.3402
   33MOL   H42731211   0.128   3.924   0.686 -0.1071 -0.4305 -0.1051
   33MOL   H42831212   7.759   3.790   0.454  0.2301  1.1074  0.0491
   33MOL   H42931213   7.722   3.788   0.613 -0.7854 -1.7298 -1.8432
   33MOL   H43031214   0.026   3.565   0.562  1.4262  0.0664 -1.7086
   33MOL   H43131215   0.109   3.648   0.694  0.1457  0.7866 -0.0936
   33MOL   H43231216   0.249   3.526   0.526  2.5467  0.7657  1.1176
   33MOL   H43331217   0.287   3.699   0.508 -2.4051  3.4544 -3.5039
   33MOL   N43431218   0.235   3.684   0.272 -0.1537  0.3154  0.2508
   33MOL   C43531219   0.215   3.693   0.130  0.2386  0.0932 -0.0694
   33MOL   C43631220   0.226   3.837   0.084 -0.2103  0.0758 -0.4586
   33MOL   C43731221   0.133   3.929   0.137 -0.0005 -1.1097 -0.9025
   33MOL   C43831222   0.126   4.063   0.101 -0.1618  0.5184  0.5153
   33MOL   C43931223   0.219   4.108   0.002  0.1385  1.0869 -1.0531
   33MOL   C44031224   0.316   4.020   7.745 -0.0513 -0.5210 -0.3081
   33MOL   C44131225   0.316   3.884   7.782  0.2537 -0.6497  0.3212
   33MOL   C44231226   0.435   3.800   7.732 -0.4862 -0.0762  1.7333
   33MOL   N44331227   0.540   3.777   0.044  0.1721 -0.1759  0.9345
   33MOL   C44431228   0.610   3.665   0.039 -0.7945  1.0076  0.4739
   33MOL   O44531229   0.605   3.596   7.730  0.0341 -0.0074 -0.4819
   33MOL   C44631230   0.713   3.634   0.146  0.0175  0.0350  0.2408
   33MOL   C44731231   0.845   3.574   0.095  0.0165  0.3077 -0.3774
   33MOL   C44831232   0.849   3.423   0.091  0.1715 -0.2163  0.5676
   33MOL   C44931233   0.969   3.371   0.011  0.2229 -0.1029 -0.1577
   33MOL   C45031234   1.105   3.406   0.078  0.4880  0.6811  0.3652
   33MOL   C45131235   1.129   3.347   0.219  0.5395  0.1739 -0.2877
   33MOL   C45231236   1.269   3.361   0.270  0.8626 -0.1193  0.1260
   33MOL   C45331237   1.293   3.298   0.412 -0.4318  0.3816 -0.2691
   33MOL   C45431238   1.415   3.357   0.472 -0.7193  0.4388  0.0756
   33MOL   O45531239   1.403   3.471   0.519  0.5791  0.7393 -0.4517
   33MOL   H45631240   0.311   3.736   0.315 -0.9633 -0.2804  2.4838
   33MOL   H45731241   0.112   3.661   0.110  0.5679 -0.8588 -0.2687
   33MOL   H45831242   0.288   3.624   0.088  1.8960  0.4806  2.1025
   33MOL   H45931243   0.068   3.896   0.217 -1.3729  0.6595 -1.2640
   33MOL   H46031244   0.046   4.124   0.141  0.1098  2.1661 -1.4044
   33MOL   H46131245   0.210   4.212   7.764 -1.5835  1.2744  0.1581
   33MOL   H46231246   0.373   4.053   7.659  3.5420 -0.2921  2.0489
   33MOL   H46331247   0.480   3.848   7.645 -1.2127 -1.9961  0.2765
   33MOL   H46431248   0.395   3.704   7.699  1.2160 -0.7949  1.7131
   33MOL   H46531249   0.546   3.843   0.120  0.8833 -1.7621  2.2777
   33MOL   H46631250   0.661   3.579   0.225  0.6456 -0.3003  0.4248
   33MOL   H46731251   0.732   3.734   0.185 -1.0122  0.2723  0.1563
   33MOL   H46831252   0.924   3.615   0.159 -0.1817 -1.1100  0.8127
   33MOL   H46931253   0.871   3.629   0.005  0.4172 -0.3237 -0.6470
   33MOL   H47031254   0.830   3.384   0.191 -3.8078 -0.3140 -0.1516
   33MOL   H47131255   0.755   3.387   0.049 -0.3858  1.2395  0.5548
   33MOL   H47231256   0.944   3.265   7.789 -0.7868 -0.2334  2.9705
   33MOL   H47331257   0.975   3.426   7.707  0.0325  1.2266  0.6093
   33MOL   H47431258   1.187   3.376   0.012  2.4071  2.4303  1.8817
   33MOL   H47531259   1.118   3.514   0.082 -1.4947  0.8947  1.4787
   33MOL   H47631260   1.100   3.242   0.210 -0.5123  0.4460 -0.1818
   33MOL   H47731261   1.054   3.377   0.292  0.1670 -0.1697 -0.5254
   33MOL   H47831262   1.331   3.307   0.198  0.0207 -0.5334 -0.2870
   33MOL   H47931263   1.293   3.467   0.264  1.9229 -0.3901 -0.6369
   33MOL   H48031264   1.215   3.326   0.483  1.1602  3.6177  0.2985
   33MOL   H48131265   1.296   3.190   0.400 -0.4746  0.3592 -0.0781
   33MOL   N48231266   1.533   3.296   0.463  0.0783  0.0378  0.1307
   33MOL   C48331267   1.659   3.359   0.474 -0.8728  1.2398  0.0169
   33MOL   C48431268   1.769   3.257   0.495 -0.3417 -0.4388 -0.4517
   33MOL   C48531269   1.823   3.248   0.626 -0.1045  0.0291  0.0082
   33MOL   C48631270   1.934   3.165   0.647  0.2534  0.3182 -0.3125
   33MOL   C48731271   1.974   3.080   0.544  0.2593 -1.0840 -0.1947
   33MOL   C48831272   1.923   3.085   0.417 -0.3252  0.1838  0.7692
   33MOL   C48931273   1.816   3.171   0.393  0.6706  0.4503 -0.0980
   33MOL   C49031274   1.751   3.167   0.260  0.1041 -0.2201 -0.1982
   33MOL   N49131275   1.699   3.036   0.218 -0.5772  0.3863 -0.2276
   33MOL   C49231276   1.580   2.977   0.243  0.5401  0.2363 -0.3705
   33MOL   O49331277   1.498   3.039   0.314 -0.3509 -0.1608  0.0841
   33MOL   C49431278   1.547   2.834   0.186  0.7923  0.1540  0.5444
   33MOL   C49531279   1.425   2.835   0.086 -0.2885 -0.2594 -0.4095
   33MOL   C49631280   1.404   2.708   0.005 -0.2348 -0.2285 -0.7747
   33MOL   C49731281   1.296   2.731   7.685 -0.1085  0.2529 -0.4788
   33MOL   C49831282   1.300   2.630   7.579  0.2003 -0.0628 -0.2772
   33MOL   C49931283   1.200   2.660   7.462  0.3858 -0.3831 -0.6872
   33MOL   C50031284   1.234   2.568   7.348 -0.1667  0.3528  0.0344
   33MOL   C50131285   1.162   2.598   7.216  0.5659  0.5233 -0.2219
   33MOL   C50231286   1.188   2.483   7.113 -0.0118 -0.4083  0.0127
   33MOL   O50331287   1.106   2.394   7.100  0.3767  0.0163  0.3820
   33MOL   H50431288   1.541   3.203   0.425 -1.8624  0.3650 -1.2061
   33MOL   H50531289   1.679   3.421   0.386  1.1174 -0.3587 -0.7113
   33MOL   H50631290   1.651   3.414   0.567 -1.3762  0.7861  0.2420
   33MOL   H50731291   1.792   3.315   0.705 -0.9973 -0.5464  0.1455
   33MOL   H50831292   1.979   3.155   0.745 -1.0119  2.2557  0.5202
   33MOL   H50931293   2.042   3.002   0.574  2.4091  1.0471  0.7098
   33MOL   H51031294   1.950   3.014   0.341  0.2134 -0.6277  1.7025
   33MOL   H51131295   1.823   3.204   0.187  0.4801  0.8679  0.7240
   33MOL   H51231296   1.668   3.237   0.254 -1.1576 -1.7044 -0.5729
   33MOL   H51331297   1.769   2.981   0.171  0.5933  1.9917 -0.4235
   33MOL   H51431298   1.525   2.764   0.267 -2.6465 -3.4195 -3.2542
   33MOL   H51531299   1.621   2.795   0.117 -0.0387 -1.5604  0.5794
   33MOL   H51631300   1.436   2.928   0.030 -0.5719  0.0094 -0.0273
   33MOL   H51731301   1.338   2.856   0.148 -1.1415 -0.4395 -1.5277
   33MOL   H51831302   1.499   2.690   7.745 -0.0570 -1.6610  0.0719
   33MOL   H51931303   1.372   2.623   0.065 -1.6943 -1.2529 -2.9379
   33MOL   H52031304   1.197   2.728   7.731  0.7551 -0.1559  1.3822
   33MOL   H52131305   1.309   2.826   7.632 -0.5039  1.1743  1.0427
   33MOL   H52231306   1.401   2.632   7.540  0.5280  0.1994  0.5826
   33MOL   H52331307   1.286   2.530   7.622  1.9859  1.0957  3.1703
   33MOL   H52431308   1.190   2.765   7.433  0.2446 -0.0746  0.4538
   33MOL   H52531309   1.101   2.637   7.502 -0.3632 -1.4685 -3.1217
   33MOL   H52631310   1.337   2.566   7.311  0.3503  0.6866  1.4295
   33MOL   H52731311   1.200   2.469   7.379  1.6604 -0.0771  0.7584
   33MOL   H52831312   1.175   2.695   7.169  0.2055  0.1794 -1.0495
   33MOL   H52931313   1.053   2.599   7.222  0.5980 -1.8189  1.1179
   33MOL   N53031314   1.307   2.484   7.040  0.6416 -0.0921 -0.4244
   33MOL   C53131315   1.341   2.393   6.930 -0.1852  0.4318  0.2568
   33MOL   C53231316   1.486   2.324   6.952  0.4068 -0.1945  0.3327
   33MOL   C53331317   1.556   2.341   7.077  0.3583 -0.5956  0.5339
   33MOL   C53431318   1.684   2.283   7.099  0.3860  0.2251 -0.4523
   33MOL   C53531319   1.741   2.203   7.002 -0.3357  0.0836  0.1231
   33MOL   C53631320   1.673   2.172   6.887  0.6934  0.4869  0.1900
   33MOL   C53731321   1.547   2.234   6.862  0.3631 -0.0156 -0.7479
   33MOL   C53831322   1.472   2.197   6.725  0.6594 -0.0828 -0.4039
   33MOL   N53931323   1.554   2.193   6.603 -0.2447  0.3325 -0.7786
   33MOL   C54031324   1.600   2.303   6.539 -0.5777 -0.9241  0.5509
   33MOL   O54131325   1.568   2.415   6.571 -0.1409 -0.1872  0.0420
   33MOL   C54231326   1.700   2.282   6.423 -1.0031  0.1818  0.2956
   33MOL   C54331327   1.730   2.403   6.333  0.0241  0.0402 -0.3086
   33MOL   C54431328   1.880   2.410   6.295 -0.5322  0.7793  0.5169
   33MOL   C54531329   1.921   2.530   6.211 -0.2123  0.5521  0.6309
   33MOL   C54631330   1.964   2.656   6.287 -0.0725  0.0962 -0.1692
   33MOL   C54731331   1.989   2.766   6.186 -0.8944 -0.1681 -0.4738
   33MOL   C54831332   2.055   2.893   6.229 -0.2263 -0.4836  0.1427
   33MOL   C54931333   2.070   3.005   6.125 -1.1550  0.1995 -0.0032
   33MOL   C55031334   1.950   3.100   6.128  0.6179 -0.6650 -0.7210
   33MOL   O55131335   1.844   3.070   6.192  0.0313  0.1932 -0.1504
   33MOL   H55231336   1.377   2.540   7.085  2.3517 -0.8829 -2.0587
   33MOL   H55331337   1.345   2.446   6.835  0.3825  0.5041  0.3187
   33MOL   H55431338   1.268   2.312   6.928 -0.4943  0.7289 -0.7953
   33MOL   H55531339   1.505   2.403   7.150  1.9724  1.0678  0.2813
   33MOL   H55631340   1.737   2.305   7.190  0.8846  0.8290 -0.8825
   33MOL   H55731341   1.831   2.150   7.030 -1.4044 -1.7753  0.1303
   33MOL   H55831342   1.711   2.102   6.813 -2.6182 -0.5668 -0.6184
   33MOL   H55931343   1.387   2.264   6.712 -0.9522 -1.9065  0.3348
   33MOL   H56031344   1.418   2.103   6.739  0.1967  0.4201  1.2601
   33MOL   H56131345   1.600   2.106   6.580 -1.3442 -0.5779  0.4242
   33MOL   H56231346   1.663   2.198   6.364  0.1055  0.2735 -0.5473
   33MOL   H56331347   1.794   2.255   6.470 -0.0608  2.1611 -0.4004
   33MOL   H56431348   1.693   2.494   6.380 -0.7936  0.3204 -1.4859
   33MOL   H56531349   1.670   2.379   6.245 -0.4681  1.6101 -0.4258
   33MOL   H56631350   1.950   2.401   6.378 -0.5698  0.4505  0.5115
   33MOL   H56731351   1.905   2.323   6.235  1.0078  0.7626  1.1745
   33MOL   H56831352   2.006   2.506   6.147  0.2624  2.7358  0.4320
   33MOL   H56931353   1.845   2.547   6.135  0.3770 -1.3158 -0.4093
   33MOL   H57031354   1.892   2.700   6.357 -0.1430 -0.2303 -0.0339
   33MOL   H57131355   2.050   2.636   6.351  0.4443 -1.5296 -1.3396
   33MOL   H57231356   1.894   2.795   6.143  0.0619 -0.7057 -3.0348
   33MOL   H57331357   2.038   2.731   6.095  0.5691 -0.6315  0.4681
   33MOL   H57431358   2.003   2.935   6.315 -1.4303  0.9325 -1.2719
   33MOL   H57531359   2.152   2.865   6.271  0.4699  1.1439 -0.3576
   33MOL   H57631360   2.081   2.968   6.023  4.2025 -0.3074  0.6416
   33MOL   H57731361   2.157   3.064   6.155 -0.5508 -2.0916  2.8696
   33MOL   N57831362   1.963   3.214   6.060 -0.3732  0.3587  0.1696
   33MOL   C57931363   1.874   3.329   6.071 -0.5240 -0.2318 -0.8411
   33MOL   C58031364   1.950   3.461   6.066 -0.4256  0.1533 -1.2509
   33MOL   C58131365   1.968   3.545   6.183 -0.1457  0.1814  0.6531
   33MOL   C58231366   2.049   3.662   6.174 -0.4177 -0.0751 -0.9318
   33MOL   C58331367   2.117   3.695   6.053 -0.1886 -0.2186  0.1409
   33MOL   C58431368   2.098   3.613   5.941 -0.5051 -0.4344 -0.2939
   33MOL   C58531369   2.012   3.503   5.949  0.2145 -0.5036  0.0339
   33MOL   C58631370   2.002   3.422   5.814 -0.9524  0.2016  0.2793
   33MOL   N58731371   2.125   3.411   5.727 -0.2812  0.1395  0.3031
   33MOL   C58831372   2.231   3.325   5.739  0.4205 -0.2963 -0.2047
   33MOL   O58931373   2.247   3.242   5.826 -0.4305  0.0313  0.4676
   33MOL   C59031374   2.325   3.327   5.617 -0.1955  0.0934 -0.0967
   33MOL   C59131375   2.425   3.446   5.613 -0.1145 -0.4525 -0.0030
   33MOL   C59231376   2.532   3.433   5.511 -0.7462  0.1238  0.3916
   33MOL   C59331377   2.646   3.354   5.573 -0.2358  0.3175 -0.4577
   33MOL   C59431378   2.756   3.308   5.469 -0.5005  0.1269 -0.1770
   33MOL   C59531379   2.863   3.231   5.539 -0.3907  0.2818 -0.1798
   33MOL   C59631380   2.966   3.158   5.455  0.3422 -0.8755 -0.2516
   33MOL   C59731381   3.068   3.253   5.387  0.1266  0.5390  0.5082
   33MOL   C59831382   3.162   3.325   5.486  0.4104  0.4321  0.3662
   33MOL   O59931383   3.198   3.271   5.589  0.7698 -0.4250  0.3084
   33MOL   H60031384   2.043   3.229   6.000  0.5211 -2.0204  0.7346
   33MOL   H60131385   1.823   3.334   6.167  0.3505  0.4568 -0.4105
   33MOL   H60231386   1.790   3.338   6.001 -0.3990  1.7522 -0.7732
   33MOL   H60331387   1.913   3.525   6.274  0.2394  2.0391  1.3138
   33MOL   H60431388   2.029   3.726   6.259 -0.0112 -1.2886  0.0917
   33MOL   H60531389   2.155   3.796   6.048 -0.4989 -0.1042  0.0636
   33MOL   H60631390   2.148   3.632   5.847  0.7180  0.6427  0.5601
   33MOL   H60731391   1.925   3.467   5.752  0.1785  0.1457 -1.2086
   33MOL   H60831392   1.960   3.323   5.828  1.5991 -1.0875 -0.8998
   33MOL   H60931393   2.128   3.483   5.656  1.3383  2.8401  2.9802
   33MOL   H61031394   2.276   3.327   5.520  1.1272 -2.8804 -0.8397
   33MOL   H61131395   2.384   3.235   5.616 -0.7034 -0.2349  0.1846
   33MOL   H61231396   2.460   3.449   5.716 -0.0711  0.6943 -0.0465
   33MOL   H61331397   2.360   3.531   5.592  0.8811 -0.2334 -2.3174
   33MOL   H61431398   2.497   3.377   5.424  2.1800 -0.9324 -0.1796
   33MOL   H61531399   2.563   3.533   5.483 -0.0430 -0.2599 -0.1962
   33MOL   H61631400   2.696   3.427   5.637  0.0357  0.8150 -1.2332
   33MOL   H61731401   2.615   3.271   5.636 -0.2349  1.4620  1.0666
   33MOL   H61831402   2.704   3.236   5.406  0.0797 -1.3773  1.0357
   33MOL   H61931403   2.798   3.390   5.410  1.4727  0.3091  1.4341
   33MOL   H62031404   2.822   3.161   5.612 -2.5702 -0.2337 -1.8187
   33MOL   H62131405   2.919   3.292   5.609 -1.6264  0.4265  0.7069
   33MOL   H62231406   3.019   3.095   5.527  2.5379  0.7958 -0.3485
   33MOL   H62331407   2.899   3.092   5.400  1.9375 -3.2458  0.5226
   33MOL   H62431408   3.128   3.194   5.319  0.6050  1.4496  0.1264
   33MOL   H62531409   3.025   3.329   5.321  0.6229 -0.4879 -1.0261
   33MOL   N62631410   3.196   3.451   5.460  0.4090 -0.1165 -0.3114
   33MOL   C62731411   3.298   3.528   5.524  0.1284  0.6544 -0.1374
   33MOL   C62831412   3.334   3.664   5.452 -0.4171  1.0342 -0.4157
   33MOL   C62931413   3.472   3.681   5.425 -0.2011 -0.2484  0.7125
   33MOL   C63031414   3.517   3.801   5.357 -0.1162 -0.2185  0.4194
   33MOL   C63131415   3.423   3.899   5.328  0.4537  0.9194  0.4582
   33MOL   C63231416   3.293   3.886   5.368  0.3956  0.3525 -0.0182
   33MOL   C63331417   3.239   3.770   5.429 -0.5841  0.1251 -0.9256
   33MOL   C63431418   3.097   3.761   5.464  0.1618 -0.2767 -0.4205
   33MOL   N63531419   3.002   3.773   5.349 -0.1818 -0.3170 -0.4467
   33MOL   C63631420   2.984   3.678   5.266 -0.3511  0.0095 -0.0192
   33MOL   O63731421   3.034   3.565   5.285 -0.3306 -0.4868 -0.1332
   33MOL   C63831422   2.901   3.706   5.140  0.2060  1.5312  0.1354
   33MOL   C63931423   2.829   3.579   5.090 -0.3101  0.2488 -0.6463
   33MOL   C64031424   2.698   3.543   5.159  0.5377 -0.2810 -0.0107
   33MOL   C64131425   2.615   3.430   5.099  0.1025  0.2546  0.1506
   33MOL   C64231426   2.689   3.292   5.092  0.5503 -1.1098  0.0326
   33MOL   C64331427   2.591   3.174   5.080  0.3518  0.2353 -0.3889
   33MOL   C64431428   2.475   3.177   4.981 -0.2344 -0.1985 -0.3088
   33MOL   C64531429   2.344   3.230   5.052 -0.4003  0.7104  0.5183
   33MOL   C64631430   2.228   3.133   5.043 -0.0382  0.6961 -0.2015
   33MOL   O64731431   2.175   3.115   4.935  0.3169  0.0046 -0.1022
   33MOL   H64831432   3.147   3.492   5.382 -3.2599 -1.5759  1.1054
   33MOL   H64931433   3.379   3.455   5.534 -0.8875 -0.4875 -0.1754
   33MOL   H65031434   3.278   3.554   5.628 -0.1106  0.1448 -0.0558
   33MOL   H65131435   3.538   3.602   5.456 -1.1342 -1.7072 -0.9572
   33MOL   H65231436   3.623   3.811   5.342 -0.2056  0.6062  0.2914
   33MOL   H65331437   3.454   3.989   5.277 -3.4526  1.0338 -1.9086
   33MOL   H65431438   3.224   3.964   5.340 -0.4538 -1.1851 -2.3513
   33MOL   H65531439   3.066   3.833   5.540  2.5349 -0.7884  1.0600
   33MOL   H65631440   3.062   3.670   5.513 -2.2596  0.6509 -0.3321
   33MOL   H65731441   2.947   3.857   5.336 -0.8627 -1.0818 -2.7842
   33MOL   H65831442   2.971   3.730   5.060  1.6256 -1.1234  0.5128
   33MOL   H65931443   2.833   3.791   5.147  0.8156  1.9598  0.8876
   33MOL   H66031444   2.899   3.495   5.090 -0.2560  0.2738 -2.4561
   33MOL   H66131445   2.806   3.596   4.984 -0.4547  1.7696 -0.3736
   33MOL   H66231446   2.718   3.534   5.266 -2.6450  0.1218  0.6563
   33MOL   H66331447   2.636   3.631   5.147 -0.8325 -0.9916  1.6370
   33MOL   H66431448   2.523   3.425   5.158 -0.8911  0.3399 -1.3621
   33MOL   H66531449   2.564   3.464   5.008  1.4805  3.7388  0.6000
   33MOL   H66631450   2.751   3.290   5.002  0.4134 -2.7213 -0.0297
   33MOL   H66731451   2.756   3.283   5.178 -1.5252 -0.6935  1.7226
   33MOL   H66831452   2.552   3.152   5.180  0.5944 -0.8869 -0.5376
   33MOL   H66931453   2.647   3.085   5.056 -1.6670 -0.6149 -2.1354
   33MOL   H67031454   2.492   3.227   4.885  0.2177  0.3314  0.0483
   33MOL   H67131455   2.441   3.076   4.957 -3.9479  1.1494 -1.0806
   33MOL   H67231456   2.292   3.313   5.002 -3.1902  0.5617  3.0280
   33MOL   H67331457   2.375   3.269   5.149  1.4675  0.4683  0.0367
   33MOL   N67431458   2.195   3.070   5.160  0.3698 -0.0561 -0.0114
   33MOL   C67531459   2.086   2.981   5.189 -0.3266  0.8534 -0.1221
   33MOL   C67631460   2.077   2.959   5.335  0.3364  0.1500 -0.7580
   33MOL   C67731461   2.104   3.058   5.430  0.0087  0.4843 -0.3937
   33MOL   C67831462   2.088   3.047   5.571  0.6033 -0.0724 -0.5511
   33MOL   C67931463   2.049   2.927   5.619  0.0403 -0.0552  0.5379
   33MOL   C68031464   2.013   2.816   5.530 -0.2131  0.3500  0.5130
   33MOL   C68131465   2.030   2.829   5.388 -0.2646  0.2764 -0.0399
   33MOL   C68231466   1.993   2.719   5.296 -0.5239  0.4675 -0.4632
   33MOL   N68331467   1.911   2.611   5.357 -0.3612  0.4445  0.3359
   33MOL   C68431468   1.896   2.483   5.314 -0.4599  0.5693  0.0244
   33MOL   O68531469   1.977   2.431   5.232 -0.1354  0.2371  0.2156
   33MOL   C68631470   1.788   2.401   5.380  1.0318  0.1962 -0.1540
   33MOL   C68731471   1.733   2.292   5.275 -0.9073 -0.0383 -0.0110
   33MOL   C68831472   1.628   2.363   5.179  0.5370  0.0345  0.0549
   33MOL   C68931473   1.557   2.258   5.080 -0.5712 -0.3128 -0.0936
   33MOL   C69031474   1.639   2.169   4.990  0.0646 -0.4320 -0.3184
   33MOL   C69131475   1.722   2.239   4.880  0.5776 -0.2683 -0.7377
   33MOL   C69231476   1.775   2.144   4.775  0.1627  0.7135 -0.5630
   33MOL   C69331477   1.862   2.214   4.673  0.0859 -0.0336 -0.4468
   33MOL   C69431478   1.920   2.111   4.579 -0.6506  0.1679  0.4315
   33MOL   O69531479   1.976   2.010   4.617  0.4126 -0.0700 -0.6777
   33MOL   H69631480   2.255   3.088   5.240 -1.0011  0.5011  0.9130
   33MOL   H69731481   2.110   2.887   5.138  0.8750  1.5595 -0.8788
   33MOL   H69831482   1.993   3.019   5.147 -0.2790  0.4246 -0.6337
   33MOL   H69931483   2.146   3.149   5.388  1.5449  1.1052  2.3840
   33MOL   H70031484   2.109   3.128   5.639 -1.3880 -0.0812  0.0891
   33MOL   H70131485   2.033   2.916   5.725  0.2649 -4.0850  0.2477
   33MOL   H70231486   1.987   2.717   5.564 -2.7008  0.0765 -1.9595
   33MOL   H70331487   2.076   2.678   5.240  0.0032 -0.6032  1.0687
   33MOL   H70431488   1.929   2.769   5.223  0.3019 -0.9394 -2.1862
   33MOL   H70531489   1.833   2.640   5.415 -2.3290 -3.7258 -0.0785
   33MOL   H70631490   1.706   2.460   5.421  0.9382  0.0227 -0.0934
   33MOL   H70731491   1.826   2.342   5.464  1.1638  0.8770  0.2700
   33MOL   H70831492   1.695   2.202   5.322  0.9774  0.0621  1.7702
   33MOL   H70931493   1.822   2.268   5.216 -1.6297  0.6344 -1.4110
   33MOL   H71031494   1.548   2.420   5.227  0.2900 -0.2351 -0.0352
   33MOL   H71131495   1.687   2.440   5.128  0.1820  0.9390  0.9844
   33MOL   H71231496   1.500   2.190   5.144 -0.8435  0.1861  0.2017
   33MOL   H71331497   1.478   2.318   5.034 -1.3983 -0.4598  1.0932
   33MOL   H71431498   1.706   2.103   5.044  3.5745  1.7471 -1.8188
   33MOL   H71531499   1.564   2.109   4.937 -0.1187  1.1921 -1.9653
   33MOL   H71631500   1.805   2.292   4.925 -0.2413 -0.3108  0.8396
   33MOL   H71731501   1.673   2.318   4.823  2.2169  0.7607 -0.7416
   33MOL   H71831502   1.680   2.097   4.747 -0.2630  1.1493  0.1371
   33MOL   H71931503   1.835   2.071   4.830 -1.5366  0.0798  0.4988
   33MOL   H72031504   1.944   2.248   4.737  0.2548  1.2928 -1.3431
   33MOL   H72131505   1.825   2.303   4.623  0.3423  0.6764  0.6074
   33MOL   N72231506   1.906   2.137   4.449 -0.0805 -0.8231  0.2938
   33MOL   C72331507   1.952   2.065   4.341 -0.3654  0.3403  1.1254
   33MOL   C72431508   1.830   2.000   4.269 -1.0940  0.1485 -0.5154
   33MOL   C72531509   1.747   1.911   4.343  0.2161 -0.2404  0.1825
   33MOL   C72631510   1.640   1.845   4.281 -0.2967  0.1115  0.0043
   33MOL   C72731511   1.622   1.863   4.145  0.4419 -0.2950  0.5019
   33MOL   C72831512   1.696   1.959   4.069  0.2280  0.6718  0.3139
   33MOL   C72931513   1.804   2.028   4.134 -0.1041 -0.9522  0.3013
   33MOL   C73031514   1.880   2.132   4.057 -0.0788 -0.2958 -0.3982
   33MOL   N73131515   1.822   2.261   4.085 -0.3914 -0.0834  0.5892
   33MOL   C73231516   1.840   2.368   4.001 -0.4253  0.7596  0.1531
   33MOL   O73331517   1.900   2.360   3.892 -0.5011 -0.4447 -0.3970
   33MOL   C73431518   1.770   2.498   4.049  0.3995  0.6604  0.1503
   33MOL   C73531519   1.773   2.612   3.950 -0.2869  0.4780 -0.1479
   33MOL   C73631520   1.904   2.689   3.927 -0.1264 -0.3005  0.2801
   33MOL   C73731521   1.929   2.796   4.033  0.2354  0.6209 -0.0977
   33MOL   C73831522   2.075   2.815   4.064 -0.0026 -0.2860  0.7502
   33MOL   C73931523   2.099   2.886   4.201 -0.1870  0.7181  0.3878
   33MOL   C74031524   2.251   2.872   4.256 -0.4195  0.1051 -0.2767
   33MOL   C74131525   2.366   2.914   4.156  1.3926 -0.7597 -0.6008
   33MOL   C74231526   2.332   3.043   4.085  0.4165  0.1254  0.3881
   33MOL   O74331527   2.315   3.152   4.143  0.7514  0.1554 -0.1988
   33MOL   H74431528   1.842   2.213   4.434 -1.2315 -1.9608 -0.6948
   33MOL   H74531529   2.017   1.979   4.359 -0.4600  0.3173  1.3602
   33MOL   H74631530   2.020   2.125   4.280 -0.4042 -1.5592 -0.8468
   33MOL   H74731531   1.760   1.891   4.448  0.4787 -2.9968 -0.3505
   33MOL   H74831532   1.561   1.788   4.326 -1.5020  1.2750 -0.6063
   33MOL   H74931533   1.551   1.800   4.093  1.1431 -0.1874 -0.5993
   33MOL   H75031534   1.673   1.986   3.967  1.4117 -0.3853 -0.2485
   33MOL   H75131535   1.877   2.111   3.950 -2.8903  0.6534 -0.5470
   33MOL   H75231536   1.985   2.147   4.082 -0.0309 -0.6374 -0.3834
   33MOL   H75331537   1.775   2.276   4.173  0.5051  1.6857  0.7864
   33MOL   H75431538   1.819   2.526   4.142  1.6081 -2.7150  0.5930
   33MOL   H75531539   1.669   2.470   4.080  0.5059  0.5898  0.4366
   33MOL   H75631540   1.694   2.684   3.971  0.2445  1.7653 -2.3131
   33MOL   H75731541   1.732   2.575   3.856 -0.3087  0.0740  0.0198
   33MOL   H75831542   1.979   2.609   3.929 -0.3026 -0.4584  0.8052
   33MOL   H75931543   1.908   2.736   3.829  1.2550  1.2129  1.0315
   33MOL   H76031544   1.886   2.887   3.993  0.1494  0.6982  0.1739
   33MOL   H76131545   1.874   2.783   4.126 -1.3993  2.0649 -0.8581
   33MOL   H76231546   2.135   2.725   4.054  0.9231  0.5746 -1.8466
   33MOL   H76331547   2.118   2.872   3.982  2.3837 -2.3330  0.5191
   33MOL   H76431548   2.026   2.853   4.274 -1.9125  1.0452 -1.1514
   33MOL   H76531549   2.073   2.991   4.194  0.7168  0.9493  0.4946
   33MOL   H76631550   2.265   2.939   4.341 -0.3154 -0.1882 -0.0651
   33MOL   H76731551   2.259   2.770   4.292 -1.4805  0.5804  1.3966
   33MOL   H76831552   2.453   2.926   4.220 -0.1103  1.1321  1.1418
   33MOL   H76931553   2.387   2.842   4.077  0.7246 -2.2820  0.5923
   33MOL   N77031554   2.340   3.037   3.951 -0.3356  0.3379  0.4111
   33MOL   C77131555   2.311   3.145   3.858  0.3430 -0.4835 -0.0013
   33MOL   C77231556   2.435   3.212   3.810  0.0051 -0.4462 -0.5174
   33MOL   C77331557   2.560   3.198   3.878  0.5696  0.9733 -0.2144
   33MOL   C77431558   2.671   3.264   3.823  0.1635 -0.0170 -0.5763
   33MOL   C77531559   2.656   3.348   3.711 -0.0683  0.9474 -0.0673
   33MOL   C77631560   2.534   3.352   3.641  0.1948 -0.7054 -0.2743
   33MOL   C77731561   2.424   3.288   3.689  0.1387 -0.1475  0.6542
   33MOL   C77831562   2.301   3.298   3.610  0.5069 -0.0442  0.0213
   33MOL   N77931563   2.206   3.395   3.665  0.0783 -0.2855  0.3772
   33MOL   C78031564   2.088   3.365   3.717 -0.0240  0.0212 -0.0967
   33MOL   O78131565   2.037   3.252   3.705  0.5574 -0.4088 -0.4199
   33MOL   C78231566   2.009   3.476   3.788 -0.6295  0.1889  0.9562
   33MOL   C78331567   2.047   3.491   3.940 -0.6534 -0.0946  0.2980
   33MOL   C78431568   1.977   3.386   4.032  0.3404 -0.1243 -0.0588
   33MOL   C78531569   2.008   3.385   4.178 -0.1466  0.3746 -0.3010
   33MOL   C78631570   1.925   3.300   4.273  0.9396 -0.5950  0.0621
   33MOL   C78731571   2.006   3.253   4.394  0.6720 -0.4370 -0.4086
   33MOL   C78831572   1.927   3.183   4.506  0.5415  0.4171 -0.2828
   33MOL   C78931573   2.009   3.136   4.624 -0.3224  0.4532 -0.4920
   33MOL   C79031574   2.077   2.995   4.616  0.1990  0.1728 -0.4170
   33MOL   O79131575   2.033   2.902   4.549  0.0652  0.5371 -0.0231
   33MOL   H79231576   2.348   2.946   3.908 -2.3994  0.1828  0.2888
   33MOL   H79331577   2.249   3.110   3.776  0.6960 -0.5362 -0.2457
   33MOL   H79431578   2.249   3.220   3.906 -0.5469 -1.5496  0.5427
   33MOL   H79531579   2.571   3.135   3.965 -0.2894  0.4887 -0.4593
   33MOL   H79631580   2.769   3.249   3.866 -0.4062  1.4132  1.2562
   33MOL   H79731581   2.744   3.397   3.671 -0.6464  2.0249 -0.0259
   33MOL   H79831582   2.519   3.413   3.553  0.5088 -1.6321 -0.9894
   33MOL   H79931583   2.260   3.197   3.597 -0.4404  0.2278  0.7912
   33MOL   H80031584   2.321   3.328   3.508  0.2897  0.0028 -0.0084
   33MOL   H80131585   2.236   3.491   3.674  1.0624 -0.5140 -0.2909
   33MOL   H80231586   1.905   3.446   3.775 -1.3256  2.6788  0.5217
   33MOL   H80331587   2.031   3.564   3.728  1.4210 -0.1750  1.1396
   33MOL   H80431588   2.026   3.594   3.971 -1.3894 -0.0703 -0.2369
   33MOL   H80531589   2.154   3.496   3.955 -0.5720 -0.7853 -0.0413
   33MOL   H80631590   2.013   3.293   3.988 -0.4998 -0.2859 -0.4171
   33MOL   H80731591   1.869   3.396   4.022  0.3025 -2.2845 -2.4059
   33MOL   H80831592   2.112   3.351   4.175  0.2296  1.4533  0.0122
   33MOL   H80931593   2.027   3.488   4.210  0.7934  0.2560 -0.4565
   33MOL   H81031594   1.835   3.354   4.303  0.8156  0.1304 -1.5757
   33MOL   H81131595   1.888   3.204   4.236  1.2153 -0.5762 -0.2564
   33MOL   H81231596   2.065   3.327   4.447  0.0025 -0.9040  1.0099
   33MOL   H81331597   2.076   3.179   4.353  1.0814 -0.9085  1.1243
   33MOL   H81431598   1.884   3.101   4.449 -0.5945 -1.1695  2.7587
   33MOL   H81531599   1.840   3.240   4.538 -0.3163 -0.6733 -0.6535
   33MOL   H81631600   1.959   3.145   4.721 -1.2754 -1.6726 -0.7529
   33MOL   H81731601   2.083   3.215   4.635  0.2068 -0.0339 -0.5298
   33MOL   N81831602   2.179   2.968   4.702  0.6101 -0.1050 -0.3218
   33MOL   C81931603   2.269   2.855   4.695  0.4770  0.1756  0.3910
   33MOL   C82031604   2.239   2.733   4.778 -0.0563 -0.1469 -0.5778
   33MOL   C82131605   2.108   2.718   4.831  0.0774 -0.2204 -0.5773
   33MOL   C82231606   2.071   2.592   4.894 -0.7281 -0.3656  0.4838
   33MOL   C82331607   2.167   2.491   4.901 -0.3240  0.8895 -0.0247
   33MOL   C82431608   2.303   2.510   4.860 -0.1097 -0.2715 -0.7399
   33MOL   C82531609   2.342   2.635   4.812  0.5948 -1.0896  0.5659
   33MOL   C82631610   2.480   2.659   4.762  0.3654 -0.0604 -0.0659
   33MOL   N82731611   2.509   2.583   4.644 -0.2221  0.0615  0.0617
   33MOL   C82831612   2.514   2.625   4.518 -0.7801 -0.1741 -0.0748
   33MOL   O82931613   2.461   2.733   4.490  0.5986  0.3987 -0.2337
   33MOL   C83031614   2.576   2.535   4.414  0.0212 -0.3515  0.4812
   33MOL   C83131615   2.695   2.596   4.342 -0.7183 -0.2677  1.0346
   33MOL   C83231616   2.668   2.721   4.246 -0.1668  0.1092 -0.7871
   33MOL   C83331617   2.797   2.790   4.197 -0.3472 -0.3241 -0.2162
   33MOL   C83431618   2.762   2.920   4.128 -0.6653 -0.4545 -0.0967
   33MOL   C83531619   2.886   3.010   4.089  0.5260 -0.7081  0.3492
   33MOL   C83631620   2.964   2.949   3.971  0.3080 -0.3100  0.2689
   33MOL   C83731621   3.051   3.056   3.905 -0.4529  0.2729  0.3165
   33MOL   C83831622   3.187   3.002   3.854  0.3548  0.7342 -0.4058
   33MOL   O83931623   3.210   3.008   3.732 -0.3684 -0.5098 -0.2259
   33MOL   H84031624   2.207   3.048   4.757  0.5151 -0.3433  0.0736
   33MOL   H84131625   2.288   2.826   4.592 -0.8688  2.0869 -0.4346
   33MOL   H84231626   2.356   2.909   4.733  0.4359  2.4042 -2.4758
   33MOL   H84331627   2.038   2.799   4.820  2.2616  1.7380 -0.5469
   33MOL   H84431628   1.971   2.572   4.928 -1.3834  0.3861 -0.9834
   33MOL   H84531629   2.134   2.393   4.933  1.4569  1.1526  2.7948
   33MOL   H84631630   2.378   2.442   4.896 -0.9941  0.5779  2.9367
   33MOL   H84731631   2.548   2.625   4.841  1.9273  0.3959 -1.1904
   33MOL   H84831632   2.503   2.765   4.762  1.2713 -0.2451 -1.4252
   33MOL   H84931633   2.557   2.498   4.671  0.2814  0.6064  0.9337
   33MOL   H85031634   2.488   2.516   4.351  0.5259  3.1667 -1.4136
   33MOL   H85131635   2.592   2.442   4.468 -3.3106 -0.7781  0.8511
   33MOL   H85231636   2.752   2.526   4.281  1.0239  1.7925  0.2308
   33MOL   H85331637   2.760   2.638   4.419  1.8150  0.0942 -1.2250
   33MOL   H85431638   2.609   2.791   4.305  0.8912 -0.1261  0.5899
   33MOL   H85531639   2.600   2.686   4.169 -2.4117 -0.8648  1.5662
   33MOL   H85631640   2.879   2.816   4.264  0.5988 -0.2618 -1.3902
   33MOL   H85731641   2.839   2.718   4.128  1.3908  0.0647  0.4184
   33MOL   H85831642   2.681   2.908   4.055 -0.8638 -1.3954  0.2695
   33MOL   H85931643   2.715   2.987   4.200  0.2756 -1.0354  1.0684
   33MOL   H86031644   2.956   3.029   4.171  1.9643  1.1328 -1.2635
   33MOL   H86131645   2.842   3.100   4.045 -2.3678 -2.3328 -0.1787
   33MOL   H86231646   2.902   2.896   3.899  0.4551  2.1839 -1.7704
   33MOL   H86331647   3.028   2.877   4.021  2.6887  0.3465 -1.7274
   33MOL   H86431648   2.992   3.101   3.825 -0.3107  1.1682  0.7072
   33MOL   H86531649   3.053   3.139   3.976  0.6852  0.6063 -0.0954
   33MOL   N86631650   3.274   2.958   3.944  0.1254  0.9948 -0.1401
   33MOL   C86731651   3.411   2.926   3.914  0.3755 -0.2743 -0.3044
   33MOL   C86831652   3.480   2.899   4.048 -0.6314  0.3283 -0.1875
   33MOL   C86931653   3.561   3.006   4.100  0.0677 -0.7629  0.3342
   33MOL   C87031654   3.634   2.975   4.215 -0.1859  0.4332 -0.9361
   33MOL   C87131655   3.630   2.849   4.277 -0.4059 -1.1229 -0.4210
   33MOL   C87231656   3.550   2.751   4.222  0.2772 -0.4304 -0.3575
   33MOL   C87331657   3.468   2.776   4.110 -0.4039 -0.4553  0.0463
   33MOL   C87431658   3.385   2.654   4.058 -0.6655  0.1876 -0.4865
   33MOL   N87531659   3.261   2.635   4.126 -0.2270 -0.4602 -0.7551
   33MOL   C87631660   3.214   2.518   4.164  0.0052  0.5183  0.3885
   33MOL   O87731661   3.266   2.405   4.145 -0.4494 -0.5778 -0.1480
   33MOL   C87831662   3.077   2.521   4.226  0.7187 -0.1907  0.4580
   33MOL   C87931663   3.094   2.447   4.366  0.2744  0.5019 -0.3340
   33MOL   C88031664   2.990   2.486   4.475 -0.1215 -0.1101 -0.0834
   33MOL   C88131665   3.005   2.420   4.618 -0.4676 -0.1564 -0.2670
   33MOL   C88231666   2.894   2.454   4.721  0.3090  0.3357 -0.4147
   33MOL   C88331667   2.881   2.346   4.833  0.2176  0.1499  0.2472
   33MOL   C88431668   2.776   2.361   4.944 -0.6092  0.2587  0.7340
   33MOL   C88531669   2.767   2.234   5.035 -0.5671 -0.5479 -0.1680
   33MOL   C88631670   2.874   2.227   5.139 -0.4862  0.3250 -0.3829
   33MOL   O88731671   2.915   2.332   5.187  0.0971 -0.0468  0.7181
   33MOL   H88831672   3.252   2.959   4.042 -0.0118  1.2765 -0.1747
   33MOL   H88931673   3.422   2.833   3.858 -1.5092 -0.6971 -0.0137
   33MOL   H89031674   3.464   3.010   3.868 -1.1824  0.9361  0.0743
   33MOL   H89131675   3.576   3.100   4.050  0.5841  0.5546  2.8695
   33MOL   H89231676   3.700   3.050   4.256 -1.0457  1.4409 -1.3783
   33MOL   H89331677   3.689   2.828   4.364 -0.0354 -1.7964 -0.8259
   33MOL   H89431678   3.526   2.660   4.275  0.3381  0.0725  0.5278
   33MOL   H89531679   3.438   2.559   4.047 -0.8577  0.1214 -0.8788
   33MOL   H89631680   3.352   2.663   3.954  4.3199  1.5032 -2.0959
   33MOL   H89731681   3.205   2.716   4.149 -1.5274 -1.3234 -0.7801
   33MOL   H89831682   3.015   2.470   4.153  0.3355  0.2343  0.4816
   33MOL   H89931683   3.032   2.620   4.235  2.8201  0.9523 -1.0996
   33MOL   H90031684   3.190   2.462   4.415 -1.2459  1.6023  2.4156
   33MOL   H90131685   3.089   2.339   4.350  2.0137  0.6499 -2.0437
   33MOL   H90231686   2.990   2.595   4.485 -0.8219  0.1081 -2.2042
   33MOL   H90331687   2.893   2.457   4.434 -0.8320  0.8602  0.8762
   33MOL   H90431688   3.000   2.313   4.599 -0.8387  0.0953 -1.6381
   33MOL   H90531689   3.100   2.436   4.669 -0.4630 -0.7908 -0.0759
   33MOL   H90631690   2.900   2.552   4.769 -0.4746 -0.7875  2.0190
   33MOL   H90731691   2.802   2.465   4.663 -0.5413  1.5501  1.1313
   33MOL   H90831692   2.982   2.334   4.874  0.2177  1.3244  0.6192
   33MOL   H90931693   2.838   2.259   4.785 -0.0664 -0.0595  0.8796
   33MOL   H91031694   2.806   2.452   4.995 -0.4592 -0.9139  2.8160
   33MOL   H91131695   2.677   2.378   4.901  1.1481  0.9957 -3.1886
   33MOL   H91231696   2.673   2.254   5.086 -0.2293  0.3463  0.1159
   33MOL   H91331697   2.756   2.140   4.982 -0.0637 -1.4175  1.2240
   33MOL   N91431698   2.931   2.113   5.170 -0.0590 -0.5798 -0.0781
   33MOL   C91531699   3.039   2.102   5.273  0.4421  0.2645 -0.9462
   33MOL   C91631700   3.171   2.056   5.211 -0.8990  0.9266 -1.0176
   33MOL   C91731701   3.256   2.156   5.157  0.2662  0.3811 -0.5545
   33MOL   C91831702   3.383   2.121   5.104 -0.1261 -0.0216  0.0491
   33MOL   C91931703   3.424   1.988   5.098  0.3211 -0.0591 -0.4759
   33MOL   C92031704   3.334   1.889   5.145  0.0856 -0.1793  0.0916
   33MOL   C92131705   3.211   1.919   5.210  0.0200  0.2610 -0.3373
   33MOL   C92231706   3.116   1.803   5.264 -0.8022 -0.2471 -0.2256
   33MOL   N92331707   3.073   1.731   5.144 -0.3977  0.0912 -0.7580
   33MOL   C92431708   2.967   1.754   5.068  0.4254  0.3401 -0.1520
   33MOL   O92531709   2.872   1.827   5.102  0.3699 -0.4900 -0.1307
   33MOL   C92631710   2.960   1.694   4.928  0.3691 -0.1765 -0.1662
   33MOL   C92731711   2.892   1.778   4.816  0.6749  0.5095 -0.0262
   33MOL   C92831712   2.938   1.925   4.810  0.0528 -0.4495  0.1900
   33MOL   C92931713   3.090   1.926   4.778 -0.2382 -0.3976 -0.0875
   33MOL   C93031714   3.151   2.054   4.713 -0.5241 -0.2928 -0.1996
   33MOL   C93131715   3.311   2.057   4.714 -0.3279 -0.6871  0.0846
   33MOL   C93231716   3.376   1.948   4.625 -0.5319  0.6868 -0.1803
   33MOL   C93331717   3.534   1.940   4.641 -0.4025  0.6396 -0.0852
   33MOL   C93431718   3.577   1.846   4.748 -1.0459 -0.2163 -0.6085
   33MOL   O93531719   3.496   1.799   4.829  0.5723 -0.2278  0.4124
   33MOL   H93631720   2.908   2.025   5.124 -0.6888 -0.2961 -0.3169
   33MOL   H93731721   3.060   2.199   5.319 -0.5239 -0.3880  0.9002
   33MOL   H93831722   3.007   2.049   5.362  0.6879  0.3581 -0.8027
   33MOL   H93931723   3.228   2.261   5.164  0.4891  0.5211 -1.6123
   33MOL   H94031724   3.439   2.204   5.062  1.4282 -0.9434  0.2779
   33MOL   H94131725   3.516   1.959   5.050 -1.4206 -0.8739 -3.4006
   33MOL   H94231726   3.359   1.785   5.126 -1.6054 -0.2192 -2.1475
   33MOL   H94331727   3.028   1.841   5.315  0.8205  0.9214  1.7402
   33MOL   H94431728   3.171   1.733   5.326 -1.9782 -3.0054 -2.1557
   33MOL   H94531729   3.147   1.673   5.106 -0.2289 -1.4864  1.7995
   33MOL   H94631730   2.908   1.598   4.932  2.2521 -1.1810  0.8175
   33MOL   H94731731   3.059   1.671   4.888  0.7444  1.5650 -0.2639
   33MOL   H94831732   2.783   1.779   4.821  0.6134  2.7830 -1.0094
   33MOL   H94931733   2.910   1.727   4.721  2.9039 -3.2695  2.3142
   33MOL   H95031734   2.889   1.983   4.732  1.3594 -1.6719 -1.5906
   33MOL   H95131735   2.924   1.975   4.906  0.6193 -2.0977  1.1536
   33MOL   H95231736   3.135   1.913   4.877  0.4493 -1.0030 -0.4752
   33MOL   H95331737   3.126   1.845   4.714 -0.1742 -0.3104 -0.1618
   33MOL   H95431738   3.118   2.134   4.779  0.2512 -0.0760 -0.0773
   33MOL   H95531739   3.121   2.070   4.609 -0.0507 -1.2980 -0.4999
   33MOL   H95631740   3.339   2.155   4.674  1.9963 -1.4778 -0.3433
   33MOL   H95731741   3.341   2.069   4.818  2.1592  0.1925 -0.6844
   33MOL   H95831742   3.353   1.966   4.520 -1.1200 -1.2492 -0.4052
   33MOL   H95931743   3.324   1.854   4.642 -2.3522  1.6637 -0.2606
   33MOL   H96031744   3.580   2.033   4.671  1.0388 -0.1214  0.0839
   33MOL   H96131745   3.570   1.907   4.543  0.1680  1.4922 -0.1641
   33MOL   H96231746   3.681   1.817   4.731 -1.4407 -0.3534 -2.9740
   34MOL     N131747   2.269   7.311   6.328  0.3502  0.2456 -0.7503
   34MOL     C231748   2.131   7.285   6.306  0.6011 -0.5209  0.4424
   34MOL     C331749   2.048   7.407   6.346  0.2225  0.8870 -0.7171
   34MOL     C431750   2.090   7.534   6.314 -0.5985 -0.1792  0.2821
   34MOL     C531751   2.020   7.651   6.353  0.5390 -0.0241 -0.0159
   34MOL     C631752   1.895   7.647   6.426  0.1726  0.1042 -0.2952
   34MOL     C731753   1.849   7.511   6.455  0.0530  0.8687 -0.3203
   34MOL     C831754   1.924   7.399   6.410  0.4927  0.5834 -0.2920
   34MOL     C931755   1.855   7.270   6.435 -0.6425  0.2030 -0.8940
   34MOL    N1031756   1.713   7.266   6.385  0.2618 -0.2969  0.6043
   34MOL    C1131757   1.673   7.280   6.256  0.1123  0.7200 -0.2337
   34MOL    O1231758   1.749   7.282   6.161  0.2300 -0.0410  0.6548
   34MOL    C1331759   1.523   7.316   6.234  0.1193 -0.3369 -0.5062
   34MOL    C1431760   1.502   7.451   6.165 -0.5949 -0.0174 -0.0856
   34MOL    C1531761   1.514   7.574   6.252  0.2556 -0.5498 -0.6291
   34MOL    C1631762   1.411   7.574   6.370  0.3159 -0.4238  0.2112
   34MOL    C1731763   1.406   7.711   6.439  0.5108 -0.0185 -0.0182
   34MOL    C1831764   1.308   7.726   6.564 -0.2000  0.6185  0.1157
   34MOL    C1931765   1.321   7.607   6.655  0.1317 -0.2599 -0.2432
   34MOL    C2031766   1.254   7.639   6.792  0.3767 -0.3872 -0.1575
   34MOL    C2131767   1.291   7.536   6.901 -0.0002 -0.7137  0.2197
   34MOL    O2231768   1.411   7.517   6.917  0.2696  0.5932  0.1529
   34MOL    H2331769   2.279   7.398   6.378 -1.4917  0.4597 -0.7145
   34MOL    H2431770   2.128   7.271   6.198  1.3416  0.1547  0.3302
   34MOL    H2531771   2.102   7.184   6.333 -0.5934  0.0511  1.3739
   34MOL    H2631772   2.187   7.546   6.268 -0.0082 -3.9254  0.4472
   34MOL    H2731773   2.051   7.750   6.324 -0.5894  0.3141 -0.0778
   34MOL    H2831774   1.839   7.736   6.446  0.2915  0.2718 -0.6920
   34MOL    H2931775   1.760   7.508   6.516  0.2029 -0.8629 -0.1633
   34MOL    H3031776   1.859   7.246   6.541 -2.1346  2.2754 -0.3309
   34MOL    H3131777   1.893   7.177   6.392 -1.7304 -0.1973 -1.0148
   34MOL    H3231778   1.643   7.259   6.458  1.6580  1.0260  2.1100
   34MOL    H3331779   1.464   7.305   6.324 -1.9165  0.5009 -1.6978
   34MOL    H3431780   1.482   7.241   6.166 -0.0578 -0.5134 -0.2047
   34MOL    H3531781   1.405   7.442   6.117  0.8357 -0.4136 -2.9765
   34MOL    H3631782   1.572   7.461   6.082  1.0303 -2.8824  0.8510
   34MOL    H3731783   1.615   7.589   6.290 -0.3096  0.1868  0.6098
   34MOL    H3831784   1.496   7.666   6.197  2.0554  0.4637  0.4436
   34MOL    H3931785   1.315   7.537   6.333 -0.6841  0.9229  1.4206
   34MOL    H4031786   1.437   7.505   6.450 -1.4415 -1.5647 -0.1717
   34MOL    H4131787   1.506   7.730   6.477  0.3771  0.8983 -0.0979
   34MOL    H4231788   1.373   0.005   6.377 -1.8842 -1.0514 -0.1673
   34MOL    H4331789   1.208   7.725   6.521 -0.0808 -1.5799 -0.1755
   34MOL    H4431790   1.322   0.036   6.605  1.2195  0.0645  1.0174
   34MOL    H4531791   1.280   7.514   6.617 -0.9804 -0.1677  0.7098
   34MOL    H4631792   1.426   7.592   6.677 -0.1850 -1.0596  0.7578
   34MOL    H4731793   1.145   7.646   6.789  0.3228 -0.2861  1.5303
   34MOL    H4831794   1.295   7.735   6.823  2.1550 -0.2712 -2.7334
   34MOL    H4931795   2.294   7.239   6.395  0.9367  0.9786 -0.1768
   34MOL    N5031796   1.195   7.473   6.965  0.2727 -0.6394 -0.0688
   34MOL    C5131797   1.210   7.366   7.065 -0.2304 -0.1126 -0.0068
   34MOL    C5231798   1.180   7.233   7.004  0.0355  0.1824  0.1348
   34MOL    C5331799   1.291   7.148   6.970 -0.0011 -0.3306  0.8665
   34MOL    C5431800   1.276   7.021   6.914 -0.5222 -0.0542 -0.8447
   34MOL    C5531801   1.146   6.971   6.900  0.0690  0.9076 -0.8246
   34MOL    C5631802   1.037   7.049   6.942  0.2464 -0.4654  0.1883
   34MOL    C5731803   1.048   7.183   6.986  0.7903 -0.6778  1.3960
   34MOL    C5831804   0.917   7.254   7.039 -0.1233 -0.3466  0.6656
   34MOL    N5931805   0.848   7.182   7.143  0.5867  0.1879  0.4079
   34MOL    C6031806   0.812   7.226   7.265  0.2451 -0.7998 -0.0347
   34MOL    O6131807   0.841   7.339   7.299  0.3415  0.5806 -0.3296
   34MOL    C6231808   0.736   7.124   7.345  0.4849 -0.0690 -0.3462
   34MOL    C6331809   0.624   7.172   7.442  0.3187  0.0392  1.0865
   34MOL    C6431810   0.517   7.253   7.359  0.3831 -0.1348  0.1530
   34MOL    C6531811   0.399   7.292   7.442  0.3591 -0.4337  0.1101
   34MOL    C6631812   0.308   7.377   7.355  0.6482 -0.0354  0.1729
   34MOL    C6731813   0.187   7.424   7.439  0.0384 -0.0861  0.6051
   34MOL    C6831814   0.155   7.573   7.404 -0.6832 -0.2023  0.1124
   34MOL    C6931815   0.039   7.627   7.473  0.3019 -0.1767 -0.3896
   34MOL    C7031816   7.693   7.567   7.441  0.0075  0.0451 -0.2434
   34MOL    O7131817   7.682   7.469   7.366  0.5847 -0.2233  0.2621
   34MOL    H7231818   1.100   7.507   6.960  0.4917  0.3348  1.8356
   34MOL    H7331819   1.151   7.403   7.149 -1.7954 -1.0988 -0.6523
   34MOL    H7431820   1.310   7.363   7.107  0.0319 -0.1461 -0.6292
   34MOL    H7531821   1.394   7.181   6.979 -0.6049  1.9604 -0.3846
   34MOL    H7631822   1.362   6.960   6.894 -1.3615 -1.7331  0.4983
   34MOL    H7731823   1.136   6.882   6.840  1.0399 -0.4188  0.9137
   34MOL    H7831824   0.940   7.001   6.938 -0.5314  1.0765  0.4195
   34MOL    H7931825   0.850   7.259   6.953 -0.9221  1.3823  1.3556
   34MOL    H8031826   0.919   7.359   7.071 -0.2870 -0.7709  2.1124
   34MOL    H8131827   0.842   7.083   7.124 -0.9904  0.1235  1.1522
   34MOL    H8231828   0.820   7.074   7.394  0.5727 -0.0024 -0.4292
   34MOL    H8331829   0.711   7.047   7.272  1.6090  1.4613 -2.3904
   34MOL    H8431830   0.645   7.248   7.518 -2.1157  2.8072 -0.8811
   34MOL    H8531831   0.586   7.080   7.486  0.9073 -0.2527  0.9887
   34MOL    H8631832   0.569   7.342   7.325 -0.6792 -0.2121 -1.7090
   34MOL    H8731833   0.489   7.187   7.276 -0.7043 -0.5262  0.8190
   34MOL    H8831834   0.343   7.206   7.478  0.2606 -0.0426  0.9182
   34MOL    H8931835   0.428   7.356   7.526 -1.0514 -3.2941  2.9125
   34MOL    H9031836   0.375   7.457   7.323  1.1655 -0.4543  0.2028
   34MOL    H9131837   0.274   7.331   7.262  1.4982  0.1228 -0.2263
   34MOL    H9231838   0.202   7.428   7.547  2.4513  0.1097  0.2875
   34MOL    H9331839   0.101   7.365   7.407  1.2296 -1.0720 -0.9038
   34MOL    H9431840   0.147   7.581   7.296 -1.4017  0.5886  0.2187
   34MOL    H9531841   0.234   7.646   7.424 -0.6493 -0.0186 -0.6855
   34MOL    H9631842   0.042   7.734   7.453  1.9953  0.0006  0.7186
   34MOL    H9731843   0.034   7.614   7.582 -3.9491 -1.3324 -0.6307
   34MOL    N9831844   7.591   7.635   7.489  0.0347  0.0618 -0.6448
   34MOL    C9931845   7.448   7.621   7.463  0.0210 -0.0793 -0.1012
   34MOL   C10031846   7.391   7.496   7.539 -0.0504  0.2507  0.1690
   34MOL   C10131847   7.450   7.469   7.665 -1.2315  0.4472  0.1330
   34MOL   C10231848   7.382   7.367   7.743  0.6784  0.8326  0.1422
   34MOL   C10331849   7.267   7.298   7.704  0.2346 -0.5561  0.7555
   34MOL   C10431850   7.204   7.334   7.583  0.0271  0.2431 -0.4032
   34MOL   C10531851   7.265   7.441   7.496  0.1185  0.5841 -0.2360
   34MOL   C10631852   7.189   7.485   7.372  0.1095 -0.5917  0.7796
   34MOL   N10731853   7.093   7.596   7.394 -0.1862 -0.5400 -0.5729
   34MOL   C10831854   7.086   7.710   7.323  0.2477 -0.0840 -0.3582
   34MOL   O10931855   7.177   7.743   7.246 -0.4222  0.1719  0.6032
   34MOL   C11031856   6.972   0.016   7.348  0.0291 -0.3102  0.2170
   34MOL   C11131857   6.918   0.086   7.223 -0.1773 -0.0869  0.0234
   34MOL   C11231858   6.845   7.782   7.125 -0.0140  0.5280  0.2181
   34MOL   C11331859   6.811   0.069   6.994  0.4547  0.5489  0.0953
   34MOL   C11431860   6.725   0.191   7.023 -0.1041  0.2973 -0.1222
   34MOL   C11531861   6.679   0.258   6.892  0.7051  0.0883  0.4118
   34MOL   C11631862   6.598   0.391   6.908 -0.3532  0.6520 -0.0273
   34MOL   C11731863   6.452   0.369   6.961 -0.4548  0.7012  0.3614
   34MOL   C11831864   6.436   0.384   7.108  0.0113  0.1359 -0.3960
   34MOL   O11931865   6.529   0.375   7.189 -0.2003 -0.3382 -0.6543
   34MOL   H12031866   7.606   7.722   7.539  1.6738 -0.3305 -0.4244
   34MOL   H12131867   7.396   7.713   7.490 -0.7928 -0.5474 -0.0300
   34MOL   H12231868   7.440   7.601   7.356  1.7314  2.0686 -0.6500
   34MOL   H12331869   7.538   7.519   7.703 -1.2361  0.1190  0.5839
   34MOL   H12431870   7.430   7.338   0.046 -1.6338 -3.4831  0.1412
   34MOL   H12531871   7.231   7.223   7.773 -0.0943 -0.1637  1.0073
   34MOL   H12631872   7.105   7.293   7.571 -0.4421  1.0941  0.4935
   34MOL   H12731873   7.128   7.400   7.339 -0.9529 -0.4539  2.3506
   34MOL   H12831874   7.262   7.496   7.291 -0.2800 -1.1283  0.3504
   34MOL   H12931875   7.017   7.586   7.460  0.8073 -0.8885  0.5357
   34MOL   H13031876   7.013   0.086   7.421  2.8551 -2.1239  0.4199
   34MOL   H13131877   6.887   7.757   7.394  0.0140 -0.0791  0.4400
   34MOL   H13231878   6.998   0.139   7.171 -2.4065  2.4924 -0.9214
   34MOL   H13331879   6.859   0.171   7.258 -1.8697 -0.7312 -1.2035
   34MOL   H13431880   6.923   7.709   7.105  0.5603  1.0413  0.5672
   34MOL   H13531881   6.762   7.733   7.176  0.1353 -1.4048 -1.3150
   34MOL   H13631882   6.896   0.112   6.941  2.0588 -3.2566 -0.5590
   34MOL   H13731883   6.761   0.000   6.927 -0.2284  1.0861  0.0535
   34MOL   H13831884   6.635   0.156   7.074 -1.8848  2.7026 -1.4837
   34MOL   H13931885   6.793   0.265   7.066  1.5694 -0.3238 -1.6199
   34MOL   H14031886   6.624   0.191   6.826 -1.1826  1.8131  0.1785
   34MOL   H14131887   6.764   0.286   6.831  0.0691  1.3268  0.0656
   34MOL   H14231888   6.646   0.458   6.980 -1.1477 -0.7510  1.8575
   34MOL   H14331889   6.597   0.440   6.811  0.0967  0.8236  0.0491
   34MOL   H14431890   6.415   0.274   6.923 -0.5619  1.5116 -1.6035
   34MOL   H14531891   6.389   0.440   6.908 -1.2999 -1.0117 -1.0194
   34MOL   N14631892   6.306   0.387   7.150  0.0743 -0.3864  0.2215
   34MOL   C14731893   6.264   0.389   7.289  0.1083 -0.0151 -0.3967
   34MOL   C14831894   6.128   0.459   7.313 -0.5477 -0.0375 -0.4169
   34MOL   C14931895   6.126   0.585   7.382 -0.4553  0.0670  0.3156
   34MOL   C15031896   6.011   0.649   7.410 -0.3502 -0.3106 -0.3702
   34MOL   C15131897   5.889   0.591   7.367 -0.8313 -0.4473 -0.0732
   34MOL   C15231898   5.885   0.472   7.293 -0.5492  0.7211  0.6532
   34MOL   C15331899   6.007   0.399   7.269  0.2777  0.4619  0.5131
   34MOL   C15431900   5.996   0.263   7.215  0.6852  0.3588 -0.0626
   34MOL   N15531901   5.967   0.169   7.318 -0.0243 -0.4852 -0.7430
   34MOL   C15631902   6.039   0.065   7.353  0.6822  0.5300  0.0030
   34MOL   O15731903   6.144   0.033   7.291 -0.3637  0.0768  0.9133
   34MOL   C15831904   5.991   7.763   7.470  0.1477  0.8356  0.0905
   34MOL   C15931905   6.111   7.704   7.552  0.5251 -0.2858 -0.2348
   34MOL   C16031906   6.054   7.611   7.662 -0.3865  0.0837 -0.2091
   34MOL   C16131907   6.007   7.674   0.003  0.0205 -0.7930  0.2030
   34MOL   C16231908   6.112   7.739   0.089  0.4536  0.0957  0.1649
   34MOL   C16331909   6.046   7.784   0.223 -0.3057  0.7826 -0.3171
   34MOL   C16431910   6.153   0.029   0.332  0.1683 -0.1696 -0.5919
   34MOL   C16531911   6.089   0.036   0.480 -0.4692 -0.3005  0.5000
   34MOL   C16631912   6.191   0.095   0.578 -0.5129  0.2258 -0.5345
   34MOL   O16731913   6.243   0.204   0.565  0.4823 -0.8999  0.0153
   34MOL   H16831914   6.239   0.376   7.076  0.1806  1.8965 -0.2603
   34MOL   H16931915   6.341   0.439   7.348  0.0731 -1.1877  0.6648
   34MOL   H17031916   6.263   0.282   7.314  2.9440 -0.5205 -2.1896
   34MOL   H17131917   6.220   0.621   7.422  0.2636 -2.1492  0.6903
   34MOL   H17231918   5.999   0.734   7.475 -0.1975  0.2493 -1.0708
   34MOL   H17331919   5.794   0.629   7.401  1.1413  1.2729  3.8282
   34MOL   H17431920   5.785   0.435   7.278 -0.0063 -0.9305  1.0424
   34MOL   H17531921   6.084   0.235   7.158  0.7256 -0.8293  0.5711
   34MOL   H17631922   5.925   0.266   7.132  1.5807  1.9111 -0.7843
   34MOL   H17731923   5.884   0.194   7.370  0.0620  0.0483 -0.8553
   34MOL   H17831924   5.943   7.683   7.413  1.5279 -0.0823  0.1842
   34MOL   H17931925   5.911   0.018   7.530  0.2740 -0.0648  0.9580
   34MOL   H18031926   6.178   7.784   7.583  1.2612 -0.6546 -0.8544
   34MOL   H18131927   6.169   7.634   7.491  2.2432 -1.0836  2.2135
   34MOL   H18231928   5.975   7.546   7.625  0.2387 -0.3993 -0.7019
   34MOL   H18331929   6.137   7.545   7.686 -0.5168 -0.0263 -0.0575
   34MOL   H18431930   5.932   7.746   7.759  0.8621  0.0497  0.1038
   34MOL   H18531931   5.952   7.600   0.061  0.5961 -0.5477  1.0760
   34MOL   H18631932   6.188   7.663   0.107 -1.5447 -2.1644 -0.7457
   34MOL   H18731933   6.159   0.036   0.041  0.3441 -0.7683 -1.5246
   34MOL   H18831934   5.981   7.703   0.257 -0.5647  1.4014  0.6642
   34MOL   H18931935   5.983   0.082   0.214 -1.2227  0.2954  1.1427
   34MOL   H19031936   6.228   7.741   0.322 -0.7548 -1.3589  1.4640
   34MOL   H19131937   6.190   0.131   0.320  2.2860 -0.9449 -0.7702
   34MOL   H19231938   6.039   7.735   0.514 -1.6593 -0.2985 -1.1879
   34MOL   H19331939   6.000   0.098   0.475 -0.1708  0.0634 -0.4517
   34MOL   N19431940   6.233   0.014   0.678 -0.5115  0.7971  1.3893
   34MOL   C19531941   6.344   0.034   0.765 -0.1936  1.2199 -0.5373
   34MOL   C19631942   6.307   0.107   0.888  0.4147 -0.1808  0.4251
   34MOL   C19731943   6.203   0.044   0.960  0.1407  0.0005 -0.3733
   34MOL   C19831944   6.154   0.116   1.073  0.7724  0.0025  0.4866
   34MOL   C19931945   6.207   0.239   1.109  0.5747 -0.2030 -0.2010
   34MOL   C20031946   6.311   0.298   1.038  0.0813  0.2474 -0.9983
   34MOL   C20131947   6.359   0.235   0.923  0.3022  0.5234 -0.7371
   34MOL   C20231948   6.474   0.306   0.855  0.0047 -0.5896  0.2441
   34MOL   N20331949   6.448   0.328   0.716  0.1749 -0.2523  0.0407
   34MOL   C20431950   6.545   0.353   0.629 -0.2010 -0.7629  0.4024
   34MOL   O20531951   6.664   0.347   0.659 -0.4962 -0.0394 -0.1770
   34MOL   C20631952   6.499   0.390   0.494 -0.1656 -0.0413  0.0823
   34MOL   C20731953   6.570   0.315   0.372 -0.3224  0.3164  0.0813
   34MOL   C20831954   6.544   0.166   0.386 -0.5421  0.5252 -0.4835
   34MOL   C20931955   6.612   0.081   0.273 -0.5631 -0.6907  0.3459
   34MOL   C21031956   6.540   7.737   0.239 -0.0476  0.0385  0.0409
   34MOL   C21131957   6.504   7.640   0.350 -0.3980 -0.4734  0.1797
   34MOL   C21231958   6.442   7.509   0.296 -0.0817  0.2483 -0.8104
   34MOL   C21331959   6.440   7.396   0.399 -0.1527 -0.0503 -0.3698
   34MOL   C21431960   6.386   7.416   0.544  0.2456  0.1817  0.1767
   34MOL   O21531961   6.322   7.516   0.575  0.0059  0.0971 -0.3488
   34MOL   H21631962   6.194   7.711   0.678 -0.9756  0.9835  0.4322
   34MOL   H21731963   6.367   7.721   0.793 -1.1081  1.2584  0.3965
   34MOL   H21831964   6.428   0.081   0.714 -0.9491  1.9051 -1.1661
   34MOL   H21931965   6.173   7.732   0.937 -1.6573  0.6951 -1.2233
   34MOL   H22031966   6.073   0.079   1.134 -0.1533 -1.7741 -1.7321
   34MOL   H22131967   6.154   0.282   1.192 -2.4645 -1.1625 -1.5738
   34MOL   H22231968   6.355   0.390   1.073 -0.7048 -0.2801  1.4942
   34MOL   H22331969   6.550   0.230   0.870  0.4800 -0.0613  0.5280
   34MOL   H22431970   6.505   0.402   0.896  1.2519 -0.3390 -1.2254
   34MOL   H22531971   6.355   0.323   0.678 -1.0967  0.4325  2.8893
   34MOL   H22631972   6.521   0.496   0.479  2.0775 -0.6839 -1.5112
   34MOL   H22731973   6.391   0.381   0.485 -0.1033 -0.7376  0.0073
   34MOL   H22831974   6.536   0.349   0.274 -0.4143 -1.2824 -0.4604
   34MOL   H22931975   6.679   0.322   0.375 -0.2638 -0.5416  0.0664
   34MOL   H23031976   6.571   0.116   0.479  0.9688  0.1309 -1.1196
   34MOL   H23131977   6.437   0.144   0.373 -0.1958 -0.8532 -1.1530
   34MOL   H23231978   6.611   0.144   0.184  3.1552 -0.7992  0.1445
   34MOL   H23331979   6.714   0.062   0.307 -0.7247 -0.6954  0.8298
   34MOL   H23431980   6.452   7.769   0.184 -0.0636 -1.1406 -0.6293
   34MOL   H23531981   6.596   7.690   0.158  0.4244  0.1218  0.3143
   34MOL   H23631982   6.433   7.691   0.414 -1.8754 -3.6501  1.1496
   34MOL   H23731983   6.593   7.621   0.410 -0.4198 -0.8724  0.0886
   34MOL   H23831984   6.507   7.471   0.217 -0.3685 -0.3038 -0.7864
   34MOL   H23931985   6.343   7.533   0.258 -0.1940  3.5224  1.3432
   34MOL   H24031986   6.396   7.310   0.349 -1.4513  0.0512  0.5705
   34MOL   H24131987   6.543   7.362   0.413  0.2529  0.9337 -0.9902
   34MOL   N24231988   6.405   7.321   0.635 -0.0230  0.2820 -0.2976
   34MOL   C24331989   6.342   7.311   0.768 -0.0615 -0.3190 -0.0736
   34MOL   C24431990   6.199   7.261   0.767  0.6309  0.5685 -0.0512
   34MOL   C24531991   6.169   7.131   0.703  0.1656 -1.0013 -0.0100
   34MOL   C24631992   6.040   7.084   0.687  0.4747 -0.5683 -0.1407
   34MOL   C24731993   5.931   7.160   0.746 -0.6215 -0.0925 -0.7176
   34MOL   C24831994   5.957   7.279   0.811 -0.2159 -0.1292 -0.1128
   34MOL   C24931995   6.087   7.336   0.816 -0.0216  0.5100  0.3186
   34MOL   C25031996   6.106   7.478   0.876 -0.3525 -0.2355  0.5031
   34MOL   N25131997   5.989   7.550   0.927  0.1205 -0.3532  0.1138
   34MOL   C25231998   5.945   7.574   1.053 -0.2785  0.3786  0.4770
   34MOL   O25331999   6.023   7.545   1.140  0.3644  0.3631 -0.0263
   34MOL   C25432000   5.806   7.622   1.080 -0.0360  0.1288  0.3572
   34MOL   C25532001   5.752   7.584   1.224  0.2632  0.3634  0.3373
   34MOL   C25632002   5.621   7.658   1.264 -0.1015 -0.5429 -0.1922
   34MOL   C25732003   5.613   0.025   1.247  0.0840 -0.3182 -0.2354
   34MOL   C25832004   5.730   0.091   1.316 -0.3186 -0.7186  0.5510
   34MOL   C25932005   5.737   0.249   1.295 -0.9237 -0.1926  0.3890
   34MOL   C26032006   5.863   0.319   1.347  0.0287 -0.4216  0.4461
   34MOL   C26132007   5.909   0.271   1.485 -0.2936  0.5030  0.2177
   34MOL   C26232008   5.823   0.306   1.605  0.8559 -0.7403  0.9457
   34MOL   O26332009   5.845   0.415   1.657  0.2568 -0.8356 -0.2910
   34MOL   H26432010   6.467   7.244   0.613  0.3340  0.7758 -1.0223
   34MOL   H26532011   6.405   7.241   0.822  0.0236 -0.8593 -0.8602
   34MOL   H26632012   6.356   7.408   0.817  3.3772 -0.2774 -0.9833
   34MOL   H26732013   6.248   7.072   0.657  1.3590 -0.0777  0.8030
   34MOL   H26832014   6.020   6.995   0.629 -1.4292  0.4182 -1.0568
   34MOL   H26932015   5.832   7.119   0.751 -0.4945 -0.6335 -2.4161
   34MOL   H27032016   5.870   7.333   0.845 -1.0660  1.0178 -3.8184
   34MOL   H27132017   6.147   7.541   0.797  0.7997  0.8694  1.9560
   34MOL   H27232018   6.169   7.470   0.965  1.5727 -0.2075 -0.8372
   34MOL   H27332019   5.926   7.587   0.857  0.0473  0.2859  0.5175
   34MOL   H27432020   5.736   7.594   1.001  2.5770 -0.6677 -1.7513
   34MOL   H27532021   5.821   7.730   1.088  0.5075  0.1128 -0.4409
   34MOL   H27632022   5.830   7.613   1.294 -0.2484 -1.6442  1.7722
   34MOL   H27732023   5.747   7.476   1.216  1.1127  0.3251  0.2592
   34MOL   H27832024   5.604   7.641   1.370 -1.2235 -0.0576 -0.2851
   34MOL   H27932025   5.538   7.617   1.206 -0.6669 -1.0683  0.9677
   34MOL   H28032026   5.609   0.053   1.142 -3.1676  0.7831  0.1371
   34MOL   H28132027   5.527   0.077   1.290  0.4524 -0.0639  0.2005
   34MOL   H28232028   5.733   0.060   1.420  0.4457 -3.5021 -0.2678
   34MOL   H28332029   5.815   0.052   1.260 -0.9591 -0.8146 -0.3686
   34MOL   H28432030   5.645   0.297   1.329  0.6152  2.9340  0.2751
   34MOL   H28532031   5.741   0.268   1.188  2.6892 -2.0076  0.1217
   34MOL   H28632032   5.952   0.316   1.285  0.3589  0.1441  0.8906
   34MOL   H28732033   5.833   0.423   1.359 -0.7332 -0.1944 -2.8484
   34MOL   H28832034   5.929   0.164   1.479  2.8846  1.1656 -2.4322
   34MOL   H28932035   6.007   0.317   1.501  0.5074 -1.6993  1.8291
   34MOL   N29032036   5.742   0.215   1.647 -0.4589 -0.0266 -0.4282
   34MOL   C29132037   5.664   0.226   1.770 -0.6486 -0.3557 -0.0269
   34MOL   C29232038   5.742   0.168   1.887  0.0497  0.0816  0.0936
   34MOL   C29332039   5.782   0.254   1.992 -0.4982  0.4406 -0.4587
   34MOL   C29432040   5.838   0.199   2.108 -0.1933  0.1565  0.4621
   34MOL   C29532041   5.855   0.059   2.122  0.1178 -0.6833 -0.8163
   34MOL   C29632042   5.817   7.762   2.016 -0.2211 -0.4135 -0.6736
   34MOL   C29732043   5.769   0.027   1.895  0.0646  0.1474 -0.4836
   34MOL   C29832044   5.746   7.716   1.789  0.5888  0.0485  0.6861
   34MOL   N29932045   5.687   7.593   1.839  0.6509  0.4792  0.3846
   34MOL   C30032046   5.560   7.559   1.813 -0.0349 -0.5883 -0.1057
   34MOL   O30132047   5.483   7.633   1.745  0.7735 -0.3195 -0.1005
   34MOL   C30232048   5.509   7.434   1.883 -0.5789  0.1666  0.3991
   34MOL   C30332049   5.394   7.460   1.975  0.6346 -0.0429  0.7446
   34MOL   C30432050   5.422   7.545   2.100 -0.2783  0.8974  0.2852
   34MOL   C30532051   5.497   7.472   2.210  0.1877  0.0475 -0.0339
   34MOL   C30632052   5.510   7.557   2.342 -0.2521 -0.2677  0.5777
   34MOL   C30732053   5.627   7.658   2.332  0.1223  0.2494 -0.3635
   34MOL   C30832054   5.647   7.760   2.451 -0.3705 -0.5460 -0.0514
   34MOL   C30932055   5.707   7.692   2.572  0.4233  0.1755 -0.1437
   34MOL   C31032056   5.857   7.670   2.561 -0.4508  0.4206  0.2947
   34MOL   O31132057   5.934   7.702   2.468  0.2676 -0.0845  0.1389
   34MOL   H31232058   5.695   0.162   1.574  0.9270 -1.3483 -0.3788
   34MOL   H31332059   5.637   0.331   1.786 -0.2842 -0.2986  0.2168
   34MOL   H31432060   5.567   0.177   1.767 -0.8454  0.0647 -0.7711
   34MOL   H31532061   5.757   0.359   1.988  2.4524  1.1514 -0.8743
   34MOL   H31632062   5.858   0.257   2.197  2.6295 -2.6390  1.7569
   34MOL   H31732063   5.897   0.008   2.207 -0.1251 -1.3306 -1.0830
   34MOL   H31832064   5.825   7.655   2.033  0.7939 -0.4559 -1.3444
   34MOL   H31932065   5.845   7.685   1.755 -0.2452  0.3412 -2.1488
   34MOL   H32032066   5.685   7.748   1.704 -0.5211  2.0118  2.1855
   34MOL   H32132067   5.738   7.527   1.897 -0.8990 -1.8467 -0.7962
   34MOL   H32232068   5.484   7.367   1.801 -1.1121  0.4304  0.3438
   34MOL   H32332069   5.587   7.386   1.942 -0.5903 -1.0122 -0.5273
   34MOL   H32432070   5.344   7.366   2.001  1.7542 -0.3994  1.6664
   34MOL   H32532071   5.305   7.499   1.927  0.5817 -0.5661  0.4110
   34MOL   H32632072   5.326   7.569   2.145  0.5620  1.0245  2.0469
   34MOL   H32732073   5.480   7.634   2.075 -0.8179  2.0986  3.1362
   34MOL   H32832074   5.448   7.380   2.241 -0.3411  0.8238  1.4851
   34MOL   H32932075   5.593   7.435   2.174 -0.8551 -0.5635 -2.2695
   34MOL   H33032076   5.419   7.610   2.373  0.3814 -0.0525  2.0795
   34MOL   H33132077   5.524   7.499   2.433  1.6593 -1.2065 -0.2882
   34MOL   H33232078   5.624   7.714   2.239  0.5624  0.3001 -0.3513
   34MOL   H33332079   5.720   7.602   2.324  1.4609  1.6160  3.9329
   34MOL   H33432080   5.714   0.050   2.419 -0.2366 -0.7803 -0.3644
   34MOL   H33532081   5.552   0.020   2.472 -0.2113  0.9767 -2.6392
   34MOL   H33632082   5.684   7.737   2.669 -1.3796  2.0927 -1.4035
   34MOL   H33732083   5.669   7.591   2.565 -0.5932  0.5257  0.3343
   34MOL   N33832084   5.914   7.619   2.669  0.9476  0.7816 -0.2376
   34MOL   C33932085   6.050   7.592   2.694  0.0761 -0.5256 -0.3769
   34MOL   C34032086   6.092   7.450   2.661 -0.3606 -0.2542 -0.3119
   34MOL   C34132087   6.018   7.337   2.706 -0.4506  0.6817  0.6839
   34MOL   C34232088   6.058   7.205   2.681  0.0622  0.1523  0.0671
   34MOL   C34332089   6.169   7.177   2.598 -0.5030 -0.6769 -0.2696
   34MOL   C34432090   6.246   7.289   2.553 -0.2475 -0.0339 -0.5647
   34MOL   C34532091   6.202   7.421   2.575 -0.0356 -0.0024 -1.4211
   34MOL   C34632092   6.279   7.527   2.510 -0.2716 -0.0927 -0.3057
   34MOL   N34732093   6.207   7.589   2.398 -0.4842 -0.1458 -0.4011
   34MOL   C34832094   6.270   7.683   2.333 -0.2892  0.3326  0.6927
   34MOL   O34932095   6.386   7.718   2.360  0.1642 -0.1282 -0.4045
   34MOL   C35032096   6.188   7.752   2.217  0.0121  0.9151  0.3821
   34MOL   C35132097   6.214   0.115   2.218  0.0089  0.4495  0.1158
   34MOL   C35232098   6.145   0.189   2.340 -0.1802  0.0050  0.0554
   34MOL   C35332099   6.118   0.344   2.332  0.4213  0.1114 -0.4814
   34MOL   C35432100   6.060   0.384   2.474 -0.0881  0.3336  0.1083
   34MOL   C35532101   5.933   0.310   2.525 -0.6129  0.1481  0.1385
   34MOL   C35632102   5.851   0.385   2.636 -0.0683 -0.2536  0.4528
   34MOL   C35732103   5.735   0.310   2.702  0.8557 -0.6326  0.1542
   34MOL   C35832104   5.788   0.208   2.808  0.3833 -0.0151  0.1547
   34MOL   O35932105   5.901   0.153   2.790  0.4115 -0.1906 -0.5382
   34MOL   H36032106   5.850   7.609   2.746  1.1544  3.6306  0.3477
   34MOL   H36132107   6.110   7.671   2.648  0.0554 -0.1679  0.2017
   34MOL   H36232108   6.071   7.601   2.801  1.7650  1.3003 -0.8384
   34MOL   H36332109   5.929   7.339   2.767 -2.2416  2.0104 -1.8856
   34MOL   H36432110   5.996   7.132   2.731  2.0187 -0.5050  1.6111
   34MOL   H36532111   6.198   7.075   2.577  0.4119 -0.5865  0.5544
   34MOL   H36632112   6.327   7.269   2.485 -1.0621  1.6807 -2.0973
   34MOL   H36732113   6.372   7.476   2.482 -0.9478 -0.4080 -2.0873
   34MOL   H36832114   6.304   7.602   2.585 -1.8715 -0.6551  0.8233
   34MOL   H36932115   6.107   7.587   2.390 -0.6606  1.8292  0.9690
   34MOL   H37032116   6.080   7.737   2.226 -0.0516  0.1443 -1.3610
   34MOL   H37132117   6.222   7.706   2.124 -0.3902 -0.6155  0.9704
   34MOL   H37232118   6.156   0.149   2.132 -2.2542 -0.6289  1.1695
   34MOL   H37332119   6.318   0.138   2.195 -0.0308  0.0115 -0.5330
   34MOL   H37432120   6.048   0.140   2.333  0.5087 -1.2827 -0.7872
   34MOL   H37532121   6.191   0.170   2.437 -0.9859  2.1257  0.8653
   34MOL   H37632122   6.042   0.368   2.258 -1.4355 -0.1522  1.2753
   34MOL   H37732123   6.215   0.388   2.310  1.4356 -2.0135 -0.4006
   34MOL   H37832124   6.129   0.387   2.558  0.7443 -1.0068 -0.5201
   34MOL   H37932125   6.034   0.489   2.459  1.2957  0.8513  1.2545
   34MOL   H38032126   5.965   0.211   2.558  2.3258  0.3649 -1.8420
   34MOL   H38132127   5.871   0.299   2.436 -0.1344 -0.4880 -0.1202
   34MOL   H38232128   5.920   0.413   2.716  3.0331 -0.2861 -2.1138
   34MOL   H38332129   5.811   0.474   2.586 -0.2416  0.0682  1.1563
   34MOL   H38432130   5.673   0.261   2.627  0.9419  0.7427 -0.8283
   34MOL   H38532131   5.678   0.386   2.756 -1.2608 -1.5191 -0.7834
   34MOL   N38632132   5.717   0.194   2.918  0.6295 -0.7028  0.3630
   34MOL   C38732133   5.730   0.098   3.026 -0.4176 -0.4639  0.0651
   34MOL   C38832134   5.727   7.744   2.988  0.8090  0.0432 -0.8558
   34MOL   C38932135   5.619   7.689   2.916  0.4669  0.1558 -0.1865
   34MOL   C39032136   5.629   7.549   2.882  0.4085 -0.9329 -0.1392
   34MOL   C39132137   5.734   7.469   2.915 -0.4232  0.0457 -0.6127
   34MOL   C39232138   5.841   7.529   2.981  0.5528 -0.3395 -0.3583
   34MOL   C39332139   5.842   7.662   3.012  0.4251 -0.4940 -0.4221
   34MOL   C39432140   5.966   7.727   3.081  0.1857  0.0269 -0.4753
   34MOL   N39532141   6.042   0.022   2.988  0.3068 -0.0946 -0.8018
   34MOL   C39632142   6.169   0.019   2.961  0.3400 -0.3309  0.2716
   34MOL   O39732143   6.252   7.761   3.037 -0.0407  0.0473  0.2445
   34MOL   C39832144   6.220   0.088   2.832  0.3352 -0.4153  0.1682
   34MOL   C39932145   6.319   0.205   2.834  0.2443 -0.5049  0.2297
   34MOL   C40032146   6.256   0.322   2.908 -0.1861  0.5340 -0.1124
   34MOL   C40132147   6.367   0.432   2.929  0.9242  0.3168  0.1662
   34MOL   C40232148   6.298   0.559   2.991 -0.6146 -0.0547 -0.3880
   34MOL   C40332149   6.383   0.692   2.998 -0.0811 -0.5402  0.2956
   34MOL   C40432150   6.356   0.767   3.134 -0.6382 -0.3750  0.2200
   34MOL   C40532151   6.390   0.684   3.253 -0.1126 -0.1544  0.5251
   34MOL   C40632152   6.529   0.627   3.252 -0.3303 -0.3297  0.8011
   34MOL   O40732153   6.628   0.699   3.275  0.2699 -0.0155 -0.1265
   34MOL   H40832154   5.638   0.256   2.931  0.2188 -1.1683  0.1029
   34MOL   H40932155   5.813   0.132   3.087 -0.2936 -0.0759 -0.3143
   34MOL   H41032156   5.648   0.112   3.096 -0.4002 -1.0861  0.2067
   34MOL   H41132157   5.531   7.741   2.881  1.7916  0.6418 -2.9021
   34MOL   H41232158   5.550   7.506   2.821  0.0800 -0.9207  0.2751
   34MOL   H41332159   5.741   7.368   2.878 -0.3382  0.0064 -0.4893
   34MOL   H41432160   5.926   7.464   2.996 -1.5892 -3.5893 -1.8910
   34MOL   H41532161   6.036   7.648   3.110  0.7880  1.3213  1.7241
   34MOL   H41632162   5.932   7.773   3.174 -1.3795 -1.2309 -0.4205
   34MOL   H41732163   5.984   0.069   2.920 -2.6901  0.5206  2.0563
   34MOL   H41832164   6.262   7.789   2.784  0.8287 -0.8733  1.4463
   34MOL   H41932165   6.136   0.125   2.772  2.3799  0.1169 -2.4570
   34MOL   H42032166   6.345   0.244   2.736  0.3093 -1.4582 -0.1403
   34MOL   H42132167   6.420   0.187   2.872  0.2715 -2.2273 -0.6172
   34MOL   H42232168   6.205   0.303   3.003 -3.1893  1.1609 -1.5264
   34MOL   H42332169   6.179   0.359   2.841 -0.2482  0.5700 -0.0213
   34MOL   H42432170   6.439   0.399   3.004  0.1830 -0.3756  0.5713
   34MOL   H42532171   6.419   0.451   2.836 -0.6129 -0.9349 -0.9629
   34MOL   H42632172   6.208   0.576   2.931  0.1799 -0.5905 -1.7652
   34MOL   H42732173   6.245   0.532   3.082  0.1219 -2.5486 -0.6692
   34MOL   H42832174   6.369   0.761   2.915  2.0423  0.4787  0.7559
   34MOL   H42932175   6.488   0.666   2.995 -0.2935 -1.2329 -1.6324
   34MOL   H43032176   6.250   0.795   3.133 -0.4391  0.3790  0.2032
   34MOL   H43132177   6.411   0.861   3.136 -0.4268 -0.4920 -0.1120
   34MOL   H43232178   6.314   0.609   3.276 -1.3551  1.4748  1.8990
   34MOL   H43332179   6.385   0.739   3.347  1.3593  0.0338  0.5040
   34MOL   N43432180   6.545   0.495   3.233 -0.1222  0.2835 -0.4269
   34MOL   C43532181   6.667   0.424   3.199  0.4526 -0.1874  0.0852
   34MOL   C43632182   6.663   0.313   3.096 -0.2186  0.5013  0.9238
   34MOL   C43732183   6.727   0.330   2.966  1.0678 -0.1169 -0.3906
   34MOL   C43832184   6.733   0.218   2.876 -0.0752  0.6817  0.0531
   34MOL   C43932185   6.670   0.095   2.911  0.4880 -0.1703 -0.1368
   34MOL   C44032186   6.596   0.086   3.032 -0.4976  0.5792  0.1096
   34MOL   C44132187   6.592   0.191   3.124 -0.0541 -0.3099 -0.2147
   34MOL   C44232188   6.522   0.162   3.253 -0.1760 -0.5086 -0.3342
   34MOL   N44332189   6.373   0.174   3.234  0.0478 -0.5871  0.6744
   34MOL   C44432190   6.288   0.250   3.298  0.4582  0.6461 -0.0798
   34MOL   O44532191   6.325   0.340   3.373  0.0312 -0.9367  0.3266
   34MOL   C44632192   6.137   0.220   3.286  0.5942 -0.2289 -0.5209
   34MOL   C44732193   6.043   0.314   3.358 -0.4323 -0.3480 -0.5063
   34MOL   C44832194   6.026   0.448   3.291  0.0701 -0.3562 -0.3968
   34MOL   C44932195   5.978   0.443   3.145  0.1778 -0.2022  0.5036
   34MOL   C45032196   5.932   0.585   3.088 -0.2105  0.4755  0.4218
   34MOL   C45132197   5.898   0.594   2.930 -0.3736  0.0724 -0.0658
   34MOL   C45232198   5.846   0.734   2.896  0.2274 -0.4242  0.1419
   34MOL   C45332199   5.795   0.760   2.748  0.2220  0.1489 -0.2707
   34MOL   C45432200   5.757   0.912   2.728 -0.2391  0.5614  0.2820
   34MOL   O45532201   5.771   0.999   2.810  0.4572 -0.2599 -0.5490
   34MOL   H45632202   6.463   0.437   3.233 -0.1567  0.3338 -0.0075
   34MOL   H45732203   6.728   0.405   3.287  2.1010 -0.5951 -1.1040
   34MOL   H45832204   6.725   0.506   3.155 -0.2587  0.1281 -0.2783
   34MOL   H45932205   6.779   0.421   2.939  2.7795 -0.7308  0.7548
   34MOL   H46032206   6.790   0.236   2.786  0.1617 -1.4750 -0.2515
   34MOL   H46132207   6.674   0.012   2.842  0.8728  0.3482 -0.7374
   34MOL   H46232208   6.523   0.011   3.059 -2.1048  1.9751 -0.2332
   34MOL   H46332209   6.546   0.232   3.334 -1.3541 -2.0295  1.3816
   34MOL   H46432210   6.556   0.070   3.300  3.1537  1.1216  0.6000
   34MOL   H46532211   6.334   0.109   3.168  1.0910 -0.4696 -0.0770
   34MOL   H46632212   6.123   0.121   3.329 -2.6321 -0.6320 -2.3832
   34MOL   H46732213   6.113   0.212   3.180 -0.8992 -0.6289 -0.1608
   34MOL   H46832214   6.082   0.337   3.457 -3.1431 -0.7478  0.7139
   34MOL   H46932215   5.945   0.268   3.368 -0.4867 -0.2620 -0.6404
   34MOL   H47032216   5.953   0.506   3.347 -0.4380 -2.3846  1.0651
   34MOL   H47132217   6.114   0.511   3.302 -0.3906  0.2703 -0.2480
   34MOL   H47232218   6.059   0.413   3.079  0.1554 -0.4637  0.5912
   34MOL   H47332219   5.893   0.381   3.116  1.0944 -1.7816  1.1476
   34MOL   H47432220   5.843   0.616   3.142  0.4399  1.2264  1.0649
   34MOL   H47532221   6.007   0.658   3.118 -1.6248  0.2015  4.8627
   34MOL   H47632222   5.839   0.509   2.894 -4.1788  2.5979 -0.0173
   34MOL   H47732223   5.998   0.592   2.887 -0.2500  3.2717  0.0068
   34MOL   H47832224   5.760   0.761   2.958  0.2185  1.1544 -0.5339
   34MOL   H47932225   5.924   0.805   2.921  0.8610 -0.4970 -1.6076
   34MOL   H48032226   5.863   0.729   2.669 -0.8345  0.8591 -1.4772
   34MOL   H48132227   5.708   0.697   2.730  0.0371  0.8539 -1.8876
   34MOL   N48232228   5.710   0.943   2.608  0.5197 -0.1618 -0.5028
   34MOL   C48332229   5.666   1.071   2.560  0.6751  0.8021 -0.2374
   34MOL   C48432230   5.519   1.092   2.594 -0.7966 -0.2346  0.6221
   34MOL   C48532231   5.423   1.018   2.523 -0.0550  0.7592  1.5386
   34MOL   C48632232   5.288   1.024   2.568 -0.0781 -0.0630  0.0667
   34MOL   C48732233   5.251   1.098   2.681  0.4261 -0.4294 -0.5852
   34MOL   C48832234   5.349   1.178   2.741  0.7182 -0.1423  0.0550
   34MOL   C48932235   5.484   1.189   2.691  0.7612 -0.0406  0.4243
   34MOL   C49032236   5.579   1.280   2.765  0.1676  0.0033  0.2034
   34MOL   N49132237   5.627   1.236   2.892  0.3879  0.0703  0.3251
   34MOL   C49232238   5.566   1.254   3.008 -0.0448 -0.9446 -0.0007
   34MOL   O49332239   5.461   1.324   3.030 -0.2972 -0.2040 -0.1467
   34MOL   C49432240   5.620   1.184   3.128 -0.5950 -0.0483 -0.1102
   34MOL   C49532241   5.586   1.036   3.131 -0.6585 -0.0523  0.1342
   34MOL   C49632242   5.657   0.965   3.247  0.4711  0.4581  0.0145
   34MOL   C49732243   5.606   0.825   3.286  0.4018 -0.2926 -1.0482
   34MOL   C49832244   5.687   0.759   3.397  0.5005  0.1139  0.1393
   34MOL   C49932245   5.646   0.613   3.428 -0.1700 -0.3357  0.1196
   34MOL   C50032246   5.701   0.552   3.564 -0.0023 -0.1944  0.1332
   34MOL   C50132247   5.672   0.633   3.696  0.1906  0.4486 -0.3150
   34MOL   C50232248   5.525   0.641   3.730  0.0723  0.1587 -0.0432
   34MOL   O50332249   5.446   0.548   3.709  0.2571 -0.1358 -0.2786
   34MOL   H50432250   5.707   0.876   2.532  0.4377  1.4323 -1.9307
   34MOL   H50532251   5.731   1.155   2.583 -0.1774  1.5752 -0.6199
   34MOL   H50632252   5.670   1.058   2.452  0.5237  1.0789 -0.2771
   34MOL   H50732253   5.457   0.952   2.446 -1.2905  3.3447 -1.3178
   34MOL   H50832254   5.213   0.968   2.515 -0.0046  0.5919 -0.7422
   34MOL   H50932255   5.147   1.097   2.712  0.9079 -1.0851  1.0351
   34MOL   H51032256   5.308   1.244   2.816  2.5322 -0.6470  1.5174
   34MOL   H51132257   5.522   1.372   2.778  2.3382  1.8093 -2.5650
   34MOL   H51232258   5.662   1.316   2.704  0.3710 -1.7764 -0.5946
   34MOL   H51332259   5.694   1.161   2.883 -0.2452 -0.5457  0.7221
   34MOL   H51432260   5.573   1.241   3.208 -2.2165 -1.1035 -0.2867
   34MOL   H51532261   5.727   1.208   3.130 -0.7239  0.5193 -0.0353
   34MOL   H51632262   5.608   0.987   3.036 -2.1272 -3.1423  1.3184
   34MOL   H51732263   5.480   1.017   3.146 -0.5048 -0.9761  0.0884
   34MOL   H51832264   5.764   0.964   3.228  0.6434 -1.1199  0.9604
   34MOL   H51932265   5.653   1.028   3.336  1.1107  0.8955 -0.2618
   34MOL   H52032266   5.501   0.819   3.313  0.1043 -0.9470 -2.3361
   34MOL   H52132267   5.607   0.764   3.196 -2.5692  1.0074 -2.0128
   34MOL   H52232268   5.793   0.754   3.373  0.6177  0.7857  0.4988
   34MOL   H52332269   5.674   0.820   3.486 -1.6942  1.2195 -0.9057
   34MOL   H52432270   5.683   0.548   3.349 -2.4221 -0.6226 -0.7294
   34MOL   H52532271   5.538   0.618   3.420 -0.1277 -0.6768 -0.6912
   34MOL   H52632272   5.665   0.450   3.563 -0.8033  0.0800  0.1152
   34MOL   H52732273   5.810   0.556   3.561  0.0149 -0.4333  0.4272
   34MOL   H52832274   5.711   0.735   3.696 -0.2697  0.6263 -0.0185
   34MOL   H52932275   5.725   0.587   3.779 -0.4547  0.3924  0.0735
   34MOL   N53032276   5.475   0.762   3.766 -0.0576  0.1760 -0.3270
   34MOL   C53132277   5.338   0.808   3.786 -0.4633 -0.4956  0.0047
   34MOL   C53232278   5.340   0.936   3.873 -0.3836  0.1325 -0.8706
   34MOL   C53332279   5.292   1.052   3.811 -0.3293 -0.4759  0.2361
   34MOL   C53432280   5.296   1.179   3.874 -0.6177  0.6589  0.9192
   34MOL   C53532281   5.338   1.189   4.010  0.6760 -0.3340 -0.4290
   34MOL   C53632282   5.385   1.075   4.068  0.5002  0.0894  0.3047
   34MOL   C53732283   5.386   0.945   4.007  0.5121 -0.0125  0.7127
   34MOL   C53832284   5.440   0.833   4.082  0.0251  0.0364 -0.5105
   34MOL   N53932285   5.529   0.858   4.193 -0.2412 -0.6998 -0.4996
   34MOL   C54032286   5.492   0.874   4.322  0.0431 -0.3528 -0.2869
   34MOL   O54132287   5.377   0.870   4.360 -0.0722 -0.1299 -0.0787
   34MOL   C54232288   5.605   0.890   4.427  0.1565 -0.2928  0.1945
   34MOL   C54332289   5.671   0.757   4.464  0.2776  0.4430 -0.0616
   34MOL   C54432290   5.738   0.685   4.353 -0.3682  0.1370  0.3888
   34MOL   C54532291   5.810   0.564   4.416 -0.4153 -0.5626  0.6731
   34MOL   C54632292   5.871   0.481   4.303  0.0312  0.3771  0.1556
   34MOL   C54732293   5.975   0.373   4.347  0.3610 -0.2829  0.4540
   34MOL   C54832294   6.116   0.426   4.365  0.0720 -0.4071 -0.4880
   34MOL   C54932295   6.186   0.499   4.237  0.0799 -1.3624 -0.2304
   34MOL   C55032296   6.340   0.504   4.241  0.4242  0.1215  0.6872
   34MOL   O55132297   6.403   0.520   4.348  0.3005  0.1298  0.1419
   34MOL   H55232298   5.542   0.838   3.769 -1.1492  1.2889 -2.7187
   34MOL   H55332299   5.261   0.742   3.826 -1.2313  1.4410  1.7762
   34MOL   H55432300   5.281   0.824   3.695 -1.7776 -2.0126  0.5393
   34MOL   H55532301   5.261   1.044   3.708  1.7914  0.8043 -0.5333
   34MOL   H55632302   5.273   1.266   3.815  0.9663 -1.7326 -3.4576
   34MOL   H55732303   5.343   1.290   4.048  0.7875  0.1922 -1.8182
   34MOL   H55832304   5.413   1.081   4.172 -1.9879 -1.2337  1.0980
   34MOL   H55932305   5.498   0.782   4.004  1.6742  3.1613 -1.4126
   34MOL   H56032306   5.360   0.763   4.105  1.9664 -1.7814  0.8355
   34MOL   H56132307   5.629   0.864   4.182 -0.3954  2.3988 -0.5295
   34MOL   H56232308   5.552   0.934   4.511 -2.0291 -0.5993 -1.0032
   34MOL   H56332309   5.676   0.971   4.410  0.0063  0.9363  4.7173
   34MOL   H56432310   5.597   0.688   4.504  2.6599 -1.7335  0.8177
   34MOL   H56532311   5.742   0.779   4.544 -2.6864  2.0376  2.2412
   34MOL   H56632312   5.671   0.648   4.275 -0.3457 -0.2724  0.5668
   34MOL   H56732313   5.808   0.752   4.302 -0.0796 -0.2140  0.3202
   34MOL   H56832314   5.890   0.587   4.487  1.1975 -0.6147 -1.0880
   34MOL   H56932315   5.738   0.501   4.469 -2.7762 -0.8024 -2.6646
   34MOL   H57032316   5.789   0.434   4.250 -1.4490  2.7075  0.2724
   34MOL   H57132317   5.927   0.548   4.237 -1.3769 -0.3306 -1.7862
   34MOL   H57232318   5.985   0.289   4.278 -2.6559  0.1579 -0.5898
   34MOL   H57332319   5.940   0.333   4.442 -0.2954  0.3113  0.4658
   34MOL   H57432320   6.124   0.499   4.445 -1.0130 -1.5467  0.6766
   34MOL   H57532321   6.181   0.340   4.382  1.9675  1.3878  1.6176
   34MOL   H57632322   6.146   0.600   4.226 -1.3160 -2.0646 -1.8554
   34MOL   H57732323   6.154   0.445   4.147 -0.9362  0.9508 -1.2945
   34MOL   N57832324   6.398   0.491   4.122 -0.4492  0.3649 -0.2302
   34MOL   C57932325   6.541   0.489   4.089 -0.6914 -0.2279 -0.1512
   34MOL   C58032326   6.589   0.624   4.029 -0.4236 -0.1486 -0.0849
   34MOL   C58132327   6.505   0.740   4.036  0.4025 -0.1169 -0.1179
   34MOL   C58232328   6.550   0.864   3.993 -0.4047 -0.3764 -0.5743
   34MOL   C58332329   6.680   0.879   3.942 -0.1512  0.7995 -0.1245
   34MOL   C58432330   6.761   0.768   3.931  0.0990 -0.5714 -0.1740
   34MOL   C58532331   6.722   0.640   3.981  0.6364 -0.1432 -0.2947
   34MOL   C58632332   6.811   0.515   3.977  0.2937 -0.3080  0.2266
   34MOL   N58732333   6.935   0.544   3.907 -0.0704  0.4469  0.0865
   34MOL   C58832334   7.059   0.523   3.961  0.6717 -0.0610  0.2571
   34MOL   O58932335   7.077   0.459   4.065 -0.7677 -0.3925 -0.1820
   34MOL   C59032336   7.175   0.562   3.871  0.4263  0.5007 -0.6761
   34MOL   C59132337   7.303   0.610   3.947 -0.4763  0.6179  0.3591
   34MOL   C59232338   7.404   0.675   3.848 -0.8243 -0.4647  0.9082
   34MOL   C59332339   7.497   0.571   3.787  0.1667  0.1149 -0.1349
   34MOL   C59432340   7.597   0.632   3.691 -0.2007  0.6405 -0.2483
   34MOL   C59532341   7.695   0.521   3.655  0.5837 -0.1039 -0.0242
   34MOL   C59632342   0.048   0.568   3.628  0.2096 -0.0169  0.2510
   34MOL   C59732343   0.139   0.442   3.626 -0.4013  0.4594  0.3653
   34MOL   C59832344   0.279   0.493   3.603 -0.1545  0.3286 -0.9102
   34MOL   O59932345   0.316   0.597   3.653 -0.3963 -0.3617 -0.5951
   34MOL   H60032346   6.344   0.469   4.039  1.2070  1.1236 -1.5551
   34MOL   H60132347   6.564   0.400   4.031  0.7059  0.0933 -0.1004
   34MOL   H60232348   6.602   0.468   4.177  0.0917 -3.2819 -1.3576
   34MOL   H60332349   6.401   0.738   4.065 -0.0636  2.3303 -1.4621
   34MOL   H60432350   6.479   0.945   3.995  0.8582  0.7624 -1.1943
   34MOL   H60532351   6.715   0.977   3.912 -1.2143  1.5589  1.0058
   34MOL   H60632352   6.859   0.778   3.886 -0.0234 -1.7374 -0.7305
   34MOL   H60732353   6.761   0.439   3.917 -2.0559  0.2960  1.3876
   34MOL   H60832354   6.834   0.465   4.072  2.8601  0.8703  0.2772
   34MOL   H60932355   6.930   0.587   3.815  1.1425 -0.6627 -0.5234
   34MOL   H61032356   7.147   0.629   3.789 -1.1507  1.9535  0.9936
   34MOL   H61132357   7.204   0.471   3.819 -0.9735  0.5454 -1.5697
   34MOL   H61232358   7.348   0.542   4.019  0.5749 -1.9674 -2.6361
   34MOL   H61332359   7.276   0.692   4.014 -0.2431 -0.7963  2.2219
   34MOL   H61432360   7.364   0.737   3.768  1.7147 -1.5954 -1.3029
   34MOL   H61532361   7.478   0.745   3.886 -1.2559  1.1509 -1.1218
   34MOL   H61632362   7.543   0.525   3.875 -1.6207 -1.6480 -0.0784
   34MOL   H61732363   7.437   0.493   3.740 -1.4032  0.6527  0.9140
   34MOL   H61832364   7.553   0.686   3.607 -0.2486 -2.6185 -2.4214
   34MOL   H61932365   7.654   0.711   3.739  0.5379  0.0333 -0.1045
   34MOL   H62032366   7.656   0.458   3.575  2.2675  1.0133 -1.7745
   34MOL   H62132367   7.699   0.451   3.738 -1.3016  2.1505  2.0472
   34MOL   H62232368   0.058   0.625   3.536  1.8849 -2.4925 -1.1654
   34MOL   H62332369   0.079   0.636   3.707 -3.2713 -0.8337  2.4201
   34MOL   H62432370   0.132   0.373   3.710  0.4934 -0.9587 -0.6861
   34MOL   H62532371   0.108   0.375   3.545  1.3703  0.3016 -0.2098
   34MOL   N62632372   0.368   0.415   3.534  1.2507 -0.5210 -0.0615
   34MOL   C62732373   0.507   0.457   3.519 -0.0117 -0.0257  0.5522
   34MOL   C62832374   0.601   0.353   3.450  0.3023 -0.1602 -0.2621
   34MOL   C62932375   0.695   0.396   3.361  0.0894  0.5556  0.8176
   34MOL   C63032376   0.788   0.304   3.302  0.5104  0.2898 -0.2706
   34MOL   C63132377   0.772   0.166   3.335 -0.5791  0.1746 -0.1589
   34MOL   C63232378   0.669   0.120   3.417  0.1529  0.1768  0.8025
   34MOL   C63332379   0.580   0.212   3.476  0.2472  0.5396 -0.2911
   34MOL   C63432380   0.484   0.162   3.585  0.2716 -0.1242  0.5903
   34MOL   N63532381   0.520   0.034   3.636  0.5428  0.0747 -0.1687
   34MOL   C63632382   0.434   7.718   3.636  0.3225 -0.3413  0.4596
   34MOL   O63732383   0.326   7.711   3.579  0.3501 -0.3876  0.3551
   34MOL   C63832384   0.489   7.602   3.721  0.1074  0.3953 -0.1903
   34MOL   C63932385   0.479   7.464   3.650 -0.0701 -0.1302 -0.0223
   34MOL   C64032386   0.587   7.438   3.542  0.0621 -0.2388  0.0091
   34MOL   C64132387   0.563   7.314   3.467  0.6015  0.1123  0.5946
   34MOL   C64232388   0.635   7.314   3.333 -0.1019  0.7986  0.0585
   34MOL   C64332389   0.636   7.181   3.263  0.4823 -0.4903  0.0153
   34MOL   C64432390   0.666   7.171   3.112  0.0011  0.6854 -0.1193
   34MOL   C64532391   0.818   7.196   3.082  0.1211  0.3567 -0.4389
   34MOL   C64632392   0.844   7.305   2.980 -0.2985  0.4618 -0.8948
   34MOL   O64732393   0.760   7.389   2.946  0.2181 -0.1567  0.5584
   34MOL   H64832394   0.325   0.345   3.476 -0.7147 -0.2503  1.0071
   34MOL   H64932395   0.547   0.458   3.620  1.7230 -1.1786 -0.0989
   34MOL   H65032396   0.515   0.558   3.478 -0.1542 -0.3733 -0.3343
   34MOL   H65132397   0.692   0.497   3.323 -2.0823 -1.0635 -3.7010
   34MOL   H65232398   0.855   0.332   3.223  0.4430  2.4106  0.3739
   34MOL   H65332399   0.830   0.093   3.280  0.3491  2.3474 -2.1450
   34MOL   H65432400   0.658   0.014   3.436  1.8894 -0.4508 -1.5408
   34MOL   H65532401   0.391   0.145   3.530  0.5775 -2.6393  0.8316
   34MOL   H65632402   0.474   0.234   3.666  1.9715 -0.7143  1.3367
   34MOL   H65732403   0.607   0.019   3.684 -0.1649 -1.3883  0.6818
   34MOL   H65832404   0.424   7.609   3.808 -0.5357  0.6968 -0.6904
   34MOL   H65932405   0.591   7.624   3.752 -0.7178  1.6751  1.6883
   34MOL   H66032406   0.376   7.456   3.613 -0.4654  0.3716  0.9626
   34MOL   H66132407   0.497   7.388   3.726  0.6055 -1.3876 -1.4012
   34MOL   H66232408   0.580   7.523   3.474  2.2725 -1.2459 -1.5210
   34MOL   H66332409   0.685   7.440   3.590 -0.4472  1.5827  1.0045
   34MOL   H66432410   0.588   7.224   3.524 -1.2899  0.9716  2.8365
   34MOL   H66532411   0.456   7.310   3.445  0.4831  3.9923  0.2791
   34MOL   H66632412   0.567   7.374   3.272  0.1748  0.6882 -0.3603
   34MOL   H66732413   0.733   7.362   3.327  1.8032 -3.2037 -4.0977
   34MOL   H66832414   0.539   7.134   3.276  0.2050 -0.2200 -1.0124
   34MOL   H66932415   0.694   7.117   3.329  0.4905  0.1743  0.6538
   34MOL   H67032416   0.638   7.069   3.084  2.7088  0.0884 -0.8163
   34MOL   H67132417   0.604   7.247   3.065  0.2152  0.8655 -0.1103
   34MOL   H67232418   0.875   7.107   3.056 -0.4949 -0.4212  0.8021
   34MOL   H67332419   0.864   7.240   3.170  0.8163 -0.5120 -0.3674
   34MOL   N67432420   0.969   7.317   2.924 -0.0250  0.1324 -0.3917
   34MOL   C67532421   1.095   7.254   2.972  0.1971  0.1777 -0.3305
   34MOL   C67632422   1.206   7.246   2.869 -0.1038 -0.2010 -0.7904
   34MOL   C67732423   1.186   7.290   2.738 -0.5108 -0.3243 -0.3113
   34MOL   C67832424   1.291   7.280   2.643 -0.3439 -0.2115  0.6961
   34MOL   C67932425   1.421   7.239   2.682  0.6949  0.6312  0.0884
   34MOL   C68032426   1.443   7.196   2.816  0.1177  0.4127 -0.2045
   34MOL   C68132427   1.335   7.203   2.909 -0.0730  0.2269 -0.1044
   34MOL   C68232428   1.366   7.152   3.055 -0.7791 -0.0349  0.7972
   34MOL   N68332429   1.345   7.009   3.069  0.4288 -0.0552 -0.5247
   34MOL   C68432430   1.404   6.936   3.164  0.1245 -0.2818  0.1592
   34MOL   O68532431   1.462   6.995   3.258 -0.0851  0.6001  0.5055
   34MOL   C68632432   1.396   6.787   3.158 -0.3776  0.4423 -0.4079
   34MOL   C68732433   1.527   6.724   3.212 -0.0138  0.3431 -0.3168
   34MOL   C68832434   1.660   6.746   3.135 -0.2895 -0.6988  0.3969
   34MOL   C68932435   1.780   6.740   3.224 -0.2329  0.0812  0.3598
   34MOL   C69032436   1.911   6.717   3.149  0.5470  0.2961 -0.0057
   34MOL   C69132437   1.947   6.832   3.057  0.2162  0.9368 -0.4236
   34MOL   C69232438   2.084   6.818   3.000  0.2715  0.0903 -0.4256
   34MOL   C69332439   2.106   6.704   2.896 -0.4009  0.4802  0.2788
   34MOL   C69432440   2.025   6.714   2.770  0.0455 -0.0737 -0.4148
   34MOL   O69532441   2.042   6.815   2.705  0.2189  0.2996 -0.5078
   34MOL   H69632442   0.989   7.385   2.853 -1.9390 -0.9164 -1.9753
   34MOL   H69732443   1.074   7.152   3.002  1.5369  0.8138  2.9741
   34MOL   H69832444   1.133   7.314   3.054  0.0993 -0.6709  0.3388
   34MOL   H69932445   1.092   7.332   2.706  0.4699  1.6511 -0.6675
   34MOL   H70032446   1.277   7.327   2.547  1.6373 -0.4194  0.2926
   34MOL   H70132447   1.496   7.240   2.605  0.0952  0.1111 -0.5101
   34MOL   H70232448   1.545   7.174   2.843 -0.5053 -0.9561  1.0932
   34MOL   H70332449   1.311   7.215   3.126 -0.6384  0.0107  0.8662
   34MOL   H70432450   1.472   7.169   3.074 -1.1482  2.2661  1.0277
   34MOL   H70532451   1.294   6.959   2.998 -3.7457  2.3256  0.6273
   34MOL   H70632452   1.398   6.754   3.054 -0.8829 -1.7494  0.2446
   34MOL   H70732453   1.308   6.739   3.201  0.3537  0.1371  0.7805
   34MOL   H70832454   1.511   6.616   3.217  0.8081  0.2954  1.9062
   34MOL   H70932455   1.532   6.760   3.315 -0.7291 -0.0327 -0.1494
   34MOL   H71032456   1.672   6.664   3.064  1.4388  1.5034 -1.9587
   34MOL   H71132457   1.637   6.837   3.079  3.0198 -0.9157 -1.3928
   34MOL   H71232458   1.770   6.829   3.286 -0.4896  0.0065  0.4270
   34MOL   H71332459   1.762   6.649   3.282  2.2248 -0.4508  0.3169
   34MOL   H71432460   1.993   6.720   3.221  0.1011 -0.7258  0.5638
   34MOL   H71532461   1.910   6.619   3.102  0.5886 -0.6102  1.8164
   34MOL   H71632462   1.945   6.927   3.111  2.0635  0.4220  0.5681
   34MOL   H71732463   1.871   6.840   2.979  0.9234 -0.1539 -1.2387
   34MOL   H71832464   2.159   6.810   3.079  1.1877 -0.0263 -1.3005
   34MOL   H71932465   2.110   6.908   2.944  1.4854  0.3135  0.4637
   34MOL   H72032466   2.076   6.609   2.941 -1.2485  0.2650 -0.7280
   34MOL   H72132467   2.207   6.697   2.854 -1.3160  2.2346 -2.3350
   34MOL   N72232468   1.935   6.621   2.737 -0.2879  0.3063 -0.1109
   34MOL   C72332469   1.841   6.629   2.628  1.0394  0.2772 -0.5337
   34MOL   C72432470   1.724   6.704   2.684  0.3588  0.5046 -0.1434
   34MOL   C72532471   1.732   6.845   2.665 -0.6430 -0.1155 -0.1739
   34MOL   C72632472   1.636   6.934   2.708 -0.0530 -0.0483 -0.7509
   34MOL   C72732473   1.514   6.878   2.756  0.0691 -0.1114  0.0939
   34MOL   C72832474   1.497   6.733   2.774  0.2198 -0.5064  0.2768
   34MOL   C72932475   1.603   6.649   2.736  0.1646 -0.2239 -0.6525
   34MOL   C73032476   1.593   6.494   2.749  0.6483 -1.4838 -0.1147
   34MOL   N73132477   1.647   6.439   2.877  1.3477  0.1073 -0.1530
   34MOL   C73232478   1.565   6.404   2.980  0.4536  0.1200 -0.0748
   34MOL   O73332479   1.443   6.421   2.981 -0.1791 -0.2824  0.3525
   34MOL   C73432480   1.642   6.355   3.102  0.7464 -0.4587 -0.3690
   34MOL   C73532481   1.547   6.305   3.213 -0.2916 -0.3592  0.0112
   34MOL   C73632482   1.626   6.233   3.323  0.2922  0.2372  0.2876
   34MOL   C73732483   1.535   6.173   3.437 -0.0154 -0.0905 -0.4262
   34MOL   C73832484   1.600   6.051   3.507  0.1255  0.2185 -0.1129
   34MOL   C73932485   1.510   5.979   3.611 -0.3151 -0.2641  0.1092
   34MOL   C74032486   1.361   5.946   3.567  0.4512 -0.5219 -0.4514
   34MOL   C74132487   1.258   6.049   3.640  0.3036  0.2603  0.7312
   34MOL   C74232488   1.112   6.006   3.638 -0.5004 -0.1017  0.2297
   34MOL   O74332489   1.075   5.913   3.566 -0.6400 -0.0366  0.2874
   34MOL   H74432490   1.913   6.553   2.809  0.1647  0.8011  0.5019
   34MOL   H74532491   1.806   6.533   2.590 -1.1639  0.8812 -0.0715
   34MOL   H74632492   1.893   6.682   2.548  1.6127  0.3203 -0.1396
   34MOL   H74732493   1.819   6.884   2.614 -1.0537  1.9414  0.6754
   34MOL   H74832494   1.653   7.041   2.703 -0.9181  0.2404  1.7994
   34MOL   H74932495   1.439   6.945   2.795  0.9818  0.8481  0.2307
   34MOL   H75032496   1.408   6.688   2.816  0.7908 -1.4316  0.5195
   34MOL   H75132497   1.636   6.437   2.667  1.1006  0.9921 -1.6600
   34MOL   H75232498   1.486   6.470   2.749  0.2673  0.1196  0.7070
   34MOL   H75332499   1.746   6.426   2.891  1.0414 -3.1455 -0.5501
   34MOL   H75432500   1.697   6.444   3.134 -2.0301  0.7788  1.1163
   34MOL   H75532501   1.702   6.271   3.066 -1.5697 -3.1809  1.9085
   34MOL   H75632502   1.480   6.236   3.162 -1.9150  2.1365 -1.2752
   34MOL   H75732503   1.471   6.377   3.242  0.6700  0.0515  1.5605
   34MOL   H75832504   1.688   6.148   3.295 -0.0538 -0.3572  1.3188
   34MOL   H75932505   1.700   6.302   3.365 -2.2081  4.5533 -2.0759
   34MOL   H76032506   1.518   6.253   3.509  2.7589 -1.7948  2.2278
   34MOL   H76132507   1.438   6.157   3.391 -0.6439  0.2986  0.7515
   34MOL   H76232508   1.634   5.984   3.428 -2.1697 -1.4139  0.2404
   34MOL   H76332509   1.697   6.072   3.553 -0.1470  0.1282  0.5093
   34MOL   H76432510   1.508   6.033   3.706 -0.1881  0.6275 -0.3849
   34MOL   H76532511   1.557   5.885   3.638  0.9143  0.0671 -0.8165
   34MOL   H76632512   1.353   5.967   3.461  0.8262  0.6684 -0.2430
   34MOL   H76732513   1.337   5.841   3.587 -0.7310  0.0030  0.9916
   34MOL   H76832514   1.284   6.058   3.745 -0.0441 -3.3308  1.1926
   34MOL   H76932515   1.270   6.143   3.586  0.7226 -0.8709 -1.1825
   34MOL   N77032516   1.024   6.077   3.710  0.1261 -0.3955  0.4222
   34MOL   C77132517   0.887   6.050   3.703  0.2449 -0.2441  0.0932
   34MOL   C77232518   0.810   6.160   3.770 -0.0509  0.2575  0.1831
   34MOL   C77332519   0.748   6.128   3.892 -0.4901 -0.5846 -0.3685
   34MOL   C77432520   0.681   6.230   3.966 -0.2421  0.2378  0.3862
   34MOL   C77532521   0.664   6.359   3.904 -0.2942 -0.2514 -0.4836
   34MOL   C77632522   0.727   6.389   3.780  0.3154 -0.1083 -0.7717
   34MOL   C77732523   0.803   6.291   3.713  0.4727  1.0374  0.6389
   34MOL   C77832524   0.858   6.321   3.576  0.3066  0.3548  0.4578
   34MOL   N77932525   0.774   6.273   3.465  0.1779  0.4220 -0.5567
   34MOL   C78032526   0.748   6.324   3.342 -0.0034  0.3446 -0.0707
   34MOL   O78132527   0.777   6.440   3.311  0.1016 -0.0786 -0.3310
   34MOL   C78232528   0.687   6.236   3.233 -0.5603 -0.4312 -0.0146
   34MOL   C78332529   0.566   6.316   3.157  0.4508 -0.0241  0.1765
   34MOL   C78432530   0.512   6.229   3.043  0.4463  0.6910 -0.3037
   34MOL   C78532531   0.378   6.255   2.994 -0.0896 -0.5931  0.4059
   34MOL   C78632532   0.378   6.391   2.920  0.0558 -0.3487  0.2085
   34MOL   C78732533   0.250   6.422   2.845  0.0477 -0.3437 -0.3905
   34MOL   C78832534   0.130   6.431   2.939 -0.0471  0.0737  0.7922
   34MOL   C78932535   0.129   6.578   2.998 -0.6927  0.6692 -0.3509
   34MOL   C79032536   0.029   6.672   2.932 -0.7195 -0.8719 -0.1906
   34MOL   O79132537   0.061   6.752   2.844  0.1323  0.0962 -0.0279
   34MOL   H79232538   1.059   6.157   3.761 -0.7922  1.0420 -1.1490
   34MOL   H79332539   0.847   6.046   3.601  0.8825  4.7973 -0.4730
   34MOL   H79432540   0.860   5.954   3.747  0.8739 -0.7188 -0.5418
   34MOL   H79532541   0.738   6.028   3.930  0.1531  0.6944  3.4672
   34MOL   H79632542   0.614   6.203   4.046 -1.7156  2.1393 -0.1598
   34MOL   H79732543   0.605   6.438   3.949 -0.8501 -1.0882  0.2744
   34MOL   H79832544   0.705   6.486   3.739 -0.4984  0.8633  1.8946
   34MOL   H79932545   0.956   6.275   3.562 -0.2811 -0.3227 -1.6667
   34MOL   H80032546   0.877   6.428   3.579  2.3368  0.0881 -1.7241
   34MOL   H80132547   0.740   6.179   3.480  0.3244  0.4396 -0.1248
   34MOL   H80232548   0.646   6.149   3.283 -0.6532  0.2233  1.0765
   34MOL   H80332549   0.768   6.206   3.166 -0.5164  0.8003 -0.5349
   34MOL   H80432550   0.599   6.415   3.127  0.4871 -0.1435 -0.1850
   34MOL   H80532551   0.489   6.337   3.232  0.0814 -2.6689  0.5792
   34MOL   H80632552   0.505   6.125   3.076  1.1663  0.5471 -0.5804
   34MOL   H80732553   0.579   6.227   2.957 -2.1565  1.5526 -2.3961
   34MOL   H80832554   0.356   6.175   2.922 -1.4855 -1.5902  1.9025
   34MOL   H80932555   0.310   6.261   3.079 -1.0591  0.3597 -0.4102
   34MOL   H81032556   0.400   6.476   2.984 -2.2026  0.1185  0.3800
   34MOL   H81132557   0.459   6.381   2.847 -0.4277 -0.5431 -0.3054
   34MOL   H81232558   0.241   6.347   2.766  2.7896 -0.6958 -0.4010
   34MOL   H81332559   0.263   6.515   2.789 -0.1474 -0.3570 -0.4586
   34MOL   H81432560   0.116   6.356   3.016  1.2955  0.9396  1.9077
   34MOL   H81532561   0.037   6.410   2.886 -0.0325  0.3829  0.6436
   34MOL   H81632562   0.227   6.626   3.005 -0.3041 -0.1089 -0.3537
   34MOL   H81732563   0.101   6.557   3.101  0.4733 -0.3097 -0.2140
   34MOL   N81832564   7.692   6.667   2.981  0.1237 -0.0075  0.1051
   34MOL   C81932565   7.577   6.748   2.950 -0.2084  1.2948  0.3098
   34MOL   C82032566   7.446   6.709   3.026 -0.3715 -0.5863 -0.5543
   34MOL   C82132567   7.381   6.819   3.093  0.2421  0.2827 -0.1748
   34MOL   C82232568   7.269   6.792   3.176 -0.4067 -0.2759 -0.1340
   34MOL   C82332569   7.211   6.661   3.182  0.2071  0.2665  0.4669
   34MOL   C82432570   7.263   6.562   3.105  0.3219  0.4025 -0.1112
   34MOL   C82532571   7.388   6.582   3.032  0.6909  0.4392 -0.8395
   34MOL   C82632572   7.444   6.454   2.965 -0.2242 -0.0077  0.0629
   34MOL   N82732573   7.486   6.351   3.054 -0.0671  0.3084 -0.1879
   34MOL   C82832574   7.595   6.354   3.135  0.1454 -0.2566  0.4196
   34MOL   O82932575   7.678   6.443   3.138  0.1925  0.7821 -0.1370
   34MOL   C83032576   7.625   6.227   3.218  0.4786 -0.2282  0.0734
   34MOL   C83132577   7.752   6.150   3.183 -0.1008  0.0071  0.2424
   34MOL   C83232578   7.781   6.030   3.276 -0.7126 -0.2842  0.1035
   34MOL   C83332579   0.140   5.982   3.263 -0.9667 -0.0155 -0.2586
   34MOL   C83432580   0.202   5.933   3.396 -0.2076  0.1190  0.1918
   34MOL   C83532581   0.345   5.878   3.388  0.4632 -0.4430  0.3426
   34MOL   C83632582   0.404   5.837   3.519  0.6248 -0.4153  0.9905
   34MOL   C83732583   0.541   5.766   3.512 -0.0546  0.4431 -1.1244
   34MOL   C83832584   0.645   5.860   3.445 -0.2801 -0.5716 -0.0094
   34MOL   O83932585   0.645   5.974   3.473 -0.2844 -0.3059  0.3229
   34MOL   H84032586   7.682   6.583   3.037  0.8709  1.2682  2.2356
   34MOL   H84132587   7.582   6.856   2.965 -0.8658  1.0762  2.1812
   34MOL   H84232588   7.563   6.735   2.842  0.1399  1.8436  0.1986
   34MOL   H84332589   7.424   6.916   3.075 -0.6240  0.4823 -1.2248
   34MOL   H84432590   7.228   6.881   3.222  1.3089 -0.2793  1.4263
   34MOL   H84532591   7.120   6.652   3.240  0.0047 -2.0633 -0.1728
   34MOL   H84632592   7.213   6.466   3.102  0.3701  0.3822 -0.3079
   34MOL   H84732593   7.535   6.473   2.908 -1.0137 -0.7807 -1.4610
   34MOL   H84832594   7.371   6.410   2.898 -2.2622  1.4414  1.2722
   34MOL   H84932595   7.424   6.276   3.077  3.2401 -2.0472  1.5443
   34MOL   H85032596   7.538   6.163   3.209  0.5819 -0.3083 -0.3989
   34MOL   H85132597   7.624   6.242   3.326  0.8715 -3.0734  0.5195
   34MOL   H85232598   0.050   6.214   3.187  0.8502 -1.3562  1.9628
   34MOL   H85332599   7.746   6.118   3.079 -0.5794 -0.2512  0.3473
   34MOL   H85432600   7.718   5.942   3.265 -1.3317 -0.0172  1.4519
   34MOL   H85532601   7.763   6.074   3.374 -1.2360 -0.6504  0.1688
   34MOL   H85632602   0.152   5.912   3.181  3.5565 -0.0386  0.3051
   34MOL   H85732603   0.207   6.066   3.245  1.3362 -1.8891 -0.6331
   34MOL   H85832604   0.202   6.002   3.480 -0.2351  0.0718  0.2302
   34MOL   H85932605   0.141   5.848   3.428 -1.2947  0.0812 -1.8704
   34MOL   H86032606   0.406   5.955   3.340  0.4522 -0.1889  0.7429
   34MOL   H86132607   0.348   5.798   3.313 -0.2450 -0.3768  0.2406
   34MOL   H86232608   0.330   5.764   3.552 -1.1157  0.4403 -0.8913
   34MOL   H86332609   0.410   5.924   3.585  2.5619 -0.7586  1.2927
   34MOL   H86432610   0.572   5.740   3.614 -0.4587 -1.1303 -1.3996
   34MOL   H86532611   0.536   5.674   3.455 -0.5569 -0.2522  0.0248
   34MOL   N86632612   0.722   5.810   3.352  0.0389 -0.5874  0.1789
   34MOL   C86732613   0.826   5.883   3.272 -0.0016 -0.3308  0.7765
   34MOL   C86832614   0.809   5.891   3.122 -0.5934  0.3074  0.5355
   34MOL   C86932615   0.686   5.857   3.059  0.3784 -1.2374  0.0985
   34MOL   C87032616   0.661   5.871   2.921  0.5359 -0.3859 -0.2714
   34MOL   C87132617   0.771   5.889   2.842 -0.1822 -0.7719 -0.9728
   34MOL   C87232618   0.899   5.911   2.893  0.5131 -0.4712 -0.0022
   34MOL   C87332619   0.922   5.909   3.032  0.5315 -0.1502 -0.3393
   34MOL   C87432620   1.065   5.931   3.084  0.5250  0.0405  1.2311
   34MOL   N87532621   1.082   6.071   3.110  0.7559  0.0644 -0.2473
   34MOL   C87632622   1.184   6.128   3.182 -0.5585  0.2532  0.5337
   34MOL   O87732623   1.283   6.066   3.221  0.2491 -0.4662  0.2324
   34MOL   C87832624   1.160   6.279   3.207  0.0986 -0.4521 -0.5309
   34MOL   C87932625   1.195   6.319   3.349  0.1730 -0.1714  0.3129
   34MOL   C88032626   1.143   6.456   3.389 -0.9236 -0.4145 -0.1484
   34MOL   C88132627   1.218   6.507   3.510 -0.2967 -0.0901  0.0309
   34MOL   C88232628   1.164   6.642   3.558  0.1829 -0.5152  0.5673
   34MOL   C88332629   1.208   6.680   3.699 -0.3797 -0.0450 -0.0524
   34MOL   C88432630   1.195   6.830   3.734 -0.0320  0.3434 -0.4086
   34MOL   C88532631   1.243   6.860   3.881 -0.8550 -0.1278 -0.0053
   34MOL   C88632632   1.279   7.008   3.908 -0.7902  0.4364  0.0283
   34MOL   O88732633   1.396   7.039   3.915 -0.1619  0.2732 -0.4795
   34MOL   H88832634   0.701   5.714   3.328 -1.3289 -0.6619  1.5912
   34MOL   H88932635   0.841   5.987   3.300  1.8250 -0.9324  2.1519
   34MOL   H89032636   0.922   5.831   3.280 -0.3984 -1.1679  0.2081
   34MOL   H89132637   0.594   5.851   3.116 -0.3572  3.0625 -0.4987
   34MOL   H89232638   0.565   5.852   2.874 -0.6180 -0.6082  2.1099
   34MOL   H89332639   0.759   5.886   2.734 -0.1305  2.7217 -1.1286
   34MOL   H89432640   0.979   5.931   2.823 -1.4364 -0.8878 -2.4277
   34MOL   H89532641   1.139   5.879   3.023 -1.2962 -0.9334 -0.1826
   34MOL   H89632642   1.086   5.877   3.176 -1.6751 -2.2814  0.4068
   34MOL   H89732643   1.015   6.140   3.078  0.4910 -1.0549 -2.2042
   34MOL   H89832644   1.057   6.312   3.192 -0.2532 -2.0398 -1.7429
   34MOL   H89932645   1.222   6.322   3.129  0.2192 -0.6328 -0.5359
   34MOL   H90032646   1.304   6.312   3.352  0.1480 -1.4208 -1.3053
   34MOL   H90132647   1.157   6.249   3.423  2.0573 -0.6069  0.8960
   34MOL   H90232648   1.151   6.523   3.304 -0.1762 -0.0390  0.2108
   34MOL   H90332649   1.035   6.440   3.396 -1.2303  1.9513  1.3399
   34MOL   H90432650   1.206   6.429   3.585  3.1560 -0.5268  0.2442
   34MOL   H90532651   1.322   6.535   3.491 -0.8174 -0.3641 -3.4239
   34MOL   H90632652   1.189   6.718   3.484 -2.0594 -0.7387 -0.4628
   34MOL   H90732653   1.055   6.638   3.551  0.1972 -0.0546  0.0513
   34MOL   H90832654   1.316   6.667   3.710  0.1402  3.4244 -0.3608
   34MOL   H90932655   1.155   6.627   3.777 -0.2475  0.4964  0.4140
   34MOL   H91032656   1.268   6.890   3.681  0.5042  0.0369 -0.0199
   34MOL   H91132657   1.094   6.865   3.711 -0.0925  0.6249  0.2880
   34MOL   H91232658   1.173   6.829   3.958  0.7843 -1.9478  0.8030
   34MOL   H91332659   1.335   6.802   3.893  0.1334  1.1418 -1.1798
   34MOL   N91432660   1.177   7.089   3.926  0.1910 -0.6562  0.6337
   34MOL   C91532661   1.200   7.226   3.956 -0.1515  0.4704 -0.4715
   34MOL   C91632662   1.069   7.308   3.970  0.7219  0.3013 -0.2333
   34MOL   C91732663   1.002   7.350   3.854  0.1329  0.6646 -0.6847
   34MOL   C91832664   0.881   7.426   3.858  0.2871  0.0800  0.3195
   34MOL   C91932665   0.823   7.443   3.983  1.0421 -0.4300 -0.2163
   34MOL   C92032666   0.882   7.401   4.098 -0.4862 -0.6264  0.0196
   34MOL   C92132667   1.004   7.330   4.094 -0.3358  0.0806  0.3195
   34MOL   C92232668   1.062   7.286   4.226  0.1930  0.0660  0.1081
   34MOL   N92332669   1.061   7.138   4.235 -0.0880 -0.1626 -0.6913
   34MOL   C92432670   1.143   7.070   4.313  0.4076 -0.6047 -0.5580
   34MOL   O92532671   1.205   7.129   4.403 -0.0091  0.2074 -0.4900
   34MOL   C92632672   1.167   6.920   4.276  0.6117 -0.8946  0.0815
   34MOL   C92732673   1.312   6.883   4.277 -0.7987 -0.1534  0.3833
   34MOL   C92832674   1.341   6.731   4.261  0.1957 -0.0210 -0.0092
   34MOL   C92932675   1.285   6.640   4.370 -0.1195  0.3866 -0.0942
   34MOL   C93032676   1.381   6.519   4.380  0.1138 -0.6158 -0.0629
   34MOL   C93132677   1.328   6.399   4.464 -0.9676 -0.6428  0.2210
   34MOL   C93232678   1.432   6.290   4.492  0.1818  0.0562 -0.0584
   34MOL   C93332679   1.379   6.169   4.562  0.3254  0.2256 -1.0791
   34MOL   C93432680   1.259   6.082   4.504  0.3853 -0.1307 -1.2978
   34MOL   O93532681   1.219   6.098   4.391  0.7000  0.2745 -0.0032
   34MOL   H93632682   1.082   7.056   3.920  0.4396 -1.4194  0.7885
   34MOL   H93732683   1.255   7.230   4.050  0.0005 -2.2332 -0.4096
   34MOL   H93832684   1.267   7.260   3.878  0.2266  1.8568  0.4344
   34MOL   H93932685   1.040   7.323   3.757 -0.5821 -1.3049 -0.4390
   34MOL   H94032686   0.835   7.450   3.764 -1.1843 -0.0358  0.9991
   34MOL   H94132687   0.722   7.481   3.980  0.7437 -1.2488 -0.8746
   34MOL   H94232688   0.836   7.414   4.195  1.0037 -0.3978  0.7151
   34MOL   H94332689   1.002   7.324   4.309  1.4245 -0.7809  1.4219
   34MOL   H94432690   1.166   7.315   4.240 -0.4899  1.9283  1.5424
   34MOL   H94532691   1.000   7.084   4.175 -1.5719  1.0695 -0.3312
   34MOL   H94632692   1.118   6.914   4.178  0.7537  0.6713 -0.1062
   34MOL   H94732693   1.115   6.864   4.354  2.3614 -1.9305  0.5295
   34MOL   H94832694   1.355   6.910   4.373  0.9456  1.5368 -0.8330
   34MOL   H94932695   1.363   6.936   4.197 -0.2136 -2.0347 -0.5158
   34MOL   H95032696   1.305   6.692   4.165  2.8575 -0.6299 -0.7896
   34MOL   H95132697   1.449   6.726   4.270  0.2941  0.6271 -0.6892
   34MOL   H95232698   1.289   6.692   4.466  1.0439 -0.3195  0.2491
   34MOL   H95332699   1.181   6.612   4.352 -0.7765  1.7458  1.4594
   34MOL   H95432700   1.482   6.552   4.407 -0.7855  1.8085  0.4433
   34MOL   H95532701   1.388   6.484   4.276  3.8234 -0.1733 -0.0298
   34MOL   H95632702   1.282   6.448   4.550 -2.3355 -0.4689 -0.5816
   34MOL   H95732703   1.242   6.364   4.407 -0.8346  0.7637 -0.8664
   34MOL   H95832704   1.523   6.329   4.537  0.3186 -0.7058  0.3308
   34MOL   H95932705   1.477   6.251   4.400  1.4640  0.0499  0.5620
   34MOL   H96032706   1.342   6.199   4.660  0.0215 -2.8944 -0.1717
   34MOL   H96132707   1.457   6.094   4.573 -0.2883 -0.4834 -1.5018
   34MOL   H96232708   1.225   6.013   4.581 -0.9860  1.5714 -0.3445
   35MOL     N132709   4.026   5.655   1.327 -0.0205  0.7107  0.4334
   35MOL     C232710   3.929   5.704   1.420  0.4780  0.3544  0.3748
   35MOL     C332711   3.798   5.632   1.440 -0.3559  0.2996  0.0405
   35MOL     C432712   3.688   5.677   1.358 -0.0372 -0.5975 -0.3041
   35MOL     C532713   3.567   5.598   1.348 -0.5634  0.3920  0.1300
   35MOL     C632714   3.563   5.486   1.434 -0.3109  0.0507  0.2929
   35MOL     C732715   3.665   5.449   1.526  0.2407  0.2968  0.1779
   35MOL     C832716   3.782   5.524   1.523  0.0332  0.2050 -0.3567
   35MOL     C932717   3.899   5.481   1.613 -0.3831 -0.3104 -0.1166
   35MOL    N1032718   3.883   5.347   1.666 -0.5423  0.6222 -0.6093
   35MOL    C1132719   3.989   5.273   1.702  0.0116  0.1038 -0.5716
   35MOL    O1232720   4.105   5.310   1.682 -0.6618  0.0701 -0.3038
   35MOL    C1332721   3.969   5.141   1.770  0.6495 -0.1674 -0.4239
   35MOL    C1432722   4.096   5.069   1.815 -0.7893  0.0273 -0.4508
   35MOL    C1532723   4.151   5.111   1.953 -0.1274 -0.2848  0.7719
   35MOL    C1632724   4.280   5.036   1.975 -0.1100  1.0047  0.0165
   35MOL    C1732725   4.325   5.048   2.124 -0.0141 -0.2715  0.3145
   35MOL    C1832726   4.420   4.937   2.172  0.2492 -0.3711 -0.1990
   35MOL    C1932727   4.445   4.936   2.321 -0.2862 -0.1471  0.1712
   35MOL    C2032728   4.464   5.075   2.382 -0.6380 -0.3837 -0.3118
   35MOL    C2132729   4.587   5.156   2.340  0.1006  0.1694 -0.3814
   35MOL    O2232730   4.691   5.099   2.312 -0.3330  0.7617 -0.6043
   35MOL    H2332731   4.050   5.734   1.269 -2.5604  2.4298  1.6677
   35MOL    H2432732   3.976   5.729   1.514  1.2043 -1.1415  0.4241
   35MOL    H2532733   3.906   5.804   1.383 -1.8396  0.0394  0.9142
   35MOL    H2632734   3.674   5.770   1.306 -2.0476 -0.1985  0.8775
   35MOL    H2732735   3.485   5.640   1.292 -0.3133  2.3959  1.2555
   35MOL    H2832736   3.465   5.440   1.437  0.6288 -2.1811 -1.5375
   35MOL    H2932737   3.647   5.373   1.601  0.0007 -0.2611 -0.4476
   35MOL    H3032738   3.913   5.553   1.694  0.6338 -1.7210  0.9768
   35MOL    H3132739   3.987   5.477   1.549  1.4214  0.7439  2.2280
   35MOL    H3232740   3.789   5.310   1.673 -0.5669  0.5854 -1.1042
   35MOL    H3332741   3.916   5.072   1.704  0.2277 -0.8695  0.6289
   35MOL    H3432742   3.904   5.153   1.857 -1.6874  1.5134 -2.3447
   35MOL    H3532743   4.170   5.066   1.735  0.6828  0.2772  0.8669
   35MOL    H3632744   4.073   4.963   1.824 -1.0302  0.2006  1.1360
   35MOL    H3732745   4.167   5.219   1.962  1.2734 -0.4378  0.3386
   35MOL    H3832746   4.068   5.104   2.023 -0.3110 -0.3513  0.5454
   35MOL    H3932747   4.255   4.934   1.945  0.3273  0.7251  0.5998
   35MOL    H4032748   4.352   5.079   1.905  0.0904  0.4526 -0.1205
   35MOL    H4132749   4.373   5.143   2.148 -1.0859  0.1533  0.8433
   35MOL    H4232750   4.236   5.034   2.185 -0.3426  0.3804 -0.0006
   35MOL    H4332751   4.513   4.964   2.124 -0.4896  3.1769  0.2246
   35MOL    H4432752   4.383   4.848   2.122 -0.1869  0.9183 -2.2171
   35MOL    H4532753   4.367   4.886   2.378 -1.0265  0.2046 -0.5217
   35MOL    H4632754   4.524   4.881   2.372  0.9357  1.3577 -0.0718
   35MOL    H4732755   4.468   5.084   2.491  1.0983 -0.3637 -0.3658
   35MOL    H4832756   4.376   5.135   2.357 -2.1213 -1.0692  2.9660
   35MOL    H4932757   3.990   5.591   1.258 -3.4723  2.1244  0.8380
   35MOL    N5032758   4.580   5.287   2.360 -0.3452 -0.1289 -0.2734
   35MOL    C5132759   4.701   5.368   2.369 -0.4426  0.6923 -1.0701
   35MOL    C5232760   4.753   5.386   2.509  0.4063  0.5211 -0.7376
   35MOL    C5332761   4.871   5.319   2.552 -0.3403 -0.2821  0.1649
   35MOL    C5432762   4.900   5.320   2.686  0.2999 -0.4156  0.2812
   35MOL    C5532763   4.829   5.393   2.780 -0.2473 -0.1550  0.7473
   35MOL    C5632764   4.713   5.463   2.743  0.2040  0.1796 -0.5409
   35MOL    C5732765   4.680   5.463   2.603 -0.3597  0.4517  0.4942
   35MOL    C5832766   4.565   5.552   2.573 -0.6959 -0.1149 -0.1737
   35MOL    N5932767   4.433   5.515   2.623  0.1252  0.4902 -0.3472
   35MOL    C6032768   4.341   5.442   2.558 -0.1580  0.3637 -0.1354
   35MOL    O6132769   4.345   5.423   2.440  0.8102 -0.2028  0.1150
   35MOL    C6232770   4.227   5.386   2.645  0.3576 -0.2876  0.5194
   35MOL    C6332771   4.222   5.240   2.641  0.3817  0.2010 -0.4143
   35MOL    C6432772   4.335   5.163   2.705  0.0815 -0.2070  0.6309
   35MOL    C6532773   4.327   5.009   2.689  0.1922  0.3441  0.3703
   35MOL    C6632774   4.453   4.942   2.733 -0.4090  0.3286  0.0343
   35MOL    C6732775   4.442   4.790   2.745  0.6645 -0.2789  0.7777
   35MOL    C6832776   4.344   4.731   2.846  1.0773 -0.4780  0.1583
   35MOL    C6932777   4.376   4.579   2.894  0.0533 -0.0342 -0.1392
   35MOL    C7032778   4.337   4.476   2.780  0.3825  0.2053 -0.3813
   35MOL    O7132779   4.318   4.508   2.661  0.4674 -0.1456  0.1447
   35MOL    H7232780   4.494   5.331   2.388 -1.0668 -1.5359 -0.1911
   35MOL    H7332781   4.691   5.463   2.315  2.2901  0.2454 -2.4703
   35MOL    H7432782   4.781   5.328   2.307 -0.4312  1.0174 -1.2657
   35MOL    H7532783   4.937   5.266   2.484  1.0191 -0.5607  1.6792
   35MOL    H7632784   4.985   5.264   2.721  2.1391  1.4200 -1.1368
   35MOL    H7732785   4.854   5.385   2.885 -0.7833 -0.3366  0.8617
   35MOL    H7832786   4.652   5.502   2.823  0.4022  0.9691 -0.7740
   35MOL    H7932787   4.566   5.577   2.467 -0.6037  0.3289 -0.0702
   35MOL    H8032788   4.585   5.653   2.609 -0.4265  0.1573 -1.0785
   35MOL    H8132789   4.423   5.523   2.723  1.9401 -2.1257  0.1118
   35MOL    H8232790   4.134   5.425   2.604  0.5842  1.1804  1.3432
   35MOL    H8332791   4.240   5.414   2.750  3.7093 -0.6407  0.2501
   35MOL    H8432792   4.209   5.206   2.539 -0.2352  1.0848 -0.6439
   35MOL    H8532793   4.129   5.204   2.685 -0.1468  1.1467 -0.7391
   35MOL    H8632794   4.426   5.211   2.671 -0.8450  0.6935 -0.6154
   35MOL    H8732795   4.327   5.193   2.810  0.1055 -0.6992  0.7764
   35MOL    H8832796   4.239   4.976   2.742  0.1684 -0.1157  0.0449
   35MOL    H8932797   4.303   4.968   2.591 -2.1889  2.1055  0.1767
   35MOL    H9032798   4.538   4.973   2.672  0.8965  0.0111  1.6585
   35MOL    H9132799   4.485   4.970   2.833  3.1261 -1.9907 -0.3310
   35MOL    H9232800   4.544   4.756   2.765  1.5706  0.4694 -2.2944
   35MOL    H9332801   4.417   4.765   2.642  0.1250  1.4904  0.4551
   35MOL    H9432802   4.247   4.739   2.798  1.0790 -2.0499 -0.1413
   35MOL    H9532803   4.343   4.787   2.940 -0.8039 -1.7380  0.9350
   35MOL    H9632804   4.315   4.556   2.982  0.8406  0.9076  0.6708
   35MOL    H9732805   4.481   4.569   2.921  0.2890 -0.0732 -1.0745
   35MOL    N9832806   4.327   4.350   2.819 -0.5988 -0.0846 -0.7144
   35MOL    C9932807   4.311   4.230   2.741 -0.6856 -0.2517  0.3778
   35MOL   C10032808   4.191   4.146   2.772  0.5729 -0.7373  0.5847
   35MOL   C10132809   4.182   4.079   2.899  0.3303 -0.9228 -0.1956
   35MOL   C10232810   4.076   3.998   2.934 -0.0591  0.0486 -0.0009
   35MOL   C10332811   3.972   3.970   2.847  0.2117  0.6919 -0.1233
   35MOL   C10432812   3.981   4.037   2.720 -0.2978 -0.0711 -0.1386
   35MOL   C10532813   4.084   4.126   2.683 -0.1190 -0.3137  0.1584
   35MOL   C10632814   4.080   4.203   2.553  0.1223 -0.2245 -0.3341
   35MOL   N10732815   4.079   4.344   2.580 -0.7271  0.5850 -0.2698
   35MOL   C10832816   3.984   4.424   2.544 -0.2827  0.4144  0.2888
   35MOL   O10932817   3.885   4.387   2.484 -0.6823  0.3706 -0.1684
   35MOL   C11032818   4.020   4.564   2.576  0.2815 -0.7559 -0.0685
   35MOL   C11132819   3.900   4.658   2.547 -0.4361 -0.6017 -0.6613
   35MOL   C11232820   3.890   4.791   2.624  0.0532 -0.3066  0.5155
   35MOL   C11332821   3.887   4.779   2.772 -0.2671  0.1061 -0.0025
   35MOL   C11432822   3.820   4.899   2.839  0.1212 -0.3983 -0.9574
   35MOL   C11532823   3.891   5.036   2.819 -0.3639  0.0625 -0.2784
   35MOL   C11632824   3.800   5.155   2.860  0.5039  0.4902 -0.6280
   35MOL   C11732825   3.831   5.290   2.806 -0.2564  0.1913  0.2890
   35MOL   C11832826   3.737   5.399   2.862  0.5149 -0.2993 -0.2037
   35MOL   O11932827   3.696   5.396   2.978  0.4359  0.4062 -0.8675
   35MOL   H12032828   4.338   4.330   2.917 -1.0182  1.3357 -0.3670
   35MOL   H12132829   4.325   4.248   2.634  1.2550 -1.2526  0.4257
   35MOL   H12232830   4.400   4.171   2.764 -0.2708  0.3966  0.4627
   35MOL   H12332831   4.267   4.074   2.966 -1.5584 -1.0932  2.2709
   35MOL   H12432832   4.084   3.949   3.030  2.5656 -0.3096 -0.3665
   35MOL   H12532833   3.889   3.904   2.865  0.0370  1.1328  0.6927
   35MOL   H12632834   3.896   4.031   2.654 -1.0303  2.2193  0.5429
   35MOL   H12732835   3.991   4.169   2.501 -1.0352  1.1706  0.6982
   35MOL   H12832836   4.169   4.179   2.495  0.4589  2.9602 -1.2162
   35MOL   H12932837   4.168   4.388   2.602 -1.3001  2.0127 -0.7914
   35MOL   H13032838   4.097   4.597   2.507  0.2794  1.2274  0.8369
   35MOL   H13132839   4.057   4.570   2.678 -0.4188 -0.4816  0.1793
   35MOL   H13232840   3.807   4.612   2.582 -0.3697  0.2908  0.6874
   35MOL   H13332841   3.896   4.682   2.440  0.5753  0.9289 -0.3644
   35MOL   H13432842   3.975   4.854   2.597  2.0299 -2.7777  0.7277
   35MOL   H13532843   3.801   4.840   2.585 -0.7528 -0.0454  2.6296
   35MOL   H13632844   3.834   4.686   2.792 -2.7092  1.1203 -1.5245
   35MOL   H13732845   3.988   4.771   2.813 -0.0833  1.6639 -0.1200
   35MOL   H13832846   3.724   4.900   2.788  0.1032 -1.7860 -0.9651
   35MOL   H13932847   3.798   4.884   2.945  2.7937  2.0213  0.0187
   35MOL   H14032848   3.906   5.052   2.712 -1.4943 -0.7378 -0.5636
   35MOL   H14132849   3.978   5.045   2.883  0.5032  1.1968 -1.5863
   35MOL   H14232850   3.697   5.133   2.832  0.0454  1.2416  0.4482
   35MOL   H14332851   3.800   5.154   2.969  0.3081  0.3631 -0.6283
   35MOL   H14432852   3.831   5.295   2.697 -1.4926  2.3790  0.3674
   35MOL   H14532853   3.924   5.324   2.850  0.2633 -1.1210  0.2418
   35MOL   N14632854   3.707   5.499   2.783 -0.2260  0.2539 -0.4546
   35MOL   C14732855   3.609   5.600   2.819 -0.1880  0.0413  0.3611
   35MOL   C14832856   3.612   5.713   2.718 -0.3545  0.1694 -0.0758
   35MOL   C14932857   3.681   5.831   2.746  1.6687 -0.0972  0.3703
   35MOL   C15032858   3.704   5.924   2.643  0.1822 -0.6700 -0.7821
   35MOL   C15132859   3.655   5.896   2.514 -0.7392  0.1748  0.1136
   35MOL   C15232860   3.584   5.780   2.489  0.8998 -0.1951 -0.1546
   35MOL   C15332861   3.560   5.684   2.592 -0.1657  0.1380 -0.4713
   35MOL   C15432862   3.456   5.568   2.565 -0.4191  0.1486  0.0805
   35MOL   N15532863   3.504   5.434   2.533 -0.3383 -0.0819  0.1156
   35MOL   C15632864   3.461   5.326   2.604  0.3160  0.1323 -0.5978
   35MOL   O15732865   3.374   5.336   2.695 -0.0561  0.2176 -0.2165
   35MOL   C15832866   3.524   5.191   2.574  0.2383  0.1737 -0.1298
   35MOL   C15932867   3.438   5.082   2.629  0.2576 -0.5291  0.0321
   35MOL   C16032868   3.476   4.944   2.582 -0.0263 -0.2483 -0.1472
   35MOL   C16132869   3.380   4.834   2.641  0.7672 -0.2724 -0.4116
   35MOL   C16232870   3.439   4.760   2.770 -0.8719  0.6364  0.4703
   35MOL   C16332871   3.527   4.639   2.726  0.2234 -0.2123  0.0098
   35MOL   C16432872   3.453   4.519   2.657  0.0438  0.5882  0.4477
   35MOL   C16532873   3.546   4.405   2.604 -1.0438 -0.1525  0.2391
   35MOL   C16632874   3.616   4.318   2.709 -1.1269  0.1259 -0.5601
   35MOL   O16732875   3.586   4.201   2.721 -0.2986  0.2302 -0.0289
   35MOL   H16832876   3.727   5.507   2.684 -0.5189 -1.2431 -0.6489
   35MOL   H16932877   3.645   5.637   2.915  1.9488 -2.3789  0.5671
   35MOL   H17032878   3.509   5.560   2.832 -1.1198  1.3869 -2.2682
   35MOL   H17132879   3.726   5.851   2.842  0.7823  1.3975  0.4848
   35MOL   H17232880   3.759   6.012   2.674 -1.4178 -0.9073  3.0085
   35MOL   H17332881   3.680   5.964   2.435 -1.0710 -0.0808 -0.2156
   35MOL   H17432882   3.545   5.762   2.389  1.0640 -0.0603 -0.2433
   35MOL   H17532883   3.381   5.598   2.493  1.0386  0.4931 -1.3208
   35MOL   H17632884   3.400   5.570   2.659 -0.4644 -1.0437  0.0787
   35MOL   H17732885   3.569   5.421   2.457 -0.2858  1.7086 -0.1543
   35MOL   H17832886   3.627   5.187   2.610 -0.9212  2.0785  3.6900
   35MOL   H17932887   3.541   5.172   2.468 -2.0950 -0.0356 -0.4906
   35MOL   H18032888   3.335   5.106   2.603  0.6364  0.0032 -1.0088
   35MOL   H18132889   3.435   5.070   2.737 -1.1697 -2.5497 -0.2081
   35MOL   H18232890   3.466   4.934   2.474 -0.5010  0.0432 -0.1321
   35MOL   H18332891   3.576   4.910   2.610 -0.4400 -0.4196  1.1702
   35MOL   H18432892   3.283   4.874   2.669  0.7749  0.2393 -1.1130
   35MOL   H18532893   3.364   4.764   2.559 -0.5850  0.9072 -1.1692
   35MOL   H18632894   3.504   4.829   2.823  2.6146 -1.2783 -1.1227
   35MOL   H18732895   3.361   4.723   2.837 -0.7927  0.2232  0.3364
   35MOL   H18832896   3.587   4.606   2.810  0.3070 -0.4807 -0.1549
   35MOL   H18932897   3.597   4.687   2.657 -1.2080  0.4801 -1.0040
   35MOL   H19032898   3.367   4.482   2.713  0.3036  0.8757  1.0412
   35MOL   H19132899   3.404   4.565   2.571 -0.9279  0.4596  0.9237
   35MOL   H19232900   3.625   4.460   2.553 -2.2942 -2.2432 -4.2397
   35MOL   H19332901   3.504   4.344   2.523 -1.6116  1.2873 -0.5630
   35MOL   N19432902   3.701   4.381   2.800 -1.0623  0.2173  0.1911
   35MOL   C19532903   3.781   4.320   2.899  0.8100  0.3217  0.5407
   35MOL   C19632904   3.828   4.430   2.993  0.4566 -0.4421  0.0195
   35MOL   C19732905   3.957   4.487   2.966 -0.0417  0.3796 -1.1101
   35MOL   C19832906   4.014   4.588   3.043 -0.0225 -0.4678  0.1634
   35MOL   C19932907   3.936   4.642   3.150  0.4855 -0.4788 -0.7107
   35MOL   C20032908   3.797   4.605   3.166  0.3441  0.3554  0.1099
   35MOL   C20132909   3.740   4.500   3.087 -0.3351 -0.9401 -0.6068
   35MOL   C20232910   3.598   4.459   3.097  0.5477 -0.2856  0.5522
   35MOL   N20332911   3.527   4.529   3.202  0.2535 -0.2234 -0.4696
   35MOL   C20432912   3.409   4.583   3.186 -0.2097  0.3568  0.1708
   35MOL   O20532913   3.342   4.566   3.088 -0.1501 -0.6069 -0.0401
   35MOL   C20632914   3.343   4.648   3.307 -0.3365 -0.1365 -0.2389
   35MOL   C20732915   3.206   4.596   3.356  0.6135 -0.0260 -0.1394
   35MOL   C20832916   3.206   4.445   3.389 -0.2127 -0.3790 -0.0002
   35MOL   C20932917   3.086   4.403   3.475 -0.0133  0.5243 -0.5225
   35MOL   C21032918   3.112   4.303   3.584  0.7598 -0.1503 -0.3399
   35MOL   C21132919   3.196   4.362   3.701  0.0053 -0.5069 -0.1414
   35MOL   C21232920   3.208   4.268   3.815 -0.1309  0.6530 -0.0638
   35MOL   C21332921   3.205   4.336   3.951 -0.2508 -0.1376  0.1398
   35MOL   C21432922   3.215   4.252   4.073  0.1463 -0.1508  0.6990
   35MOL   O21532923   3.230   4.129   4.076 -0.1835 -0.3762 -0.0333
   35MOL   H21632924   3.709   4.482   2.793 -0.7880  0.0375 -2.6877
   35MOL   H21732925   3.724   4.245   2.954 -0.1788  2.2219  2.1434
   35MOL   H21832926   3.864   4.271   2.848  1.9050  0.0787  2.5009
   35MOL   H21932927   4.007   4.455   2.876  1.9127  2.4204 -0.7881
   35MOL   H22032928   4.108   4.630   3.010  1.2019 -2.2850  1.2630
   35MOL   H22132929   3.979   4.708   3.224 -1.2647 -2.4927  2.2217
   35MOL   H22232930   3.739   4.642   3.250  0.4213 -0.4569  0.5233
   35MOL   H22332931   3.575   4.353   3.109  0.3580 -0.2755  0.2814
   35MOL   H22432932   3.554   4.494   3.003 -0.3403 -2.1912  0.2235
   35MOL   H22532933   3.579   4.533   3.288  0.6171 -0.5903 -0.6725
   35MOL   H22632934   3.337   4.753   3.281  0.1173 -0.4447 -1.6250
   35MOL   H22732935   3.402   4.651   3.399  1.0230 -0.4582 -1.0811
   35MOL   H22832936   3.186   4.652   3.448  0.8244 -1.2143  0.6420
   35MOL   H22932937   3.128   4.615   3.283  2.9085 -0.2337 -2.7334
   35MOL   H23032938   3.205   4.398   3.291  0.7087 -0.2822 -0.0621
   35MOL   H23132939   3.302   4.424   3.437  0.3859  2.0062 -0.0921
   35MOL   H23232940   3.042   4.492   3.520 -0.8056 -0.1863  0.1414
   35MOL   H23332941   3.004   4.376   3.409 -0.1631  1.6064 -0.7825
   35MOL   H23432942   3.014   4.277   3.624  0.8284 -2.6491 -1.6698
   35MOL   H23532943   3.157   4.216   3.536  2.2467  1.0518 -1.1272
   35MOL   H23632944   3.136   4.448   3.730  1.0085  0.7348 -1.6822
   35MOL   H23732945   3.292   4.401   3.668 -0.5907  1.0745 -0.0730
   35MOL   H23832946   3.297   4.208   3.796 -1.9274 -2.1711  0.1610
   35MOL   H23932947   3.122   4.201   3.820  0.3469  0.0043 -0.5069
   35MOL   H24032948   3.293   4.399   3.962  0.4594 -0.6780 -2.2206
   35MOL   H24132949   3.123   4.407   3.957 -0.6282 -0.6983  1.8219
   35MOL   N24232950   3.233   4.319   4.188  0.4529 -0.0016 -0.4531
   35MOL   C24332951   3.248   4.255   4.322 -0.0470  0.3111 -0.0566
   35MOL   C24432952   3.363   4.313   4.407  0.0733  0.4462 -0.2126
   35MOL   C24532953   3.436   4.425   4.352 -0.8716 -0.4988  0.3956
   35MOL   C24632954   3.545   4.477   4.430  0.8113  0.2730 -0.8382
   35MOL   C24732955   3.581   4.420   4.551 -0.1960  0.3900 -0.2128
   35MOL   C24832956   3.507   4.310   4.603 -0.4095 -0.6526  0.3578
   35MOL   C24932957   3.400   4.255   4.532  0.6135  0.4404  1.0535
   35MOL   C25032958   3.313   4.137   4.589 -0.4526  0.5964 -0.9968
   35MOL   N25132959   3.353   4.079   4.717 -0.4309 -0.2241 -0.2398
   35MOL   C25232960   3.462   4.002   4.737 -0.1474 -0.2143  0.2492
   35MOL   O25332961   3.544   3.976   4.649  0.3812 -0.1889 -0.2224
   35MOL   C25432962   3.466   3.928   4.877  0.4270  0.2912 -0.1278
   35MOL   C25532963   3.553   3.804   4.869 -0.1151  0.0509  0.5462
   35MOL   C25632964   3.487   3.670   4.819 -0.3770  0.2181 -0.5196
   35MOL   C25732965   3.591   3.562   4.824  0.2951  0.0080  0.5047
   35MOL   C25832966   3.541   3.427   4.792 -0.6478  0.6591 -0.1116
   35MOL   C25932967   3.530   3.401   4.644  0.1816 -0.2254 -0.3277
   35MOL   C26032968   3.443   3.281   4.616  0.4119 -0.0915  0.8054
   35MOL   C26132969   3.295   3.282   4.679 -0.6916 -0.7270  0.1885
   35MOL   C26232970   3.218   3.406   4.645  0.0162  0.3763  0.4131
   35MOL   O26332971   3.183   3.428   4.529 -0.7886  0.0183  0.4000
   35MOL   H26432972   3.217   4.419   4.190 -0.6956 -0.1526 -1.5946
   35MOL   H26532973   3.153   4.269   4.373 -1.0709 -1.7237 -1.3671
   35MOL   H26632974   3.273   4.150   4.313 -1.6991 -0.2111  1.2562
   35MOL   H26732975   3.403   4.464   4.256 -1.1302  0.0114  0.6920
   35MOL   H26832976   3.598   4.563   4.391 -1.3868  2.4248  0.7672
   35MOL   H26932977   3.658   4.464   4.612 -2.6711  3.7149  0.6960
   35MOL   H27032978   3.526   4.283   4.706 -0.6451 -0.0075  0.5785
   35MOL   H27132979   3.317   4.076   4.499 -0.6744  0.1791 -0.7272
   35MOL   H27232980   3.211   4.175   4.598 -0.5286  0.4424 -1.2139
   35MOL   H27332981   3.287   4.090   4.792 -0.7378 -3.8963  0.1122
   35MOL   H27432982   3.374   3.896   4.925  1.3199  1.5743  2.5403
   35MOL   H27532983   3.507   4.002   4.946 -0.3023  2.1773 -1.6576
   35MOL   H27632984   3.597   3.779   4.965  0.2141 -1.0676  0.1131
   35MOL   H27732985   3.646   3.825   4.816  0.6375  0.2814  1.9202
   35MOL   H27832986   3.455   3.678   4.715 -0.1196 -0.6383 -0.6646
   35MOL   H27932987   3.405   3.634   4.882 -0.3464  1.1454  0.0598
   35MOL   H28032988   3.685   3.585   4.774  0.0527  0.7837  0.4030
   35MOL   H28132989   3.636   3.567   4.923  2.6637 -1.8894 -0.4250
   35MOL   H28232990   3.608   3.351   4.830  1.3550  2.4954  0.1399
   35MOL   H28332991   3.444   3.422   4.843 -0.6845  1.3021 -0.1067
   35MOL   H28432992   3.628   3.403   4.598 -0.1979 -1.7659 -1.2437
   35MOL   H28532993   3.467   3.478   4.597  1.0309  1.2338  0.8687
   35MOL   H28632994   3.429   3.261   4.510  0.1921 -0.3900  0.8930
   35MOL   H28732995   3.507   3.203   4.658  0.3184 -0.6379 -0.0657
   35MOL   H28832996   3.235   3.206   4.631 -1.6519 -0.2338  0.5832
   35MOL   H28932997   3.300   3.257   4.785  1.0490 -0.0725  0.2833
   35MOL   N29032998   3.180   3.479   4.749  0.3396  0.7651  0.0544
   35MOL   C29132999   3.091   3.602   4.738  0.1429  0.0076  0.2633
   35MOL   C29233000   2.942   3.588   4.712  0.5608  0.9678 -0.4483
   35MOL   C29333001   2.878   3.468   4.738 -0.2402 -0.5175 -0.4261
   35MOL   C29433002   2.736   3.455   4.723  0.2377  0.5114  0.0832
   35MOL   C29533003   2.666   3.567   4.676  0.3446  0.0952 -0.1363
   35MOL   C29633004   2.730   3.690   4.646  0.6080 -0.2229 -0.2852
   35MOL   C29733005   2.869   3.698   4.664 -0.3361  0.4599 -0.5900
   35MOL   C29833006   2.927   3.831   4.624 -0.1380 -0.5821  0.0259
   35MOL   N29933007   2.934   3.843   4.475 -0.5414  0.3412 -0.2701
   35MOL   C30033008   2.995   3.943   4.407  0.1794 -0.0008  0.2216
   35MOL   O30133009   3.024   4.046   4.473  0.2715  0.1206 -0.1917
   35MOL   C30233010   3.008   3.937   4.257 -0.4379  0.5122  0.2236
   35MOL   C30333011   2.913   4.045   4.189  0.1575  1.0786 -0.3785
   35MOL   C30433012   2.914   4.041   4.034 -0.9404 -0.4987  0.0041
   35MOL   C30533013   2.847   4.172   3.984 -0.0500 -0.4592 -0.0983
   35MOL   C30633014   2.796   4.165   3.844 -0.1183  0.1578 -0.1561
   35MOL   C30733015   2.739   4.292   3.777 -0.5562 -0.1119  0.0704
   35MOL   C30833016   2.686   4.261   3.630  0.0985  0.3004 -0.1671
   35MOL   C30933017   2.592   4.364   3.562  0.2685 -0.7301 -0.6704
   35MOL   C31033018   2.684   4.479   3.512 -0.2085 -0.5091 -0.2209
   35MOL   O31133019   2.796   4.499   3.555 -0.2786 -0.8414 -0.4470
   35MOL   H31233020   3.213   3.452   4.841 -1.6399 -3.3863 -0.3337
   35MOL   H31333021   3.109   3.661   4.827 -0.6626  0.9265 -0.1652
   35MOL   H31433022   3.130   3.659   4.654 -0.3457 -0.1740 -0.0920
   35MOL   H31533023   2.941   3.385   4.766  0.3257 -0.1113 -0.4878
   35MOL   H31633024   2.681   3.369   4.756  1.8171 -0.3985  0.3768
   35MOL   H31733025   2.558   3.564   4.665  0.4600 -1.4361 -1.1282
   35MOL   H31833026   2.678   3.780   4.617 -0.6161 -0.6337  0.5619
   35MOL   H31933027   3.028   3.851   4.660 -1.1299  4.1421  0.4559
   35MOL   H32033028   2.855   3.909   4.648  0.1251  0.6500 -2.9105
   35MOL   H32133029   2.888   3.766   4.427 -2.5383  1.9606 -1.0137
   35MOL   H32233030   3.115   3.953   4.243  0.1829 -0.3942  3.5491
   35MOL   H32333031   2.979   3.839   4.218  2.4223 -0.2731 -0.0266
   35MOL   H32433032   2.938   4.144   4.228 -0.7040  2.0591 -2.2619
   35MOL   H32533033   2.816   4.009   4.221  0.0906  0.1727 -1.5717
   35MOL   H32633034   2.860   3.953   4.000 -0.5938 -0.5033 -0.5249
   35MOL   H32733035   3.019   4.034   4.008 -0.7308 -3.0079  1.4106
   35MOL   H32833036   2.767   4.204   4.050 -0.3251 -0.2248 -0.5395
   35MOL   H32933037   2.915   4.257   3.990 -2.3372  1.6240 -2.6033
   35MOL   H33033038   2.886   4.142   3.787  1.1185  2.2080  0.9361
   35MOL   H33133039   2.722   4.086   3.832  0.5767 -0.5229 -0.0425
   35MOL   H33233040   2.806   4.377   3.781 -0.0008 -0.3538 -2.7181
   35MOL   H33333041   2.660   4.316   3.849  0.7412  0.3357  1.3535
   35MOL   H33433042   2.768   4.223   3.569 -1.3134  0.5707 -2.2765
   35MOL   H33533043   2.620   4.174   3.637 -0.0560  0.5108  1.1187
   35MOL   H33633044   2.526   4.316   3.490 -0.4059 -2.1730  0.8772
   35MOL   H33733045   2.529   4.413   3.637 -1.0292  0.1331 -2.2968
   35MOL   N33833046   2.636   4.555   3.416 -0.6281 -0.2470 -0.2888
   35MOL   C33933047   2.702   4.678   3.362  0.5423  0.5505 -0.2740
   35MOL   C34033048   2.635   4.714   3.232  0.1003 -0.2354  0.7671
   35MOL   C34133049   2.712   4.702   3.111  0.3967  0.2423  0.3505
   35MOL   C34233050   2.659   4.736   2.985 -0.1863  0.2751  0.1214
   35MOL   C34333051   2.530   4.788   2.989  0.5454  0.3951 -0.0889
   35MOL   C34433052   2.455   4.803   3.107  0.4776  0.0685  0.2498
   35MOL   C34533053   2.503   4.767   3.229 -0.1662  0.4709  0.0393
   35MOL   C34633054   2.419   4.810   3.354 -0.4333  0.0557  0.4835
   35MOL   N34733055   2.281   4.761   3.344 -0.3692  0.5122 -1.0389
   35MOL   C34833056   2.246   4.636   3.378 -0.2548  0.5826  0.4529
   35MOL   O34933057   2.322   4.547   3.407  0.4627  0.2676 -0.4275
   35MOL   C35033058   2.099   4.611   3.396  0.2902 -0.0479 -0.2503
   35MOL   C35133059   2.055   4.550   3.266 -0.1464 -0.4993 -0.1149
   35MOL   C35233060   1.929   4.469   3.277 -0.1249 -0.0338  0.3037
   35MOL   C35333061   1.892   4.399   3.151  0.0623  0.3317 -0.5152
   35MOL   C35433062   1.764   4.309   3.165  0.1341 -0.5012  0.1412
   35MOL   C35533063   1.732   4.216   3.048  1.4538  0.3357 -0.3125
   35MOL   C35633064   1.601   4.139   3.079 -0.4379 -0.5835 -0.2062
   35MOL   C35733065   1.570   4.043   2.956  0.0516 -0.1034  0.5240
   35MOL   C35833066   1.470   4.106   2.867 -0.2019 -0.1755  0.0589
   35MOL   O35933067   1.354   4.080   2.880  0.5589  0.6813  0.0454
   35MOL   H36033068   2.536   4.545   3.399 -0.3809 -0.7507 -1.4863
   35MOL   H36133069   2.694   4.748   3.446 -1.8407 -2.2543  1.9200
   35MOL   H36233070   2.811   4.671   3.352  0.6555  3.2940 -1.3811
   35MOL   H36333071   2.814   4.669   3.127 -0.3345 -2.5555 -0.5288
   35MOL   H36433072   2.713   4.735   2.892  2.4898 -2.7440  1.6419
   35MOL   H36533073   2.495   4.823   2.893 -0.1775  1.6234  0.6149
   35MOL   H36633074   2.364   4.862   3.103  0.4805 -0.0057 -1.2714
   35MOL   H36733075   2.439   4.916   3.369  1.1549 -0.4101  1.8243
   35MOL   H36833076   2.470   4.765   3.440  0.1223  1.1053  0.7115
   35MOL   H36933077   2.205   4.824   3.322 -0.3195  0.5823 -1.0113
   35MOL   H37033078   2.042   4.691   3.443 -0.2831 -0.2506 -0.6050
   35MOL   H37133079   2.081   4.525   3.462 -0.0446  1.2826  1.4394
   35MOL   H37233080   2.129   4.487   3.217 -0.1122 -0.6485  0.1281
   35MOL   H37333081   2.045   4.628   3.190 -0.0554 -0.3875 -0.0113
   35MOL   H37433082   1.944   4.395   3.355  1.3932 -0.0861 -0.0268
   35MOL   H37533083   1.863   4.545   3.320  0.7431  2.3538 -2.4195
   35MOL   H37633084   1.971   4.336   3.112  0.5196  1.3081 -1.1745
   35MOL   H37733085   1.887   4.470   3.069  1.6841 -0.8694 -1.6683
   35MOL   H37833086   1.797   4.259   3.256 -1.3853 -0.0754  0.9427
   35MOL   H37933087   1.675   4.370   3.177  0.0856 -0.5854  0.2081
   35MOL   H38033088   1.803   4.136   3.026 -1.7962 -2.4557 -1.0234
   35MOL   H38133089   1.721   4.269   2.953 -1.8617 -0.0940 -0.2342
   35MOL   H38233090   1.617   4.074   3.165  1.4646 -3.3778 -2.6056
   35MOL   H38333091   1.516   4.205   3.099 -0.4857 -0.4394 -0.8695
   35MOL   H38433092   1.522   3.957   3.003  1.1577  0.0213  1.9016
   35MOL   H38533093   1.658   4.009   2.901  0.0532 -1.2538  1.2244
   35MOL   N38633094   1.518   4.199   2.778 -0.6772 -0.2850 -0.2616
   35MOL   C38733095   1.442   4.271   2.670  0.2779  0.8051 -0.0470
   35MOL   C38833096   1.491   4.406   2.636  0.2746 -0.0874  0.3946
   35MOL   C38933097   1.511   4.430   2.500  0.1275 -0.5706  0.0752
   35MOL   C39033098   1.564   4.548   2.450  0.1101 -0.2372 -0.2565
   35MOL   C39133099   1.586   4.655   2.536  0.6172 -0.1092 -0.3771
   35MOL   C39233100   1.553   4.644   2.671  0.1685  0.1086 -0.3122
   35MOL   C39333101   1.506   4.517   2.726 -0.1571  0.3211  0.4296
   35MOL   C39433102   1.490   4.508   2.879  0.1958  0.7580 -0.1188
   35MOL   N39533103   1.614   4.557   2.937  0.0932  0.2272  0.7993
   35MOL   C39633104   1.632   4.659   3.022  0.0923 -0.4563  0.1520
   35MOL   O39733105   1.535   4.694   3.094 -0.3273  0.3671 -1.0348
   35MOL   C39833106   1.768   4.723   3.043  0.0156  0.2364  0.5744
   35MOL   C39933107   1.762   4.882   3.024 -0.0029  0.7233 -0.1435
   35MOL   C40033108   1.734   4.933   2.881 -0.5552  0.0833  0.3028
   35MOL   C40133109   1.757   5.087   2.863  0.1515  0.0531  0.0315
   35MOL   C40233110   1.696   5.179   2.972 -0.0160 -0.1869  0.0984
   35MOL   C40333111   1.654   5.321   2.920 -0.3723  0.9343 -0.2531
   35MOL   C40433112   1.768   5.417   2.883 -0.2798 -0.0183 -0.0773
   35MOL   C40533113   1.844   5.480   2.997 -0.0036 -0.0139  0.3462
   35MOL   C40633114   1.986   5.514   2.957 -0.7152  0.4024 -0.1709
   35MOL   O40733115   2.070   5.426   2.936 -0.8699  0.9193 -0.2535
   35MOL   H40833116   1.617   4.218   2.784 -0.1770 -2.8293  0.0394
   35MOL   H40933117   1.461   4.204   2.586  0.1146  0.8773 -0.1419
   35MOL   H41033118   1.335   4.274   2.686  0.2765  0.3534  0.0308
   35MOL   H41133119   1.496   4.352   2.426  0.2401 -1.2993  0.8050
   35MOL   H41233120   1.579   4.559   2.343 -0.9013  1.3732 -0.2548
   35MOL   H41333121   1.617   4.745   2.486  2.3190  0.4560  1.6504
   35MOL   H41433122   1.572   4.733   2.729  0.6983 -0.9295  1.1572
   35MOL   H41533123   1.464   4.405   2.900  0.6634 -0.0467 -3.2038
   35MOL   H41633124   1.403   4.570   2.900 -0.9746 -1.0228  0.3976
   35MOL   H41733125   1.691   4.512   2.889 -1.1353  0.2577 -1.2390
   35MOL   H41833126   1.802   4.684   3.139 -1.5328 -1.3844  0.4863
   35MOL   H41933127   1.838   4.688   2.967 -0.0837 -1.4379  1.2241
   35MOL   H42033128   1.866   4.906   3.045  0.1423  0.7963 -0.9084
   35MOL   H42133129   1.688   4.922   3.093 -2.7942 -2.7665 -0.9535
   35MOL   H42233130   1.634   4.904   2.850 -0.0002 -3.0664  1.2839
   35MOL   H42333131   1.804   4.889   2.810 -1.2818 -0.1190 -0.2890
   35MOL   H42433132   1.861   5.114   2.845  0.2334  0.1432  0.6322
   35MOL   H42533133   1.705   5.120   2.772  0.8080  0.0858 -0.3323
   35MOL   H42633134   1.605   5.124   2.995 -0.0336 -1.5471 -2.9478
   35MOL   H42733135   1.758   5.179   3.062  1.8592 -0.0122 -1.1635
   35MOL   H42833136   1.588   5.378   2.986  0.6811  0.3170  1.3631
   35MOL   H42933137   1.582   5.316   2.838  0.4969  0.2942 -0.9786
   35MOL   H43033138   1.720   5.500   2.831  1.3598  0.2904 -1.1556
   35MOL   H43133139   1.818   5.369   2.799 -1.3521 -3.6663  1.2839
   35MOL   H43233140   1.850   5.417   3.086 -0.6785 -0.0454  0.3721
   35MOL   H43333141   1.782   5.564   3.027 -0.2332 -0.3524  0.8349
   35MOL   N43433142   2.010   5.647   2.937 -0.1343  0.0855  0.4178
   35MOL   C43533143   2.147   5.701   2.903 -0.9628  0.3392 -0.2455
   35MOL   C43633144   2.252   5.708   3.011  0.2478 -0.4608  0.9073
   35MOL   C43733145   2.335   5.599   3.009  0.8874 -0.3913 -0.6029
   35MOL   C43833146   2.437   5.588   3.102 -0.2651 -0.8769  0.2332
   35MOL   C43933147   2.459   5.690   3.191  0.6840 -0.7824 -0.0029
   35MOL   C44033148   2.384   5.809   3.184 -0.1734 -0.6472 -0.4314
   35MOL   C44133149   2.270   5.815   3.104 -0.3960  0.2173 -0.0042
   35MOL   C44233150   2.182   5.940   3.113  0.1065  0.1295  0.0866
   35MOL   N44333151   2.079   5.920   3.218 -0.2049  0.0456 -0.1663
   35MOL   C44433152   1.955   5.895   3.181 -0.3268 -0.3047 -0.7551
   35MOL   O44533153   1.903   5.890   3.070  0.2859 -0.3407  0.1366
   35MOL   C44633154   1.856   5.865   3.293  0.3852 -0.1654  0.0173
   35MOL   C44733155   1.823   5.714   3.309 -0.0550  0.0083 -0.0910
   35MOL   C44833156   1.785   5.681   3.459 -0.7530 -0.2613  0.2381
   35MOL   C44933157   1.750   5.534   3.470  0.2177 -0.6768 -0.2411
   35MOL   C45033158   1.714   5.480   3.609  0.1071  0.4213 -0.0079
   35MOL   C45133159   1.582   5.532   3.662  0.2807  0.8104  0.2341
   35MOL   C45233160   1.548   5.463   3.793 -0.6701 -0.3386 -0.3193
   35MOL   C45333161   1.461   5.547   3.889  0.4908 -0.0201  0.0345
   35MOL   C45433162   1.311   5.557   3.839 -0.1689 -0.2859 -0.4699
   35MOL   O45533163   1.249   5.461   3.801 -0.1857 -0.1108 -0.2271
   35MOL   H45633164   1.941   5.720   2.946  0.6461  0.6722  1.8903
   35MOL   H45733165   2.127   5.801   2.863  0.2952  0.7168  0.0328
   35MOL   H45833166   2.193   5.657   2.815 -1.7220  0.9515 -0.9500
   35MOL   H45933167   2.320   5.513   2.945 -2.7963  0.1953 -0.6249
   35MOL   H46033168   2.496   5.497   3.110  0.8562 -0.0418  1.6542
   35MOL   H46133169   2.548   5.695   3.252 -0.1782  1.0465  1.1510
   35MOL   H46233170   2.416   5.891   3.247 -0.3901 -0.6732 -0.2882
   35MOL   H46333171   2.145   5.961   3.013 -0.7445 -0.8781  0.1803
   35MOL   H46433172   2.242   6.023   3.150  2.4292 -1.7201  0.6187
   35MOL   H46533173   2.099   5.925   3.316 -2.2461 -0.0375  0.2671
   35MOL   H46633174   1.769   5.920   3.258  0.9907  0.1959 -0.9479
   35MOL   H46733175   1.886   5.905   3.390 -0.2207 -0.3176  0.2727
   35MOL   H46833176   1.913   5.659   3.281 -1.3910 -1.5968 -1.3549
   35MOL   H46933177   1.746   5.691   3.236 -0.5243  1.1250  0.0459
   35MOL   H47033178   1.873   5.689   3.523  0.6689  0.7183 -1.7584
   35MOL   H47133179   1.711   5.745   3.506 -2.7032  0.1964 -3.2929
   35MOL   H47233180   1.679   5.515   3.390  1.1208 -0.6913 -1.0491
   35MOL   H47333181   1.838   5.480   3.436  1.1991 -0.1204  1.3500
   35MOL   H47433182   1.712   5.371   3.606  2.2194  0.3790 -0.6717
   35MOL   H47533183   1.794   5.508   3.677  0.7245  0.3131 -0.6813
   35MOL   H47633184   1.495   5.522   3.597 -0.0199  0.9072  0.6193
   35MOL   H47733185   1.584   5.640   3.680  0.3066  0.6938  0.9308
   35MOL   H47833186   1.495   5.369   3.777  0.9378 -0.7697 -3.3528
   35MOL   H47933187   1.638   5.434   3.846 -1.8003  0.7188  2.2625
   35MOL   H48033188   1.452   5.498   3.986 -0.7944 -0.9332 -0.5275
   35MOL   H48133189   1.494   5.651   3.898  0.1756  0.3273 -2.4083
   35MOL   N48233190   1.252   5.675   3.863 -0.1271 -0.1759 -0.4200
   35MOL   C48333191   1.107   5.703   3.868 -0.4695 -0.4420 -0.1199
   35MOL   C48433192   1.059   5.732   4.016  0.3968 -0.3272  0.4229
   35MOL   C48533193   1.009   5.626   4.088  0.0869  0.0460  0.7317
   35MOL   C48633194   0.947   5.639   4.210 -0.0518 -0.2241 -0.2680
   35MOL   C48733195   0.945   5.763   4.274  0.1236 -0.1122  0.0187
   35MOL   C48833196   0.993   5.874   4.205  0.7783 -0.3801 -0.4058
   35MOL   C48933197   1.049   5.860   4.078  0.0710 -0.2379  0.2416
   35MOL   C49033198   1.112   5.980   4.017 -0.1867 -0.5027 -0.2854
   35MOL   N49133199   1.226   6.017   4.099 -0.0696  0.4843 -0.3079
   35MOL   C49233200   1.348   6.003   4.056  0.4264  0.5077 -0.3634
   35MOL   O49333201   1.388   5.971   3.944  0.2886  0.0145  0.0615
   35MOL   C49433202   1.462   6.048   4.157 -0.4733  0.6563 -0.2301
   35MOL   C49533203   1.524   5.933   4.238  0.1906  0.0641  0.4742
   35MOL   C49633204   1.430   5.828   4.291 -0.1364 -0.7119  1.1786
   35MOL   C49733205   1.503   5.698   4.322  0.1165  0.1599 -0.4764
   35MOL   C49833206   1.419   5.593   4.398  0.2165 -0.1159 -0.0632
   35MOL   C49933207   1.480   5.454   4.417  0.1857 -0.5928 -0.2787
   35MOL   C50033208   1.583   5.453   4.535  0.1324  0.2259  0.3400
   35MOL   C50133209   1.674   5.334   4.546 -0.2427  0.3921  0.1015
   35MOL   C50233210   1.609   5.195   4.570 -0.2542 -0.7839  0.2385
   35MOL   O50333211   1.609   5.113   4.482  0.3242  0.0796  0.0666
   35MOL   H50433212   1.309   5.742   3.910  0.8479 -0.0979 -1.6785
   35MOL   H50533213   1.072   5.783   3.802 -1.4226 -0.3531  0.4847
   35MOL   H50633214   1.055   5.613   3.833 -0.2845 -1.6100  2.4531
   35MOL   H50733215   1.000   5.526   4.046 -0.2245  0.7371 -0.8730
   35MOL   H50833216   0.913   5.546   4.254 -1.7398  0.6267  0.2573
   35MOL   H50933217   0.901   5.777   4.372  0.7043  0.1845  0.2396
   35MOL   H51033218   0.987   5.970   4.255 -0.5376 -1.0506  0.7621
   35MOL   H51133219   1.036   6.059   4.016 -0.4949 -0.8060 -0.7864
   35MOL   H51233220   1.145   5.960   3.916 -4.4656 -0.3074 -1.8186
   35MOL   H51333221   1.205   6.051   4.191 -0.2650  0.6055 -0.3971
   35MOL   H51433222   1.411   6.116   4.225 -0.0023  1.1686 -0.3805
   35MOL   H51533223   1.547   6.097   4.109 -0.9851  0.2056 -1.6238
   35MOL   H51633224   1.589   5.962   4.320  2.5834 -2.0870 -0.6043
   35MOL   H51733225   1.592   5.886   4.166 -1.7047 -1.5891 -0.2836
   35MOL   H51833226   1.374   5.858   4.380  0.2944  1.5484  0.7149
   35MOL   H51933227   1.352   5.811   4.217 -0.6268  0.2673  1.4578
   35MOL   H52033228   1.539   5.660   4.226  0.5525  0.0217 -0.2596
   35MOL   H52133229   1.591   5.707   4.386 -0.0848 -2.6556  0.2625
   35MOL   H52233230   1.390   5.637   4.493 -0.5857  0.2706 -0.4742
   35MOL   H52333231   1.322   5.591   4.349 -0.9028 -1.8874  2.1447
   35MOL   H52433232   1.529   5.420   4.326  0.2900 -0.9475 -0.0933
   35MOL   H52533233   1.400   5.382   4.438 -0.3119 -0.3201 -1.2412
   35MOL   H52633234   1.648   5.539   4.526 -1.4107  1.6108  2.0623
   35MOL   H52733235   1.530   5.453   4.631  0.4276 -1.8559  0.5320
   35MOL   H52833236   1.748   5.340   4.626  0.0727 -1.2854 -0.0616
   35MOL   H52933237   1.741   5.335   4.460  1.2465 -2.3007  1.1920
   35MOL   N53033238   1.566   5.171   4.694 -0.0165  0.4906  0.0377
   35MOL   C53133239   1.515   5.047   4.751  0.0097  0.3625 -0.5121
   35MOL   C53233240   1.402   5.053   4.843 -0.5336 -0.4756  0.8913
   35MOL   C53333241   1.407   4.978   4.962 -0.1035 -0.1958  0.4257
   35MOL   C53433242   1.297   4.967   5.045 -0.1432  0.3790  0.4791
   35MOL   C53533243   1.180   5.042   5.016  0.4269 -0.4636 -0.0480
   35MOL   C53633244   1.174   5.128   4.898  0.0128  0.2959  0.4321
   35MOL   C53733245   1.284   5.131   4.808 -0.3387  0.1981  0.3075
   35MOL   C53833246   1.278   5.210   4.676 -0.1653  0.6770  0.2274
   35MOL   N53933247   1.150   5.261   4.641  0.6849 -0.0331  0.1643
   35MOL   C54033248   1.125   5.387   4.595  0.3539 -0.4132  0.0976
   35MOL   O54133249   1.210   5.473   4.567 -0.0442  0.0750 -0.3711
   35MOL   C54233250   0.972   5.418   4.578 -0.2651 -0.1238  0.3177
   35MOL   C54333251   0.917   5.554   4.626 -0.1712 -0.3084  0.6262
   35MOL   C54433252   0.907   5.577   4.773 -0.0245 -0.5048  0.4164
   35MOL   C54533253   0.846   5.716   4.806 -0.1376 -0.1028 -0.8409
   35MOL   C54633254   0.803   5.717   4.953  0.0039 -0.0931  0.0140
   35MOL   C54733255   0.711   5.834   4.988  0.4139 -0.7201  0.2523
   35MOL   C54833256   0.660   5.802   5.126  1.0339 -0.3817 -0.0511
   35MOL   C54933257   0.563   5.911   5.169 -0.2598  0.1416  0.1421
   35MOL   C55033258   0.488   5.881   5.293 -0.0162  0.0717 -0.4648
   35MOL   O55133259   0.485   5.767   5.337  0.3335 -0.6226 -0.0986
   35MOL   H55233260   1.592   5.243   4.760 -1.1531  0.6734  0.2983
   35MOL   H55333261   1.602   4.996   4.792  0.0965  0.6297 -0.3628
   35MOL   H55433262   1.482   4.989   4.665 -1.9902 -0.4566  0.7839
   35MOL   H55533263   1.497   4.921   4.983 -0.0948 -0.5171 -0.4614
   35MOL   H55633264   1.300   4.901   5.131  1.2736 -1.0800 -0.6630
   35MOL   H55733265   1.096   5.045   5.084 -0.1257  0.2022 -0.7443
   35MOL   H55833266   1.087   5.189   4.879  0.1361 -0.0877 -1.5162
   35MOL   H55933267   1.317   5.147   4.596  2.5520 -0.3681  2.3241
   35MOL   H56033268   1.351   5.289   4.696  4.3216 -3.2615  0.1933
   35MOL   H56133269   1.071   5.200   4.656  1.8659 -1.4408  0.8078
   35MOL   H56233270   0.921   5.345   4.640  0.1082 -0.3903  0.3078
   35MOL   H56333271   0.956   5.401   4.472 -0.7798  2.6054 -0.1014
   35MOL   H56433272   0.820   5.575   4.581  1.3250  2.6203 -1.4519
   35MOL   H56533273   0.985   5.628   4.582  1.3120 -2.1467 -0.2306
   35MOL   H56633274   0.826   5.514   4.809  0.2757  0.1971  2.3717
   35MOL   H56733275   1.003   5.554   4.819  0.2883  0.8085  0.4309
   35MOL   H56833276   0.920   5.789   4.773  2.1316 -1.6147  0.6652
   35MOL   H56933277   0.765   5.734   4.737 -0.9907  0.6803  0.3385
   35MOL   H57033278   0.749   5.624   4.967  0.6716 -0.5193 -0.2082
   35MOL   H57133279   0.890   5.719   5.018  0.2917  1.8906 -0.3807
   35MOL   H57233280   0.633   5.838   4.912 -0.4396 -1.4459  1.0838
   35MOL   H57333281   0.763   5.930   4.995 -2.6215  1.0385 -0.0978
   35MOL   H57433282   0.608   5.706   5.124  0.5493 -0.1590  1.4884
   35MOL   H57533283   0.735   5.784   5.203  2.8500  1.0423 -1.4248
   35MOL   H57633284   0.490   5.930   5.090  0.8106  0.0457 -0.8872
   35MOL   H57733285   0.619   6.000   5.199  1.3777 -0.9280  0.3195
   35MOL   N57833286   0.414   5.979   5.342  0.0334  0.1233  0.3474
   35MOL   C57933287   0.341   5.961   5.464  0.0046  0.2082  0.5431
   35MOL   C58033288   0.329   6.088   5.549 -0.3558 -0.7073  0.2156
   35MOL   C58133289   0.436   6.122   5.641 -0.0479  0.0322  0.6061
   35MOL   C58233290   0.419   6.236   5.719 -0.5475  0.2178 -0.0125
   35MOL   C58333291   0.311   6.322   5.691 -0.2334 -1.0346  0.9754
   35MOL   C58433292   0.213   6.296   5.602  0.0618 -0.6145  0.8410
   35MOL   C58533293   0.218   6.175   5.532 -0.9575 -0.2136  0.4144
   35MOL   C58633294   0.093   6.126   5.463 -0.2883 -0.1137  0.5942
   35MOL   N58733295   0.100   6.106   5.322  0.1799 -0.6897 -0.2198
   35MOL   C58833296   0.036   6.010   5.254  0.2538 -0.3664  0.5316
   35MOL   O58933297   7.755   5.928   5.306  0.4048  0.4773 -0.0204
   35MOL   C59033298   0.059   6.009   5.104 -0.2624 -0.2999  0.1596
   35MOL   C59133299   0.070   5.864   5.049  0.4960  0.2902  0.4775
   35MOL   C59233300   0.098   5.860   4.898  0.1839  0.8719 -0.2068
   35MOL   C59333301   0.139   5.723   4.851 -0.7259  0.1367  0.2771
   35MOL   C59433302   0.295   5.708   4.864  0.1946  0.3147  0.3103
   35MOL   C59533303   0.339   5.564   4.843 -0.3696 -0.1912 -0.4570
   35MOL   C59633304   0.318   5.474   4.961  0.0776 -0.0680  0.5339
   35MOL   C59733305   0.395   5.510   5.090  0.0329  0.2267 -0.1879
   35MOL   C59833306   0.367   5.419   5.214  0.1381  0.6445 -0.1538
   35MOL   O59933307   0.342   5.298   5.199 -0.0944 -0.1010  0.3614
   35MOL   H60033308   0.417   6.068   5.294 -0.0156 -2.2067 -4.2717
   35MOL   H60133309   0.394   5.899   5.537 -0.6075 -0.2531  0.5971
   35MOL   H60233310   0.247   5.918   5.431  0.0418 -0.7125  1.5820
   35MOL   H60333311   0.512   6.049   5.662 -0.7215 -0.2463  2.1625
   35MOL   H60433312   0.492   6.261   5.794 -0.0207 -2.3789  0.3875
   35MOL   H60533313   0.298   6.403   5.762  1.1230 -0.0887  0.1479
   35MOL   H60633314   0.136   6.370   5.583  0.7362 -0.1475 -0.0638
   35MOL   H60733315   0.016   6.202   5.471 -1.7519 -1.1174 -2.9935
   35MOL   H60833316   0.045   6.040   5.511 -1.7662 -0.0192 -0.6466
   35MOL   H60933317   0.165   6.162   5.269 -0.2636  0.2697  0.2461
   35MOL   H61033318   0.147   6.069   5.083 -0.8722  1.0129  1.3054
   35MOL   H61133319   7.759   6.050   5.058  0.3433  0.7978 -0.0468
   35MOL   H61233320   7.768   5.808   5.069  1.5412 -1.1359  1.4320
   35MOL   H61333321   0.149   5.813   5.105  0.7523  1.1571  0.9181
   35MOL   H61433322   0.006   5.896   4.850 -0.1455  2.0048  1.2358
   35MOL   H61533323   0.168   5.932   4.855  0.2641  0.0584 -1.4626
   35MOL   H61633324   0.080   5.649   4.906 -1.4454 -0.7577 -1.6498
   35MOL   H61733325   0.113   5.713   4.746  1.0866 -0.1341 -0.1530
   35MOL   H61833326   0.340   5.771   4.787  0.2015  1.6218  1.3574
   35MOL   H61933327   0.341   5.732   4.960 -0.5746 -0.7233  0.9416
   35MOL   H62033328   0.444   5.571   4.818  0.4007 -0.5122  2.5448
   35MOL   H62133329   0.285   5.523   4.757 -2.8469  0.9428  0.5022
   35MOL   H62233330   0.211   5.460   4.981  0.5649 -2.9824  1.2402
   35MOL   H62333331   0.362   5.381   4.927 -0.8376  0.0234 -0.9714
   35MOL   H62433332   0.502   5.497   5.074  0.3492  1.5248  0.7788
   35MOL   H62533333   0.368   5.607   5.133  2.1036  1.3962 -1.4422
   35MOL   N62633334   0.375   5.470   5.334 -0.6168  0.1415 -0.4373
   35MOL   C62733335   0.369   5.396   5.457  1.0552 -0.9864 -1.2095
   35MOL   C62833336   0.499   5.325   5.482 -0.2881  0.5198  0.7372
   35MOL   C62933337   0.519   5.197   5.424  0.1814  0.6021  0.7289
   35MOL   C63033338   0.631   5.117   5.450  0.4507 -0.7296  0.5978
   35MOL   C63133339   0.736   5.179   5.517  0.5758  1.0779 -0.0953
   35MOL   C63233340   0.732   5.317   5.549 -0.4842  0.1932 -0.4818
   35MOL   C63333341   0.610   5.390   5.544  0.0260  0.1084 -0.2427
   35MOL   C63433342   0.612   5.533   5.595 -1.0223 -1.3387 -0.5358
   35MOL   N63533343   0.512   5.564   5.703  0.1288 -0.4004  0.2270
   35MOL   C63633344   0.487   5.681   5.759 -0.4008 -1.0748 -0.2048
   35MOL   O63733345   0.535   5.786   5.711  0.2595 -0.3382  0.5040
   35MOL   C63833346   0.384   5.679   5.869 -0.0157 -0.5112  0.1171
   35MOL   C63933347   0.260   5.768   5.845 -0.5759 -0.2203  0.2812
   35MOL   C64033348   0.128   5.689   5.822  0.1176  0.0482  0.2097
   35MOL   C64133349   0.132   5.614   5.684 -0.0214 -1.0689 -0.4559
   35MOL   C64233350   0.014   5.632   5.597 -0.3279 -0.0908  0.2486
   35MOL   C64333351   0.011   5.577   5.460  0.0300  0.0701  0.2821
   35MOL   C64433352   0.017   5.419   5.463  0.9458  0.0099  0.5524
   35MOL   C64533353   0.008   5.350   5.328 -0.4666 -0.8621 -0.4098
   35MOL   C64633354   0.014   5.192   5.338  0.2941  0.4307 -0.0161
   35MOL   O64733355   7.716   5.128   5.397 -0.8910 -0.1425  0.3543
   35MOL   H64833356   0.417   5.562   5.335 -1.5147  0.6666 -4.1766
   35MOL   H64933357   0.294   5.319   5.439 -2.2244  2.3220 -2.1306
   35MOL   H65033358   0.332   5.453   5.542 -0.1257  1.9902 -3.6375
   35MOL   H65133359   0.436   5.145   5.379  1.4844 -1.0213  0.1639
   35MOL   H65233360   0.626   5.014   5.418  2.3030 -0.8627  0.6834
   35MOL   H65333361   0.820   5.121   5.554  0.4117  1.2059  0.4815
   35MOL   H65433362   0.815   5.369   5.594 -1.4984  0.1219  1.5194
   35MOL   H65533363   0.601   5.604   5.512 -1.0989 -1.3589 -0.5421
   35MOL   H65633364   0.715   5.545   5.629 -1.4596  0.7779  0.1650
   35MOL   H65733365   0.461   5.483   5.736  2.7324 -1.2169  2.4859
   35MOL   H65833366   0.446   5.717   5.950 -1.0178  0.3918  0.4781
   35MOL   H65933367   0.347   5.577   5.880 -1.1977 -0.1191 -0.0687
   35MOL   H66033368   0.285   5.842   5.770 -0.2646 -1.3276 -0.7217
   35MOL   H66133369   0.246   5.814   5.943  1.5398  1.8761 -0.3677
   35MOL   H66233370   0.106   5.614   5.899 -1.1310  0.0739 -0.1061
   35MOL   H66333371   0.042   5.756   5.832 -0.7412 -0.7845 -1.3519
   35MOL   H66433372   0.205   5.655   5.613  0.5894 -3.3894 -1.2010
   35MOL   H66533373   0.141   5.509   5.710 -1.8019 -0.8086  1.3032
   35MOL   H66633374   7.718   5.590   5.649 -1.1019  2.5077  1.1233
   35MOL   H66733375   0.008   5.739   5.576  0.5385 -0.2836 -1.0935
   35MOL   H66833376   0.098   5.612   5.404 -0.0838 -1.5460 -0.9348
   35MOL   H66933377   7.706   5.611   5.418 -0.2686 -1.0636  0.0230
   35MOL   H67033378   0.100   5.392   5.528  1.1545  0.8682  0.6362
   35MOL   H67133379   7.722   5.376   5.517  1.5586  0.5791  1.9889
   35MOL   H67233380   0.094   5.387   5.273  0.2896 -0.1757  1.1820
   35MOL   H67333381   7.711   5.383   5.273 -0.0344  1.4102  0.2354
   35MOL   N67433382   0.115   5.134   5.265 -0.8007 -0.8086 -0.2718
   35MOL   C67533383   0.135   4.996   5.228  0.1984 -0.0036  0.4874
   35MOL   C67633384   0.136   4.974   5.079 -0.2319 -0.6507  0.9748
   35MOL   C67733385   0.016   4.962   5.010 -0.2325 -0.1716 -1.0732
   35MOL   C67833386   0.022   4.953   4.869  0.2242 -0.3633  0.1512
   35MOL   C67933387   0.137   4.930   4.795 -0.7589  1.0587 -0.7601
   35MOL   C68033388   0.259   4.938   4.864  0.1091 -0.0005  0.3569
   35MOL   C68133389   0.260   4.963   5.003 -0.3535 -0.7011  0.1568
   35MOL   C68233390   0.397   4.962   5.079  0.5759 -0.2360 -0.7895
   35MOL   N68333391   0.437   4.831   5.124  0.0068  0.0550  0.4366
   35MOL   C68433392   0.515   4.744   5.060  0.1692  0.7157 -0.0748
   35MOL   O68533393   0.587   4.761   4.956  0.2967  0.1508  0.0393
   35MOL   C68633394   0.510   4.596   5.110 -0.1829  0.0597 -0.1179
   35MOL   C68733395   0.657   4.543   5.143 -0.2179  0.7207  0.3308
   35MOL   C68833396   0.760   4.638   5.220 -0.4255 -0.3825  0.3308
   35MOL   C68933397   0.888   4.563   5.251 -0.0706 -0.2175  0.1576
   35MOL   C69033398   1.008   4.637   5.320 -0.6896  0.3621 -0.3899
   35MOL   C69133399   1.143   4.563   5.273  0.1939  0.1959  1.1084
   35MOL   C69233400   1.268   4.603   5.355  0.1508 -0.9806 -0.0157
   35MOL   C69333401   1.390   4.598   5.263  0.9891 -0.4904 -0.3269
   35MOL   C69433402   1.516   4.569   5.349  0.3234  0.2663  0.6707
   35MOL   O69533403   1.620   4.633   5.337  0.2102  0.4015 -0.1694
   35MOL   H69633404   0.172   5.206   5.222  0.5724 -1.5910  0.2216
   35MOL   H69733405   0.056   4.924   5.254 -0.7422  0.3789 -1.2222
   35MOL   H69833406   0.222   4.951   5.275  1.3168  1.0078 -0.5829
   35MOL   H69933407   7.710   4.976   5.058 -1.2831 -0.8117 -2.9117
   35MOL   H70033408   7.719   4.943   4.815  0.5773 -0.2134 -0.4828
   35MOL   H70133409   0.141   4.906   4.690  0.1570 -2.4296  0.0017
   35MOL   H70233410   0.352   4.932   4.809  0.1311  3.8458 -0.1667
   35MOL   H70333411   0.392   5.040   5.155 -2.0261  0.5934 -1.7554
   35MOL   H70433412   0.469   4.996   5.004 -0.4536  0.7505 -1.3560
   35MOL   H70533413   0.397   4.799   5.211  1.4943  0.7960  1.4130
   35MOL   H70633414   0.467   4.537   5.030  1.3416 -2.1998  0.7019
   35MOL   H70733415   0.460   4.588   5.207 -2.7065  1.4350 -1.2460
   35MOL   H70833416   0.696   4.520   5.044 -2.4268  1.9274 -0.8621
   35MOL   H70933417   0.652   4.448   5.197  0.8509  0.2037 -0.4646
   35MOL   H71033418   0.776   4.730   5.163 -1.3195 -0.3856  0.0672
   35MOL   H71133419   0.705   4.667   5.310  0.3472  1.4957  0.2187
   35MOL   H71233420   0.862   4.471   5.304 -0.1686  1.2104  2.6616
   35MOL   H71333421   0.924   4.532   5.153 -2.4097 -3.0462  0.1045
   35MOL   H71433422   1.002   4.743   5.296  1.6374  0.7074  0.4493
   35MOL   H71533423   1.004   4.640   5.429 -1.4010 -1.2179 -0.3596
   35MOL   H71633424   1.152   4.590   5.168  0.5576 -1.8963  0.5864
   35MOL   H71733425   1.125   4.456   5.282  0.2135  0.0161 -0.7231
   35MOL   H71833426   1.264   4.531   5.436 -0.8973  1.2329  1.9876
   35MOL   H71933427   1.250   4.704   5.394  0.1587  0.7006 -4.0670
   35MOL   H72033428   1.399   4.695   5.214 -0.6258 -1.3734 -2.4717
   35MOL   H72133429   1.377   4.530   5.179  1.1006 -0.1639 -0.6092
   35MOL   N72233430   1.497   4.466   5.429  0.3395  0.5931 -0.1421
   35MOL   C72333431   1.596   4.421   5.536  0.4732  0.1140  0.7573
   35MOL   C72433432   1.518   4.384   5.662  0.0782  0.8514 -0.0664
   35MOL   C72533433   1.423   4.478   5.702  0.3890  0.1674 -0.4085
   35MOL   C72633434   1.322   4.443   5.795 -0.3111  0.2388  0.0513
   35MOL   C72733435   1.324   4.320   5.859 -1.1502  0.2551 -0.1782
   35MOL   C72833436   1.423   4.231   5.828 -0.5527 -0.3883  0.6851
   35MOL   C72933437   1.510   4.253   5.720 -0.5108 -0.0100  0.2599
   35MOL   C73033438   1.596   4.133   5.669  0.1662 -0.2045  0.1495
   35MOL   N73133439   1.539   4.074   5.545  0.2942  0.8149 -0.5049
   35MOL   C73233440   1.580   3.974   5.476  0.3827  0.5602 -0.2731
   35MOL   O73333441   1.695   3.932   5.487  0.2029  0.0526 -0.1808
   35MOL   C73433442   1.483   3.910   5.372  0.1392  0.3595  0.2591
   35MOL   C73533443   1.526   3.788   5.295 -0.1850 -0.1396  0.0150
   35MOL   C73633444   1.427   3.742   5.183 -0.5200 -0.3060 -0.6354
   35MOL   C73733445   1.501   3.632   5.108 -0.5536  0.0079  0.1563
   35MOL   C73833446   1.424   3.564   5.001  0.2356  0.2594 -0.5213
   35MOL   C73933447   1.509   3.453   4.930  0.4315  0.4082  0.4891
   35MOL   C74033448   1.548   3.328   5.007 -0.7851  0.2275 -0.3033
   35MOL   C74133449   1.660   3.242   4.938  0.3698  0.4502 -0.6672
   35MOL   C74233450   1.618   3.165   4.816  0.8046  0.1131 -0.4521
   35MOL   O74333451   1.508   3.184   4.771 -0.1763 -0.0803  0.1350
   35MOL   H74433452   1.411   4.413   5.425  0.3511  0.4139  1.4920
   35MOL   H74533453   1.671   4.493   5.565  0.1497  0.8158 -0.1132
   35MOL   H74633454   1.649   4.333   5.499  0.3610  1.2109 -2.1765
   35MOL   H74733455   1.405   4.571   5.650 -0.4571 -0.2659 -0.9036
   35MOL   H74833456   1.242   4.513   5.811 -1.1009 -0.7670  0.5348
   35MOL   H74933457   1.246   4.309   5.933 -1.7981 -0.6523 -0.9940
   35MOL   H75033458   1.427   4.140   5.887 -1.1869  0.2009  1.6396
   35MOL   H75133459   1.596   4.053   5.742 -0.7458 -1.6810 -1.4251
   35MOL   H75233460   1.697   4.172   5.653 -0.3692  0.6993 -1.1125
   35MOL   H75333461   1.457   4.120   5.508  0.4257  2.3667  1.0766
   35MOL   H75433462   1.457   3.988   5.301 -0.2541  1.4546  1.5863
   35MOL   H75533463   1.389   3.893   5.425 -0.2244  1.4728 -0.0129
   35MOL   H75633464   1.533   3.714   5.375 -0.9825 -1.4682 -1.1191
   35MOL   H75733465   1.626   3.807   5.254 -0.2857  3.5293  1.2849
   35MOL   H75833466   1.332   3.708   5.223 -0.6090 -0.3912 -0.9211
   35MOL   H75933467   1.405   3.826   5.117  0.0288 -0.0954 -0.5582
   35MOL   H76033468   1.594   3.670   5.064 -0.6485  0.4068  0.2961
   35MOL   H76133469   1.526   3.557   5.183 -0.7276 -0.6740 -0.4592
   35MOL   H76233470   1.331   3.522   5.039 -1.7276  1.9749 -3.2315
   35MOL   H76333471   1.398   3.641   4.929 -0.5470  0.3049 -0.2033
   35MOL   H76433472   1.589   3.497   4.870 -0.1135  0.0808 -0.4931
   35MOL   H76533473   1.445   3.425   4.846 -0.1845  1.7887  0.4788
   35MOL   H76633474   1.594   3.361   5.101 -4.3081  1.0318  1.2049
   35MOL   H76733475   1.459   3.268   5.024  0.6617 -2.0080 -0.3891
   35MOL   H76833476   1.743   3.310   4.918 -1.7922  3.5089  0.4110
   35MOL   H76933477   1.695   3.166   5.008 -1.3482  0.4300  0.1961
   35MOL   N77033478   1.703   3.079   4.767  0.1188  0.2257 -0.3887
   35MOL   C77133479   1.670   2.981   4.668 -0.0228  0.0677  0.0204
   35MOL   C77233480   1.623   2.844   4.724 -0.2252  0.0273 -0.8194
   35MOL   C77333481   1.728   2.761   4.766 -0.4179 -0.7322 -0.7355
   35MOL   C77433482   1.702   2.641   4.834  0.5394 -0.2266  0.0973
   35MOL   C77533483   1.569   2.598   4.857 -0.6269 -0.5337 -0.5784
   35MOL   C77633484   1.467   2.675   4.797 -0.3961  0.1428 -0.4880
   35MOL   C77733485   1.487   2.799   4.730 -0.0428 -0.7199 -0.6482
   35MOL   C77833486   1.374   2.873   4.671 -0.1249 -0.2677 -0.4564
   35MOL   N77933487   1.332   2.984   4.751  0.3825  0.6637 -0.4439
   35MOL   C78033488   1.207   3.001   4.794 -0.7343  0.7890 -0.5003
   35MOL   O78133489   1.128   2.904   4.798 -0.2440 -0.0124  0.4971
   35MOL   C78233490   1.179   3.140   4.850  0.0698 -0.1551  0.6748
   35MOL   C78333491   1.056   3.192   4.790 -0.8566 -0.4494 -0.1127
   35MOL   C78433492   0.984   3.305   4.865  0.1518  0.0942 -1.0628
   35MOL   C78533493   1.043   3.442   4.819  0.3826 -0.1584  0.0715
   35MOL   C78633494   0.983   3.560   4.898 -0.6068  0.3432  0.6750
   35MOL   C78733495   1.071   3.684   4.874 -0.6695  0.5997 -0.0629
   35MOL   C78833496   1.013   3.821   4.907 -0.4726 -0.0062 -0.2655
   35MOL   C78933497   1.054   3.930   4.805  0.1835  0.4349 -0.3731
   35MOL   C79033498   1.159   4.026   4.866 -0.1697  0.7158  0.0437
   35MOL   O79133499   1.135   4.077   4.976  0.0072 -0.3255 -0.2201
   35MOL   H79233500   1.780   3.049   4.825  0.3171 -0.7442 -1.1191
   35MOL   H79333501   1.599   3.017   4.594  0.2341  0.5503  0.0069
   35MOL   H79433502   1.757   2.967   4.604  0.9462  1.8991  0.8939
   35MOL   H79533503   1.829   2.788   4.740 -0.8595  1.0951 -0.6031
   35MOL   H79633504   1.782   2.573   4.859  1.5730  1.1824  0.7233
   35MOL   H79733505   1.545   2.504   4.904 -0.0218  0.2783  1.3911
   35MOL   H79833506   1.366   2.640   4.810 -0.8775  1.5742 -0.2409
   35MOL   H79933507   1.290   2.806   4.654  1.0440 -0.9481 -4.1268
   35MOL   H80033508   1.399   2.902   4.568 -0.0496  2.6325  0.3337
   35MOL   H80133509   1.395   3.063   4.747  2.9342 -1.2954 -0.1296
   35MOL   H80233510   1.265   3.206   4.839 -1.4994  1.5881 -1.3867
   35MOL   H80333511   1.168   3.124   4.958 -0.5923  0.5251  0.7143
   35MOL   H80433512   0.985   3.110   4.778  0.4363 -1.2565 -2.4886
   35MOL   H80533513   1.073   3.218   4.686 -1.5246  0.9715  0.1106
   35MOL   H80633514   0.992   3.274   4.969 -0.2744 -0.9808 -1.3454
   35MOL   H80733515   0.876   3.291   4.861  0.0812 -0.3637  1.4966
   35MOL   H80833516   1.152   3.428   4.823  0.0892 -2.8105 -0.4939
   35MOL   H80933517   1.014   3.463   4.716 -1.1534 -0.1212  0.5006
   35MOL   H81033518   0.891   3.589   4.847  1.4218  1.4974 -2.4875
   35MOL   H81133519   0.977   3.537   5.004 -0.8889  2.1719  1.0809
   35MOL   H81233520   1.121   3.681   4.778 -1.6437  1.3266 -0.5951
   35MOL   H81333521   1.152   3.670   4.947 -1.7920 -0.3052  1.0436
   35MOL   H81433522   1.037   3.850   5.010 -0.4833 -0.7997 -0.0393
   35MOL   H81533523   0.905   3.834   4.904 -0.5042 -0.4344 -1.2886
   35MOL   H81633524   0.965   3.993   4.799  1.3514  1.9999 -1.6753
   35MOL   H81733525   1.057   3.901   4.700 -0.8657 -0.8102 -0.0785
   35MOL   N81833526   1.277   4.036   4.798 -0.1636  0.5244 -0.6791
   35MOL   C81933527   1.390   4.117   4.834 -0.5418 -0.4455 -0.7358
   35MOL   C82033528   1.493   4.065   4.933  0.6868  0.5312 -0.0459
   35MOL   C82133529   1.588   3.972   4.888  0.5169  0.1337 -0.4141
   35MOL   C82233530   1.693   3.924   4.970 -0.0950  0.5602  0.8012
   35MOL   C82333531   1.708   3.989   5.093  0.6076  0.0958 -0.5135
   35MOL   C82433532   1.619   4.092   5.137  0.4762  0.4241  0.5957
   35MOL   C82533533   1.512   4.133   5.053 -0.2859 -0.1037 -0.5211
   35MOL   C82633534   1.440   4.254   5.112 -0.3745  0.1813  0.2780
   35MOL   N82733535   1.304   4.220   5.150  0.3466 -0.4959 -0.4467
   35MOL   C82833536   1.270   4.212   5.284  0.3773 -0.6005 -0.3688
   35MOL   O82933537   1.355   4.229   5.372  0.0613  0.3711  0.3207
   35MOL   C83033538   1.130   4.170   5.317  0.1379  0.7045 -0.2594
   35MOL   C83133539   1.095   4.160   5.471  0.0160  0.5104  0.0977
   35MOL   C83233540   1.065   4.292   5.541  0.3123 -0.3930  0.6932
   35MOL   C83333541   1.007   4.284   5.687 -0.3257 -0.3205  0.6448
   35MOL   C83433542   0.861   4.265   5.698  0.3787  0.2576 -0.1539
   35MOL   C83533543   0.771   4.385   5.675  0.2716  0.3246  0.8680
   35MOL   C83633544   0.615   4.360   5.675  0.2118  0.2902 -0.3229
   35MOL   C83733545   0.564   4.319   5.819  0.1587 -0.0734  0.0212
   35MOL   C83833546   0.473   4.409   5.900  0.1940  0.1091 -1.4114
   35MOL   O83933547   0.379   4.461   5.845  0.2487 -0.2279 -0.1762
   35MOL   H84033548   1.288   3.992   4.707  0.0053  0.2444 -0.5234
   35MOL   H84133549   1.437   4.134   4.737 -0.0042  2.1094 -0.0697
   35MOL   H84233550   1.359   4.218   4.861 -1.1773 -0.5819 -0.9615
   35MOL   H84333551   1.577   3.930   4.789 -0.5001  0.4617 -0.4532
   35MOL   H84433552   1.765   3.849   4.941  0.2165  1.1079  0.1467
   35MOL   H84533553   1.794   3.960   5.152  0.4090 -0.8170 -0.6696
   35MOL   H84633554   1.636   4.131   5.236  0.1181  2.0930  0.0109
   35MOL   H84733555   1.432   4.324   5.028  0.9094 -1.4418 -1.2431
   35MOL   H84833556   1.492   4.304   5.193  2.9142  0.3979 -1.8912
   35MOL   H84933557   1.241   4.172   5.088 -0.4623 -0.6690  0.4966
   35MOL   H85033558   1.114   4.076   5.265 -2.2258  0.4311  0.8981
   35MOL   H85133559   1.053   4.225   5.263 -0.6234 -0.1599 -0.0667
   35MOL   H85233560   1.173   4.109   5.527 -0.3503 -0.5113 -0.2922
   35MOL   H85333561   1.013   4.091   5.492 -0.7368  0.6303 -2.2305
   35MOL   H85433562   1.006   4.357   5.477  1.5723  0.8291  0.7280
   35MOL   H85533563   1.165   4.335   5.556  1.2560 -2.0845 -0.5302
   35MOL   H85633564   1.050   4.196   5.735 -1.7129 -0.8266  1.0043
   35MOL   H85733565   1.044   4.371   5.742  0.6021  1.1554 -2.2324
   35MOL   H85833566   0.832   4.195   5.620  0.0484 -0.0925  0.2771
   35MOL   H85933567   0.848   4.225   5.799  2.6968  0.8148  0.4004
   35MOL   H86033568   0.793   4.431   5.578 -1.0955  1.1120  0.9108
   35MOL   H86133569   0.788   4.470   5.741 -1.3821  0.4441  1.1733
   35MOL   H86233570   0.593   4.284   5.601  0.0807 -0.2979  0.3211
   35MOL   H86333571   0.561   4.450   5.647  0.5099  0.3779 -0.6185
   35MOL   H86433572   0.501   4.232   5.803  0.8560 -0.4938 -0.4208
   35MOL   H86533573   0.647   4.286   5.881 -1.6916 -1.1096  2.0316
   35MOL   N86633574   0.499   4.433   6.029  0.6679 -0.4597  0.1934
   35MOL   C86733575   0.433   4.534   6.110  0.4565 -0.1453  0.4216
   35MOL   C86833576   0.507   4.562   6.237  0.1211  0.9733 -0.2300
   35MOL   C86933577   0.552   4.452   6.314  0.1922  0.4995  0.2184
   35MOL   C87033578   0.632   4.468   6.422  0.6908  0.3896  0.1785
   35MOL   C87133579   0.659   4.597   6.466 -0.7452  0.4953 -0.3789
   35MOL   C87233580   0.604   4.710   6.402  0.2383  0.1688  0.4926
   35MOL   C87333581   0.531   4.690   6.286 -0.5381 -0.0068  0.2613
   35MOL   C87433582   0.468   4.810   6.210  0.2764  0.2716  0.3352
   35MOL   N87533583   0.319   4.813   6.207 -0.4277  0.9586  0.7921
   35MOL   C87633584   0.253   4.839   6.092  0.1730 -0.1642 -0.5579
   35MOL   O87733585   0.308   4.883   5.991  0.6677  0.4042 -0.2673
   35MOL   C87833586   0.103   4.811   6.086  0.5818 -1.0255  0.3032
   35MOL   C87933587   0.019   4.931   6.123 -1.0167 -0.1141 -0.0604
   35MOL   C88033588   0.041   4.990   6.264  0.0782  0.1372  0.0348
   35MOL   C88133589   7.721   5.101   6.308  0.2300  0.4075  0.3942
   35MOL   C88233590   7.762   5.164   6.437 -0.2795  0.0962 -0.4109
   35MOL   C88333591   7.672   5.277   6.482  0.6466  0.2127 -0.0747
   35MOL   C88433592   7.710   5.331   6.620  0.4435  0.4995  0.2345
   35MOL   C88533593   7.612   5.437   6.674  0.7751 -0.5562  0.1508
   35MOL   C88633594   7.603   5.566   6.603  0.9514  0.4643  0.0818
   35MOL   O88733595   7.706   5.630   6.580 -0.7180 -0.0192 -0.0790
   35MOL   H88833596   0.572   4.381   6.074 -0.5245 -2.1772  0.2236
   35MOL   H88933597   0.420   4.623   6.047  0.3408 -0.4428  0.0208
   35MOL   H89033598   0.330   4.516   6.141  0.6659 -1.9243  0.1541
   35MOL   H89133599   0.549   4.354   6.270 -0.1179  0.9759 -0.8270
   35MOL   H89233600   0.680   4.384   6.470  1.0540  0.1102 -0.6665
   35MOL   H89333601   0.713   4.617   6.557  0.2002  1.5583 -1.1467
   35MOL   H89433602   0.630   4.808   6.439 -0.0329 -0.2563  1.8467
   35MOL   H89533603   0.518   4.815   6.113 -1.7584 -0.2209 -0.7782
   35MOL   H89633604   0.505   4.896   6.265  1.6528 -0.2781  0.2677
   35MOL   H89733605   0.267   4.788   6.289  1.8770 -0.5659  1.8239
   35MOL   H89833606   0.074   4.729   6.151  0.0884 -1.5982 -0.6305
   35MOL   H89933607   0.085   4.784   5.982  0.9508 -0.8994  0.2059
   35MOL   H90033608   7.705   4.906   6.102 -1.0175 -1.0933  1.0730
   35MOL   H90133609   0.041   5.001   6.042  3.2906 -2.3387 -1.0022
   35MOL   H90233610   0.047   4.903   6.329  1.1706  0.6141  0.5886
   35MOL   H90333611   0.140   5.036   6.269 -0.7405  2.3734 -2.4898
   35MOL   H90433612   7.720   5.166   6.220 -2.0886 -0.4144 -0.2133
   35MOL   H90533613   7.618   5.066   6.301  0.6287 -1.7787  4.2546
   35MOL   H90633614   7.773   5.085   6.511  0.0202 -1.4656 -2.0761
   35MOL   H90733615   0.074   5.201   6.421 -0.1804 -0.3831 -0.9113
   35MOL   H90833616   7.574   5.230   6.470  0.1651  0.6239  1.9970
   35MOL   H90933617   7.662   5.361   6.413  1.2250 -0.7116 -1.3111
   35MOL   H91033618   7.708   5.259   6.703 -0.8455  0.4351  0.1573
   35MOL   H91133619   0.024   5.363   6.605  0.2394  1.4101  0.7838
   35MOL   H91233620   7.514   5.388   6.675  1.5055 -2.0247  1.3456
   35MOL   H91333621   7.633   5.447   6.780  0.1164  0.1060  0.2288
   35MOL   N91433622   7.473   5.603   6.574  0.1955  0.1180  0.9990
   35MOL   C91533623   7.428   5.735   6.530  0.1513  0.1121  0.1808
   35MOL   C91633624   7.341   5.722   6.403  0.5581  0.7720 -0.2799
   35MOL   C91733625   7.340   5.603   6.326  0.5182  0.2930  0.4681
   35MOL   C91833626   7.264   5.587   6.206 -0.1314 -0.3026  0.2006
   35MOL   C91933627   7.164   5.686   6.184  0.7457  0.0149 -0.5622
   35MOL   C92033628   7.160   5.803   6.261  0.2999 -0.0344 -0.1611
   35MOL   C92133629   7.253   5.826   6.366 -0.7757 -0.2486 -0.4796
   35MOL   C92233630   7.251   5.957   6.447 -0.0467 -0.2652  0.2147
   35MOL   N92333631   7.169   5.944   6.568  1.1451 -0.1455 -0.4063
   35MOL   C92433632   7.201   6.003   6.685  0.1380 -1.0148 -0.5889
   35MOL   O92533633   7.302   6.075   6.693  0.5027 -0.0391 -0.7138
   35MOL   C92633634   7.117   5.988   6.813  0.5510  0.2437  0.6166
   35MOL   C92733635   7.059   6.116   6.874  0.0411 -0.2229 -0.2291
   35MOL   C92833636   6.945   6.169   6.794 -0.0391  0.1733 -0.0809
   35MOL   C92933637   6.900   6.308   6.847 -0.5188  0.5017 -0.7022
   35MOL   C93033638   6.782   6.370   6.771  0.3722 -0.2980  0.5625
   35MOL   C93133639   6.648   6.301   6.768  0.0054 -0.5629  0.7754
   35MOL   C93233640   6.551   6.368   6.668  1.0731 -0.2546  0.1444
   35MOL   C93333641   6.402   6.318   6.680 -0.8162  0.4151 -0.5009
   35MOL   C93433642   6.369   6.173   6.642 -0.3276 -0.2224  0.2046
   35MOL   O93533643   6.422   6.134   6.536  0.4237  0.1423 -0.0754
   35MOL   H93633644   7.405   5.538   6.610  0.5397 -0.2926  0.9204
   35MOL   H93733645   7.379   5.791   6.610  1.1856 -1.4051  1.8959
   35MOL   H93833646   7.513   5.790   6.489 -0.5744  0.8351 -0.3820
   35MOL   H93933647   7.415   5.525   6.339 -0.7551 -1.5070 -2.4143
   35MOL   H94033648   7.272   5.494   6.152  0.6847 -1.2600  1.9282
   35MOL   H94133649   7.100   5.668   6.099 -0.5295 -0.7075  0.5269
   35MOL   H94233650   7.081   5.875   6.250 -0.0472 -0.3491  0.2300
   35MOL   H94333651   7.201   6.033   6.387 -1.1251  0.9848  2.6296
   35MOL   H94433652   7.351   5.999   6.463 -0.3085  1.4877 -2.4898
   35MOL   H94533653   7.100   5.871   6.577  1.3994 -0.3027  0.4036
   35MOL   H94633654   7.183   5.942   6.886  0.4558  0.2355  0.6962
   35MOL   H94733655   7.044   5.908   6.797 -0.2031  0.9705  0.3511
   35MOL   H94833656   7.140   6.187   6.890 -0.0638 -0.2519  0.4518
   35MOL   H94933657   7.025   6.098   6.976 -0.9499  2.7707  0.0289
   35MOL   H95033658   6.976   6.186   6.691  3.7779 -0.6348  0.8521
   35MOL   H95133659   6.860   6.101   6.792 -0.0189  0.1664 -0.7740
   35MOL   H95233660   6.865   6.294   6.949  1.3580  1.7524  0.1219
   35MOL   H95333661   6.984   6.375   6.858 -0.2041 -0.3317  2.7167
   35MOL   H95433662   6.812   6.371   6.666 -0.2535 -3.5225  0.3078
   35MOL   H95533663   6.776   6.477   6.788 -0.6170 -0.0063 -1.4349
   35MOL   H95633664   6.665   6.197   6.741 -0.6326 -0.1848 -1.1608
   35MOL   H95733665   6.607   6.304   6.869 -1.3306  2.8403  0.1960
   35MOL   H95833666   6.585   6.348   6.567  0.5261  1.4916 -0.4053
   35MOL   H95933667   6.569   6.476   6.664  0.9683 -0.3340 -3.1405
   35MOL   H96033668   6.343   6.384   6.616 -0.1164  2.8008  1.2119
   35MOL   H96133669   6.374   6.316   6.786 -0.3461  1.3645 -0.3518
   35MOL   H96233670   6.302   6.108   6.698 -1.9888  1.0958 -0.2232
   36MOL     N133671   7.246   0.612   5.265  0.1031  0.6258 -0.0773
   36MOL     C233672   7.209   0.747   5.301 -0.2586 -0.2858  0.5022
   36MOL     C333673   7.203   0.779   5.449  0.1139 -1.1679  0.2255
   36MOL     C433674   7.327   0.814   5.505  0.1568  0.3561 -0.4989
   36MOL     C533675   7.331   0.843   5.643 -0.0872  1.0060 -0.0015
   36MOL     C633676   7.224   0.827   5.726  0.1416 -0.1190  0.5018
   36MOL     C733677   7.104   0.800   5.666  0.3312 -0.2415  0.0360
   36MOL     C833678   7.087   0.775   5.528 -1.5842 -0.3098 -0.6379
   36MOL     C933679   6.955   0.722   5.475  0.5329  0.0734 -0.5490
   36MOL    N1033680   6.961   0.589   5.419  0.3044  0.0565 -0.1591
   36MOL    C1133681   6.916   0.478   5.475  0.8555 -0.2045  0.5423
   36MOL    O1233682   6.856   0.479   5.584  0.2167  0.5226 -0.1714
   36MOL    C1333683   6.942   0.341   5.399 -0.3401 -0.2198  0.2676
   36MOL    C1433684   6.828   0.235   5.402  0.2561 -0.2119  0.3316
   36MOL    C1533685   6.856   0.084   5.401 -0.1730  0.3883  0.5806
   36MOL    C1633686   6.739   7.779   5.433 -0.0621  0.0476  0.0011
   36MOL    C1733687   6.732   7.755   5.586 -0.5651  0.7798  0.7557
   36MOL    C1833688   6.792   7.622   5.630 -0.3360 -0.2465 -0.4494
   36MOL    C1933689   6.773   7.609   5.779  0.1735 -0.4066 -0.9293
   36MOL    C2033690   6.817   7.476   5.834  0.0299  0.1334  0.0176
   36MOL    C2133691   6.705   7.375   5.821  0.5809 -0.3753 -0.7171
   36MOL    O2233692   6.609   7.388   5.897  0.1689 -0.4021  0.6423
   36MOL    H2333693   7.198   0.587   5.180  1.7778 -0.1913 -0.7994
   36MOL    H2433694   7.269   0.827   5.258 -0.6302 -0.0847  0.3599
   36MOL    H2533695   7.112   0.758   5.254 -0.1142  0.8941  0.4623
   36MOL    H2633696   7.418   0.822   5.447 -0.6314 -1.5410 -2.0780
   36MOL    H2733697   7.430   0.856   5.684  1.6716  0.2398 -3.7823
   36MOL    H2833698   7.229   0.833   5.834 -0.1786  0.2441  0.4943
   36MOL    H2933699   7.018   0.797   5.732  1.2946 -0.4713  1.2947
   36MOL    H3033700   6.919   0.791   5.399  1.2923 -1.5485 -2.4155
   36MOL    H3133701   6.881   0.720   5.555 -0.4075  0.0810 -1.4121
   36MOL    H3233702   7.038   0.568   5.357  1.0020  1.3303  0.2449
   36MOL    H3333703   7.029   0.297   5.448 -0.6631 -1.5708 -0.3478
   36MOL    H3433704   6.971   0.358   5.296 -0.9108  0.1588  0.1701
   36MOL    H3533705   6.755   0.258   5.324  1.8831  3.1897 -0.2615
   36MOL    H3633706   6.782   0.252   5.499 -0.5064  1.9787 -0.3905
   36MOL    H3733707   6.893   0.067   5.300 -2.3218  0.5049 -0.2504
   36MOL    H3833708   6.935   0.056   5.470  0.2418 -1.7808 -0.7150
   36MOL    H3933709   6.644   0.033   5.404 -0.6966 -1.3412 -0.0621
   36MOL    H4033710   6.754   7.684   5.381  0.0304 -0.5875  1.1684
   36MOL    H4133711   6.777   0.051   5.637  3.7154  1.3545 -3.5853
   36MOL    H4233712   6.626   7.756   5.610 -0.5415 -3.6842  1.4446
   36MOL    H4333713   6.894   7.607   5.595 -0.1252 -0.2956  0.1789
   36MOL    H4433714   6.733   7.545   5.580  0.1626 -0.6484 -0.4193
   36MOL    H4533715   6.833   7.686   5.829  0.8423 -1.3683 -0.2296
   36MOL    H4633716   6.673   7.636   5.814 -0.5780 -0.4973 -2.9459
   36MOL    H4733717   6.847   7.481   5.938  1.2638 -0.8475 -0.2790
   36MOL    H4833718   6.903   7.444   5.775 -0.4379  0.0196 -0.6121
   36MOL    H4933719   7.345   0.600   5.247 -0.0778  1.1925 -1.5393
   36MOL    N5033720   6.716   7.275   5.734  0.1058 -0.5403  0.2284
   36MOL    C5133721   6.602   7.180   5.716  0.5865 -0.8672 -0.3230
   36MOL    C5233722   6.644   7.042   5.677  0.2896 -0.0477 -0.0965
   36MOL    C5333723   6.776   7.012   5.665 -0.9778  0.1441  0.1103
   36MOL    C5433724   6.821   6.884   5.620 -0.4717  0.2759 -0.2949
   36MOL    C5533725   6.727   6.785   5.595 -0.2095 -0.5245 -0.6470
   36MOL    C5633726   6.589   6.812   5.612 -0.6485 -0.5328  0.1611
   36MOL    C5733727   6.550   6.939   5.653 -0.6953  0.4709  0.4980
   36MOL    C5833728   6.401   6.961   5.682 -0.3176  0.0058  0.5742
   36MOL    N5933729   6.338   6.836   5.728 -0.5953  0.0554  0.2990
   36MOL    C6033730   6.320   6.799   5.854 -0.5764 -0.2384 -0.9962
   36MOL    O6133731   6.341   6.879   5.941 -0.4031 -0.3142 -0.6694
   36MOL    C6233732   6.246   6.667   5.879  0.0735 -0.7817  0.2472
   36MOL    C6333733   6.224   6.627   6.027 -0.4679  0.5118  0.6957
   36MOL    C6433734   6.362   6.595   6.094  0.7430 -0.1265  0.2752
   36MOL    C6533735   6.354   6.491   6.205  0.7416 -0.0431  0.2994
   36MOL    C6633736   6.480   6.475   6.289 -0.2020  0.3827  0.1361
   36MOL    C6733737   6.535   6.593   6.371  0.5412 -0.4930 -0.1678
   36MOL    C6833738   6.451   6.668   6.483  0.1844  0.1513 -0.2444
   36MOL    C6933739   6.365   6.775   6.419  0.2698  0.2519  0.8588
   36MOL    C7033740   6.293   6.863   6.520  0.8919 -0.4958 -0.0551
   36MOL    O7133741   6.196   6.815   6.580  0.5081  0.1167  0.1357
   36MOL    H7233742   6.797   7.277   5.674  0.0792  2.8866  0.2392
   36MOL    H7333743   6.532   7.205   5.636  0.8749  3.1550  0.5524
   36MOL    H7433744   6.556   7.184   5.815  0.5465  0.5670 -0.3882
   36MOL    H7533745   6.854   7.082   5.690  0.2628 -0.9893 -0.4815
   36MOL    H7633746   6.925   6.856   5.618 -0.5983 -0.4228  1.5372
   36MOL    H7733747   6.758   6.682   5.579 -1.4916 -1.0532  0.1713
   36MOL    H7833748   6.517   6.734   5.591 -2.3894  1.5227 -1.9242
   36MOL    H7933749   6.353   7.004   5.595  1.9641  0.4911 -0.4966
   36MOL    H8033750   6.394   7.041   5.756 -0.8749  0.9140 -0.4538
   36MOL    H8133751   6.310   6.772   5.654  0.4038  2.6075 -2.4102
   36MOL    H8233752   6.305   6.596   5.822  1.0687  0.3917 -0.2045
   36MOL    H8333753   6.150   6.682   5.830  1.2628  1.9121 -1.3826
   36MOL    H8433754   6.158   6.541   6.038 -0.0378 -0.4820 -3.8052
   36MOL    H8533755   6.161   6.704   6.072 -0.4503  1.1097 -0.2930
   36MOL    H8633756   6.431   6.556   6.019  0.8068 -1.7670  1.1864
   36MOL    H8733757   6.410   6.689   6.120  1.4834 -0.6250  0.7191
   36MOL    H8833758   6.285   6.538   6.275  0.3711 -1.8787  1.1959
   36MOL    H8933759   6.312   6.394   6.180  2.7435 -1.6340  2.9281
   36MOL    H9033760   6.456   6.400   6.366  2.5428  0.5857  1.2468
   36MOL    H9133761   6.555   6.424   6.229 -1.3123 -0.9074 -0.1936
   36MOL    H9233762   6.586   6.667   6.310  0.7257  1.5750  2.4108
   36MOL    H9333763   6.623   6.559   6.426  1.4165  0.9396 -0.6563
   36MOL    H9433764   6.520   6.721   6.548  0.7274 -0.4486 -0.3297
   36MOL    H9533765   6.390   6.602   6.544  1.3340 -2.3715 -1.7571
   36MOL    H9633766   6.284   6.732   6.359  0.2713  0.2861  0.8326
   36MOL    H9733767   6.421   6.842   6.355 -2.6439  1.3124 -0.6929
   36MOL    N9833768   6.341   6.987   6.540  0.1465  0.2261 -0.1832
   36MOL    C9933769   6.290   7.083   6.638  0.1337  0.3776  0.1728
   36MOL   C10033770   6.151   7.127   6.601 -0.0366  1.1612  0.7411
   36MOL   C10133771   6.140   7.199   6.484  0.3078  0.1167 -0.5616
   36MOL   C10233772   6.014   7.237   6.435  0.2223  0.2607  0.5113
   36MOL   C10333773   5.897   7.210   6.511 -0.5055  0.1157  0.6340
   36MOL   C10433774   5.912   7.143   6.631 -0.8528  0.0775  0.0248
   36MOL   C10533775   6.036   7.107   6.681 -0.3416 -0.0904 -1.0149
   36MOL   C10633776   6.035   7.040   6.817 -0.0405 -0.3879 -0.2814
   36MOL   N10733777   6.057   6.897   6.812  0.4031 -0.2846 -0.1309
   36MOL   C10833778   6.039   6.803   6.906 -0.3719  0.0752 -0.3853
   36MOL   O10933779   5.983   6.831   7.008 -0.4027  0.1856  0.0067
   36MOL   C11033780   6.100   6.665   6.889 -0.0929  0.0898 -0.5839
   36MOL   C11133781   6.127   6.593   7.027  0.5815  0.4815  0.1596
   36MOL   C11233782   5.998   6.512   7.079 -0.1870 -0.6759  0.1941
   36MOL   C11333783   6.024   6.425   7.202  0.1569 -0.0329  0.0167
   36MOL   C11433784   6.087   6.490   7.327  0.1300 -0.0121 -0.1193
   36MOL   C11533785   5.981   6.552   7.423 -0.4035  0.2381 -0.5546
   36MOL   C11633786   6.047   6.625   7.541  0.3511 -0.6137 -0.1447
   36MOL   C11733787   6.085   6.774   7.527 -0.3942  0.0438 -0.1821
   36MOL   C11833788   6.214   6.796   7.446  0.1077  0.0553  0.2771
   36MOL   O11933789   6.324   6.772   7.500  0.4482 -0.2584  0.2271
   36MOL   H12033790   6.430   7.010   6.498  1.3352 -0.8506  1.6544
   36MOL   H12133791   6.303   7.031   6.733  1.4220 -2.6313 -1.5913
   36MOL   H12233792   6.349   7.174   6.651  2.1753 -0.9758  0.5754
   36MOL   H12333793   6.224   7.220   6.420  0.5882  1.3715  0.1920
   36MOL   H12433794   6.011   7.299   6.346 -0.8203  1.0058  1.0514
   36MOL   H12533795   5.809   7.260   6.473 -0.0238 -0.3043 -1.0730
   36MOL   H12633796   5.828   7.131   6.698 -1.1929 -0.5385 -0.5109
   36MOL   H12733797   5.945   7.062   6.874 -0.8374 -1.9881 -0.8799
   36MOL   H12833798   6.110   7.090   6.879  1.8676 -3.1204 -0.2709
   36MOL   H12933799   6.094   6.868   6.722 -0.6419 -1.1769 -0.2801
   36MOL   H13033800   6.205   6.672   6.860  0.2498 -1.6947  0.1470
   36MOL   H13133801   6.045   6.600   6.820  0.0744 -0.9709  0.2830
   36MOL   H13233802   6.168   6.659   7.104 -1.4957  0.3851  1.4140
   36MOL   H13333803   6.208   6.521   7.020  0.1558  0.1702 -1.9315
   36MOL   H13433804   5.920   6.583   7.105  2.6376  2.7352 -0.1549
   36MOL   H13533805   5.958   6.448   7.001  0.4028 -0.7470 -0.0583
   36MOL   H13633806   5.933   6.372   7.228  0.6240 -0.6485  0.4248
   36MOL   H13733807   6.083   6.337   7.175  0.7745 -0.2663  1.9848
   36MOL   H13833808   6.120   6.410   7.393 -1.5007 -0.5517  0.0554
   36MOL   H13933809   6.162   6.566   7.304  0.1384  0.4189  1.3304
   36MOL   H14033810   5.923   6.468   7.461 -0.0891  1.6348  3.1967
   36MOL   H14133811   5.911   6.613   7.367 -0.2964  0.3112 -0.6096
   36MOL   H14233812   5.973   6.617   7.621  0.1150  0.3823 -0.2603
   36MOL   H14333813   6.134   6.564   7.564  0.0342 -1.5331 -1.3353
   36MOL   H14433814   6.090   6.821   7.625  1.8983 -0.7371  0.0984
   36MOL   H14533815   5.998   6.812   7.473 -2.0441 -3.3172 -0.0343
   36MOL   N14633816   6.213   6.859   7.334 -0.2208 -0.0839  0.6399
   36MOL   C14733817   6.324   6.900   7.248 -0.3108 -0.1290 -0.4417
   36MOL   C14833818   6.327   7.052   7.237  0.8095 -0.5056  0.3166
   36MOL   C14933819   6.300   7.107   7.109  0.1322  0.0469  0.0522
   36MOL   C15033820   6.301   7.246   7.088 -0.3397 -0.2469  0.4575
   36MOL   C15133821   6.341   7.335   7.191 -0.1951 -0.4943  0.2230
   36MOL   C15233822   6.369   7.282   7.317 -0.0871 -0.5211  0.2625
   36MOL   C15333823   6.372   7.145   7.341  0.6047 -0.2491 -0.8138
   36MOL   C15433824   6.426   7.097   7.473 -0.4190  0.3298  0.2454
   36MOL   N15533825   6.329   7.116   7.583 -0.1961  0.6592  0.1722
   36MOL   C15633826   6.365   7.122   7.715 -0.3016 -0.1809  0.2049
   36MOL   O15733827   6.476   7.102   7.760 -0.5854 -0.5776 -0.1173
   36MOL   C15833828   6.256   7.157   0.027  0.0605 -0.0045 -0.6155
   36MOL   C15933829   6.216   7.057   0.137  0.4102  0.2833  0.4191
   36MOL   C16033830   6.158   6.925   0.089  0.2177  0.4095  0.9710
   36MOL   C16133831   6.161   6.824   0.200 -0.0961 -0.0688  0.4513
   36MOL   C16233832   6.117   6.683   0.143 -0.8214  0.3513  0.6361
   36MOL   C16333833   6.231   6.609   0.066  0.3619  0.6364  1.0588
   36MOL   C16433834   6.193   6.470   0.043 -0.0966 -0.6846 -0.1318
   36MOL   C16533835   6.303   6.377   0.001  0.2542  0.5105 -0.3245
   36MOL   C16633836   6.339   6.378   7.644  0.6735  0.2108 -0.0192
   36MOL   O16733837   6.267   6.311   7.571  0.1100  0.9158  0.1977
   36MOL   H16833838   6.121   6.871   7.294 -0.4488  1.6854  1.6234
   36MOL   H16933839   6.311   6.853   7.150  1.1990 -0.8652 -0.3020
   36MOL   H17033840   6.422   6.873   7.285 -1.3719 -0.7634  1.9821
   36MOL   H17133841   6.265   7.046   7.027  0.6335  0.2111 -0.2866
   36MOL   H17233842   6.263   7.282   6.994  2.5013 -2.8911 -1.8286
   36MOL   H17333843   6.335   7.442   7.177  1.0024 -0.7565 -2.6362
   36MOL   H17433844   6.390   7.359   7.389 -0.6728 -1.9749  2.0303
   36MOL   H17533845   6.518   7.152   7.493 -1.3608  0.9968  2.8648
   36MOL   H17633846   6.446   6.990   7.463 -3.1079 -0.3814  2.0473
   36MOL   H17733847   6.237   7.141   7.548  0.6162  0.5578 -2.1200
   36MOL   H17833848   6.166   7.175   7.758 -0.6595  0.3093  0.5825
   36MOL   H17933849   6.285   7.253   0.071 -1.9234  1.2904 -2.0556
   36MOL   H18033850   6.129   7.101   0.186  0.8863  1.8702 -0.1304
   36MOL   H18133851   6.295   7.048   0.212  0.5782 -0.2845  0.1758
   36MOL   H18233852   6.064   6.926   0.035  0.3683 -1.6039  0.6326
   36MOL   H18333853   6.227   6.895   0.010  0.7285  0.9900  1.1839
   36MOL   H18433854   6.258   6.812   0.248  0.7939  0.8532 -1.0891
   36MOL   H18533855   6.087   6.847   0.277 -1.8255 -0.7055 -0.9902
   36MOL   H18633856   6.096   6.609   0.220  2.3207 -2.7541 -1.3061
   36MOL   H18733857   6.030   6.682   0.078 -0.7414 -0.8775  0.5189
   36MOL   H18833858   6.322   6.601   0.126  0.0790  0.4920  1.4733
   36MOL   H18933859   6.268   6.660   7.766  2.4017  0.5492  1.8076
   36MOL   H19033860   6.156   6.422   0.134  0.6224 -2.1489 -0.5867
   36MOL   H19133861   6.107   6.461   7.767  0.3494  1.4698 -1.0168
   36MOL   H19233862   6.259   6.278   0.012 -0.3497  0.7988 -0.1466
   36MOL   H19333863   6.397   6.361   0.054  0.4344 -0.1424 -0.8312
   36MOL   N19433864   6.434   6.456   7.598  0.7629  0.1378  0.4611
   36MOL   C19533865   6.455   6.470   7.454  0.2067  0.9319 -0.2302
   36MOL   C19633866   6.588   6.419   7.405 -0.3253 -0.5242  0.1205
   36MOL   C19733867   6.666   6.333   7.481 -0.2049 -0.8052 -0.0395
   36MOL   C19833868   6.792   6.283   7.433  0.3997 -0.5845 -0.1055
   36MOL   C19933869   6.831   6.308   7.297  0.2863 -0.4369  0.0850
   36MOL   C20033870   6.738   6.378   7.214  0.1477  0.5983  0.0729
   36MOL   C20133871   6.619   6.436   7.263 -0.3828 -0.5010  0.3180
   36MOL   C20233872   6.529   6.515   7.173 -0.6264  0.3587  0.7370
   36MOL   N20333873   6.590   6.569   7.056  0.2617 -0.8666 -0.5434
   36MOL   C20433874   6.536   6.653   6.971  0.6154  0.2339 -0.2708
   36MOL   O20533875   6.420   6.700   6.993  0.0544 -0.2967  0.4986
   36MOL   C20633876   6.615   6.705   6.852  1.2475  0.1473 -0.3112
   36MOL   C20733877   6.615   6.856   6.852  0.1487 -0.6634  0.8847
   36MOL   C20833878   6.702   6.913   6.962 -0.0307 -0.0907  0.1028
   36MOL   C20933879   6.647   6.919   7.105 -1.1416 -0.5072  0.5769
   36MOL   C21033880   6.724   7.011   7.207 -0.3092  0.4911 -0.3191
   36MOL   C21133881   6.716   7.162   7.181 -0.0398  0.2611 -0.2278
   36MOL   C21233882   6.776   7.253   7.292 -0.3385 -0.5194  0.8367
   36MOL   C21333883   6.795   7.403   7.260  0.3760 -0.1154 -0.4238
   36MOL   C21433884   6.853   7.419   7.121 -0.4903 -0.3344 -0.6053
   36MOL   O21533885   6.969   7.375   7.101  0.1682  0.3646 -0.1470
   36MOL   H21633886   6.477   6.516   7.667 -0.0181 -0.8543  1.8246
   36MOL   H21733887   6.373   6.431   7.393 -0.6192  1.1568  0.7347
   36MOL   H21833888   6.451   6.578   7.438 -0.5154  1.5797  3.9405
   36MOL   H21933889   6.634   6.305   7.581  0.5401  1.3641  0.8309
   36MOL   H22033890   6.845   6.212   7.494 -0.6147 -1.0528  0.2472
   36MOL   H22133891   6.924   6.278   7.251 -0.5508 -0.4898 -1.5978
   36MOL   H22233892   6.757   6.385   7.107  1.0489  0.8253  0.2427
   36MOL   H22333893   6.470   6.584   7.233  0.3359  3.5008 -1.8049
   36MOL   H22433894   6.459   6.439   7.138  0.0187  0.4750 -0.8842
   36MOL   H22533895   6.688   6.549   7.044  0.7483  0.8546  0.3523
   36MOL   H22633896   6.578   6.662   6.759  1.6668 -1.2333  0.1572
   36MOL   H22733897   6.716   6.672   6.877  1.3469 -0.1218 -1.0485
   36MOL   H22833898   6.636   6.889   6.750  2.3595 -3.9437  0.1907
   36MOL   H22933899   6.515   6.897   6.872  0.9782  3.4124 -2.4343
   36MOL   H23033900   6.795   6.858   6.967 -1.0562 -1.9176 -0.6370
   36MOL   H23133901   6.736   7.014   6.936 -2.6971  0.6689 -0.5979
   36MOL   H23233902   6.541   6.944   7.096 -0.8594  0.2394 -0.7516
   36MOL   H23333903   6.652   6.818   7.146  0.0464 -1.4651 -1.8075
   36MOL   H23433904   6.684   6.996   7.307  1.5998  1.0554  0.5474
   36MOL   H23533905   6.823   6.965   7.213 -0.9143 -0.8898 -0.5181
   36MOL   H23633906   6.613   7.192   7.159 -0.6874 -0.4347  1.7994
   36MOL   H23733907   6.769   7.173   7.086  0.7492 -0.2645  0.1553
   36MOL   H23833908   6.876   7.218   7.318 -0.4312  0.1226  2.0843
   36MOL   H23933909   6.721   7.242   7.386  0.3399  1.2410  1.4464
   36MOL   H24033910   6.695   7.445   7.271 -0.2190 -2.2400  3.0859
   36MOL   H24133911   6.858   7.458   7.330 -0.3083  1.0120 -0.6724
   36MOL   N24233912   6.788   7.481   7.019  0.1681 -0.2280 -0.6734
   36MOL   C24333913   6.834   7.493   6.882 -0.4572  0.6609 -0.5876
   36MOL   C24433914   6.770   7.381   6.799 -0.4413  0.4956  0.1502
   36MOL   C24533915   6.662   7.306   6.851  0.4493  0.4410 -0.0919
   36MOL   C24633916   6.611   7.194   6.776 -0.2375  0.1888 -0.4771
   36MOL   C24733917   6.677   7.148   6.665  0.1565  0.4854 -0.1206
   36MOL   C24833918   6.786   7.224   6.610 -0.2572  0.2360 -0.3640
   36MOL   C24933919   6.825   7.342   6.678  0.1519 -0.2664  0.3109
   36MOL   C25033920   6.948   7.418   6.628  0.0833  0.7416  0.2579
   36MOL   N25133921   6.914   7.536   6.550  0.5457 -0.1494 -0.5299
   36MOL   C25233922   6.916   7.660   6.594  0.4568 -0.3086  0.2915
   36MOL   O25333923   6.961   7.687   6.703  0.5179 -0.2503  0.3834
   36MOL   C25433924   6.858   7.771   6.503 -0.3931 -0.2444 -0.6452
   36MOL   C25533925   6.710   7.789   6.537 -0.2490 -0.2854 -0.1121
   36MOL   C25633926   6.651   0.111   6.444  0.1167 -0.5949 -0.5086
   36MOL   C25733927   6.531   0.182   6.517  0.0316  0.5464  0.1411
   36MOL   C25833928   6.427   0.254   6.430  0.0143 -0.7618 -0.7369
   36MOL   C25933929   6.328   0.338   6.498  0.8113 -0.5297  0.6175
   36MOL   C26033930   6.250   0.260   6.616  0.1869  0.5704  0.2913
   36MOL   C26133931   6.139   0.340   6.683 -0.3906 -0.2743 -0.3644
   36MOL   C26233932   6.081   0.271   6.802 -0.2763 -0.7950  0.3476
   36MOL   O26333933   6.154   0.253   6.903 -0.1633 -0.0646 -0.2448
   36MOL   H26433934   6.690   7.505   7.028 -0.3248 -2.4314  0.1971
   36MOL   H26533935   6.802   7.586   6.836 -1.8944  0.0135 -0.9562
   36MOL   H26633936   6.943   7.489   6.888 -0.4442 -2.1640 -1.7727
   36MOL   H26733937   6.609   7.326   6.943 -0.0373  0.1662 -0.3118
   36MOL   H26833938   6.527   7.139   6.815 -0.3737  1.1504  0.5977
   36MOL   H26933939   6.636   7.057   6.622 -0.5169  0.7028  0.0581
   36MOL   H27033940   6.851   7.189   6.532  0.5461 -0.9064  0.7963
   36MOL   H27133941   7.000   7.354   6.556 -0.4183 -0.8133  1.2431
   36MOL   H27233942   7.021   7.446   6.703  0.9439  1.6206 -0.8872
   36MOL   H27333943   6.866   7.522   6.462 -0.7851  1.1283 -0.0149
   36MOL   H27433944   6.873   7.745   6.398 -1.9824  0.3209 -1.0209
   36MOL   H27533945   6.912   0.074   6.521  2.0328 -2.0527  1.6976
   36MOL   H27633946   6.700   0.033   6.640  2.9762 -0.5971  0.3397
   36MOL   H27733947   6.648   7.699   6.529 -0.5632 -0.0913  0.1279
   36MOL   H27833948   6.638   0.057   6.351  1.0606 -1.6913 -0.0175
   36MOL   H27933949   6.732   0.183   6.448  0.2709 -0.7843 -0.1901
   36MOL   H28033950   6.467   0.114   6.574  0.7624 -0.8445 -0.6823
   36MOL   H28133951   6.575   0.248   6.592 -1.2705  0.8015  0.6893
   36MOL   H28233952   6.472   0.314   6.351 -0.0564 -0.8006 -0.8053
   36MOL   H28333953   6.369   0.180   6.375  0.9582 -0.8827 -1.5975
   36MOL   H28433954   6.250   0.370   6.429 -0.0112 -2.3064  0.6927
   36MOL   H28533955   6.375   0.426   6.541  2.0995 -0.6079 -0.5851
   36MOL   H28633956   6.203   0.174   6.567 -0.7007  1.2239 -0.0222
   36MOL   H28733957   6.316   0.227   6.696  0.8627  0.1971 -0.4112
   36MOL   H28833958   6.175   0.441   6.701  0.0010 -0.3346 -0.7991
   36MOL   H28933959   6.050   0.358   6.623 -2.4480 -0.6443  2.4770
   36MOL   N29033960   5.957   0.229   6.800  0.2926 -0.3888 -0.5520
   36MOL   C29133961   5.882   0.137   6.888 -0.2548  0.0774 -0.0111
   36MOL   C29233962   5.782   0.044   6.817 -0.2819 -0.4683 -0.4535
   36MOL   C29333963   5.810   0.006   6.681 -0.3089 -1.2031  0.1632
   36MOL   C29433964   5.723   7.713   6.606 -0.3320  0.0034  0.0087
   36MOL   C29533965   5.603   7.667   6.669  0.2190  0.4062 -0.6931
   36MOL   C29633966   5.574   7.710   6.798 -0.3426  0.4752  0.2953
   36MOL   C29733967   5.662   0.002   6.882  0.7540  0.2108  0.7263
   36MOL   C29833968   5.622   0.041   7.025  0.5867 -0.3964 -0.1023
   36MOL   N29933969   5.504   7.762   7.083  0.8442 -0.2980  0.0542
   36MOL   C30033970   5.418   0.027   7.168 -0.5629 -0.7961 -0.0826
   36MOL   O30133971   5.458   0.129   7.232  0.0964  0.4118 -1.0930
   36MOL   C30233972   5.280   7.758   7.193  0.5828  0.2569  0.8283
   36MOL   C30333973   5.204   0.012   7.314 -0.9090 -0.9177  0.3298
   36MOL   C30433974   5.152   0.160   7.312  0.6228  0.7988  1.2303
   36MOL   C30533975   5.033   0.171   7.404  0.3654  0.5771 -0.1301
   36MOL   C30633976   5.062   0.178   7.552 -0.3333 -0.7176 -0.5461
   36MOL   C30733977   4.937   0.190   7.638  0.6361 -0.0582 -0.5550
   36MOL   C30833978   4.954   0.224   7.786  0.5109 -0.6291 -0.2348
   36MOL   C30933979   4.824   0.230   0.083  0.0101  0.1506  0.2303
   36MOL   C31033980   4.757   0.091   0.113 -0.5516  0.7643 -0.8661
   36MOL   O31133981   4.816   0.007   0.185  0.1717 -0.4903  0.0007
   36MOL   H31233982   5.901   0.245   6.718 -2.5268 -1.3308  1.1056
   36MOL   H31333983   5.943   0.081   6.959 -0.8246  0.0495  0.4561
   36MOL   H31433984   5.829   0.214   6.944  1.2193  1.5586 -0.5917
   36MOL   H31533985   5.902   0.033   6.631  0.7572  0.5278  2.9516
   36MOL   H31633986   5.752   7.682   6.507  1.3105 -1.1759  0.8249
   36MOL   H31733987   5.535   7.610   6.607 -1.4519 -0.4124  1.8042
   36MOL   H31833988   5.483   7.672   6.843 -0.4163 -2.9541 -2.5443
   36MOL   H31933989   5.620   0.149   7.037 -3.4718 -0.0892 -2.8425
   36MOL   H32033990   5.700   7.787   7.088 -0.7479 -2.5856  0.0818
   36MOL   H32133991   5.468   7.682   7.034 -1.7218  1.8115 -1.6700
   36MOL   H32233992   5.214   7.778   7.108  0.8289 -0.3527  0.4898
   36MOL   H32333993   5.285   7.650   7.210 -1.0542  0.1428  0.7369
   36MOL   H32433994   5.269   7.782   7.399  1.0370  1.4933 -0.4968
   36MOL   H32533995   5.127   7.728   7.333 -2.1598  0.6088  1.3034
   36MOL   H32633996   5.130   0.188   7.209  1.2010 -1.9231  0.3394
   36MOL   H32733997   5.225   0.234   7.347  1.4994  0.2609  0.5447
   36MOL   H32833998   4.985   0.267   7.382 -0.8324 -0.1245 -0.6031
   36MOL   H32933999   4.963   0.092   7.375 -0.5569  0.8540  1.2809
   36MOL   H33034000   5.114   0.087   7.578 -0.2377  0.1348  2.3713
   36MOL   H33134001   5.126   0.266   7.562 -0.6279 -0.4002 -1.3740
   36MOL   H33234002   4.892   0.092   7.623  0.2568 -0.0230  0.3500
   36MOL   H33334003   4.859   0.259   7.607  1.0142  0.7563  0.2757
   36MOL   H33434004   5.021   0.152   0.042  1.6663  0.6752  0.1773
   36MOL   H33534005   4.996   0.325   0.008 -2.1911  0.5255 -0.1879
   36MOL   H33634006   4.849   0.267   0.182  0.5998 -0.2000  0.2126
   36MOL   H33734007   4.755   0.306   0.045  2.5304  2.6287  0.4588
   36MOL   N33834008   4.642   0.066   0.053 -0.0475 -0.2889  0.8891
   36MOL   C33934009   4.562   7.740   0.082  0.3969  0.2762  0.1039
   36MOL   C34034010   4.447   7.720   7.772  0.6067  0.7435 -0.5031
   36MOL   C34134011   4.314   7.722   0.033 -0.8291  0.2139 -0.2056
   36MOL   C34234012   4.207   7.699   7.742 -0.2024 -0.3022  0.4652
   36MOL   C34334013   4.228   7.674   7.606 -0.8863  0.1061  0.9553
   36MOL   C34434014   4.357   7.665   7.552  0.4209 -0.2320  0.4171
   36MOL   C34534015   4.469   7.677   7.637 -0.1810 -0.6145 -0.0869
   36MOL   C34634016   4.611   7.669   7.573 -0.1267 -0.5635 -0.7655
   36MOL   N34734017   4.611   7.611   7.444 -0.1114 -0.5435  0.1958
   36MOL   C34834018   4.637   7.684   7.331  0.1872 -0.4711 -0.0909
   36MOL   O34934019   4.675   0.012   7.338  0.0593 -0.3141  0.2384
   36MOL   C35034020   4.619   7.625   7.189 -0.2537  0.0101  0.2318
   36MOL   C35134021   4.755   7.611   7.125  0.0985  0.6545  0.1793
   36MOL   C35234022   4.856   7.515   7.187  1.4049  0.0773 -0.7489
   36MOL   C35334023   4.993   7.500   7.121  0.3555 -0.1361  0.5205
   36MOL   C35434024   5.089   7.397   7.195 -0.3154 -0.0964 -0.7126
   36MOL   C35534025   5.057   7.253   7.163 -0.2193  0.2611  0.6603
   36MOL   C35634026   5.159   7.152   7.218  0.0565 -1.0355  0.1599
   36MOL   C35734027   5.114   7.004   7.192  0.2091  0.7712  0.0763
   36MOL   C35834028   5.029   6.944   7.299 -0.4590  0.5946  0.4220
   36MOL   O35934029   5.061   6.949   7.413 -0.2039  0.1387 -0.3018
   36MOL   H36034030   4.587   0.130   7.787  0.2140 -0.6117  0.2576
   36MOL   H36134031   4.633   7.657   0.082 -0.5683 -0.5761 -1.7384
   36MOL   H36234032   4.529   7.746   0.185 -0.3914 -1.3103 -0.0283
   36MOL   H36334033   4.294   7.753   0.134 -0.5531  0.1391 -0.1268
   36MOL   H36434034   4.105   7.707   7.779 -0.1158  0.0960  0.6177
   36MOL   H36534035   4.153   7.670   7.528 -0.9949  0.7149  1.0258
   36MOL   H36634036   4.371   7.645   7.447  2.2392 -0.7763  0.7454
   36MOL   H36734037   4.661   7.601   7.642 -0.1359 -0.3412 -0.5372
   36MOL   H36834038   4.667   7.763   7.568  1.2003 -1.4196 -2.5190
   36MOL   H36934039   4.579   7.516   7.435 -1.1424 -0.1076 -0.7525
   36MOL   H37034040   4.552   7.695   7.137 -3.2113 -2.3806  0.6780
   36MOL   H37134041   4.576   7.526   7.205  1.4126 -0.7487  0.0765
   36MOL   H37234042   4.798   7.711   7.129  1.8364  0.0026 -1.5137
   36MOL   H37334043   4.745   7.591   7.018  0.4792  0.2036  0.2248
   36MOL   H37434044   4.875   7.541   7.291 -0.3437  0.4014 -0.5013
   36MOL   H37534045   4.810   7.416   7.186  0.0700  0.6815 -0.6065
   36MOL   H37634046   5.045   7.595   7.115 -0.7249  0.3767 -0.9878
   36MOL   H37734047   4.991   7.470   7.016  4.5131  1.3153 -0.0724
   36MOL   H37834048   5.194   7.418   7.174 -0.1610  0.2157  0.3400
   36MOL   H37934049   5.087   7.417   7.302  0.0288 -0.4494 -0.6397
   36MOL   H38034050   5.045   7.249   7.055  1.6596 -0.3131  0.4597
   36MOL   H38134051   4.956   7.228   7.194 -0.9788  1.7892 -0.4649
   36MOL   H38234052   5.261   7.162   7.180  0.0331  0.6273  0.5371
   36MOL   H38334053   5.175   7.171   7.324  0.7459  1.7352 -0.4026
   36MOL   H38434054   5.207   6.948   7.201  0.2092  1.1408  2.4757
   36MOL   H38534055   5.074   6.994   7.091  1.3374  2.0678 -0.5187
   36MOL   N38634056   4.907   6.899   7.256  0.2884 -0.5485  0.2787
   36MOL   C38734057   4.790   6.855   7.330  0.0367  0.2716  0.2967
   36MOL   C38834058   4.739   6.723   7.263 -0.0552 -0.2848  0.0924
   36MOL   C38934059   4.794   6.669   7.147  0.3283 -0.2953 -0.5938
   36MOL   C39034060   4.737   6.558   7.084 -0.4124  0.3511 -0.7847
   36MOL   C39134061   4.615   6.509   7.126  0.1801  0.1075  0.6087
   36MOL   C39234062   4.555   6.567   7.237 -0.2958 -0.6358 -0.0731
   36MOL   C39334063   4.610   6.677   7.307 -0.1529  0.3532  0.5478
   36MOL   C39434064   4.545   6.718   7.438 -0.5072 -0.2419  0.7874
   36MOL   N39534065   4.403   6.712   7.442  0.5988  0.4104 -0.1651
   36MOL   C39634066   4.333   6.821   7.423  0.1237 -0.3272  0.1832
   36MOL   O39734067   4.379   6.934   7.408 -0.0318 -0.3273 -0.2526
   36MOL   C39834068   4.184   6.806   7.455  0.0406 -0.1183 -0.1237
   36MOL   C39934069   4.094   6.920   7.397  0.0709  0.0116  0.4913
   36MOL   C40034070   3.944   6.904   7.427 -0.6104  0.2063 -0.2148
   36MOL   C40134071   3.915   6.920   7.577  0.0967 -0.3007  0.6874
   36MOL   C40234072   3.776   6.899   7.608  0.5046  0.7706 -0.0856
   36MOL   C40334073   3.761   6.832   7.749 -0.5049 -0.5431  0.6640
   36MOL   C40434074   3.611   6.795   7.776 -0.2865  0.2711  0.0749
   36MOL   C40534075   3.581   6.690   0.085  0.1966 -0.4041  0.1307
   36MOL   C40634076   3.609   6.723   0.235 -0.5824 -0.0138 -0.0664
   36MOL   O40734077   3.660   6.827   0.273 -0.5187  0.2020  0.1255
   36MOL   H40834078   4.889   6.911   7.157 -1.0936 -0.8606  0.4800
   36MOL   H40934079   4.812   6.847   7.436  0.3922  1.8499  0.3644
   36MOL   H41034080   4.712   6.931   7.321  0.1693  0.3842  0.0709
   36MOL   H41134081   4.882   6.715   7.105  0.5528  0.2066  0.4081
   36MOL   H41234082   4.786   6.528   6.992 -0.0471 -0.0343 -0.4646
   36MOL   H41334083   4.559   6.429   7.079  1.9225  0.5210 -2.2664
   36MOL   H41434084   4.463   6.527   7.279  0.3476 -0.0554  1.9316
   36MOL   H41534085   4.576   6.817   7.469  1.0585 -0.3917 -0.2057
   36MOL   H41634086   4.589   6.645   7.506  1.6865  3.9984  4.1054
   36MOL   H41734087   4.360   6.629   7.482 -0.5468  1.4320  0.7628
   36MOL   H41834088   4.157   6.707   7.416 -3.1367 -0.2760  2.2916
   36MOL   H41934089   4.163   6.780   7.559  1.0316 -0.0283  0.1072
   36MOL   H42034090   4.107   6.921   7.289  0.7998  0.4391  0.5837
   36MOL   H42134091   4.115   7.020   7.434  0.4805  0.2057 -0.2714
   36MOL   H42234092   3.906   6.804   7.406 -0.7583 -0.2014  1.9044
   36MOL   H42334093   3.892   6.980   7.369 -3.3849 -1.4001  0.0936
   36MOL   H42434094   3.983   6.857   7.634 -0.3754 -0.8091  0.6836
   36MOL   H42534095   3.934   7.018   7.620 -0.3368  0.3767 -0.6206
   36MOL   H42634096   3.724   6.994   7.610 -0.8555  0.0504 -0.4187
   36MOL   H42734097   3.723   6.843   7.531  0.3512  1.1149 -0.2309
   36MOL   H42834098   3.795   6.903   0.035  2.1251 -0.6963 -0.3170
   36MOL   H42934099   3.834   6.752   7.762 -0.8058 -0.5273  2.6405
   36MOL   H43034100   3.564   6.763   7.683 -0.4029  2.6206 -0.7179
   36MOL   H43134101   3.551   6.885   0.005 -1.9978 -0.8512  0.0654
   36MOL   H43234102   3.625   6.592   0.066  0.8690  0.1576 -1.2259
   36MOL   H43334103   3.474   6.675   0.074 -0.0667  1.8847 -0.7029
   36MOL   N43434104   3.574   6.626   0.322  1.4831  0.2790  0.2060
   36MOL   C43534105   3.576   6.632   0.466  0.4668 -0.1469  0.6562
   36MOL   C43634106   3.712   6.609   0.524  0.4920  0.5655  1.1194
   36MOL   C43734107   3.802   6.521   0.463  0.6935 -0.2389  0.0160
   36MOL   C43834108   3.923   6.486   0.532 -0.2309  0.3492 -0.3104
   36MOL   C43934109   3.950   6.545   0.655 -0.0827  0.6210  0.4850
   36MOL   C44034110   3.863   6.642   0.707  0.4346  0.0292  0.2536
   36MOL   C44134111   3.742   6.674   0.646 -0.2908  0.5560 -0.3581
   36MOL   C44234112   3.653   6.783   0.709  0.3081 -1.2678  0.0892
   36MOL   N44334113   3.710   6.876   0.809  0.7925 -0.4183 -0.0856
   36MOL   C44434114   3.685   6.861   0.940  0.5625  0.0653  0.0029
   36MOL   O44534115   3.652   6.757   0.993  0.0175  0.2230  0.5721
   36MOL   C44634116   3.712   6.992   1.027 -0.4264  0.1252  0.1869
   36MOL   C44734117   3.593   7.101   1.033 -0.8856 -0.3455 -0.0936
   36MOL   C44834118   3.480   7.072   1.137  0.4715  0.0997 -0.1522
   36MOL   C44934119   3.392   7.189   1.161 -0.4838 -0.2175  0.2617
   36MOL   C45034120   3.281   7.158   1.273 -0.8855 -0.5029  0.2230
   36MOL   C45134121   3.175   7.271   1.281  0.4263  0.5249 -0.2576
   36MOL   C45234122   3.105   7.279   1.426 -0.6472 -0.1584  0.3902
   36MOL   C45334123   3.000   7.383   1.439  0.2617  0.4260  0.5293
   36MOL   C45434124   2.931   7.380   1.576  1.0128  0.1945  0.2484
   36MOL   O45534125   2.950   7.297   1.661  0.0655 -0.3139 -0.5221
   36MOL   H45634126   3.529   6.548   0.278  2.0360  0.8973 -1.4957
   36MOL   H45734127   3.501   6.570   0.515  0.4219 -0.7469 -0.1514
   36MOL   H45834128   3.530   6.727   0.495  2.1742  0.5542  1.1127
   36MOL   H45934129   3.784   6.480   0.364  0.3572  0.1230 -0.0763
   36MOL   H46034130   3.999   6.428   0.481 -0.0772 -0.0516  0.3794
   36MOL   H46134131   4.038   6.514   0.709  0.0205 -0.3853 -0.2537
   36MOL   H46234132   3.888   6.690   0.800 -1.6578 -2.0725  1.9515
   36MOL   H46334133   3.555   6.747   0.740 -0.4757  1.7355  1.2931
   36MOL   H46434134   3.630   6.847   0.624  0.7644 -1.7086 -0.3696
   36MOL   H46534135   3.733   6.967   0.771 -2.1236  0.5842  0.4245
   36MOL   H46634136   3.796   7.032   0.971 -0.5246  0.0880  0.0115
   36MOL   H46734137   3.749   6.968   1.127  0.3426 -0.7036 -0.2912
   36MOL   H46834138   3.571   7.100   0.926  3.2157  1.2578 -1.0420
   36MOL   H46934139   3.642   7.196   1.054  1.0226 -1.6509  1.7098
   36MOL   H47034140   3.410   6.994   1.108  0.0233  0.4611 -0.0455
   36MOL   H47134141   3.521   7.032   1.230  0.0115 -0.5307 -0.2178
   36MOL   H47234142   3.456   7.276   1.179  0.8798 -1.0774 -0.3532
   36MOL   H47334143   3.334   7.200   1.070 -0.1807 -0.1555  0.0767
   36MOL   H47434144   3.236   7.066   1.236  0.4677 -1.2804  0.4660
   36MOL   H47534145   3.330   7.149   1.370 -0.1600 -1.3856 -0.2158
   36MOL   H47634146   3.101   7.271   1.201 -0.0667  0.8297  0.1982
   36MOL   H47734147   3.215   7.370   1.259 -0.7840  1.1817  0.5029
   36MOL   H47834148   3.071   7.178   1.453 -0.7923 -0.6243 -1.4502
   36MOL   H47934149   3.191   7.296   1.490  1.3183 -1.8941 -1.7025
   36MOL   H48034150   3.062   7.473   1.439  1.9030 -0.6658  0.0921
   36MOL   H48134151   2.924   7.375   1.362  0.3037 -0.2052  0.5484
   36MOL   N48234152   2.849   7.481   1.589  0.1956 -0.1554  0.7255
   36MOL   C48334153   2.751   7.500   1.700 -0.0124  0.1090 -0.0889
   36MOL   C48434154   2.728   7.643   1.731  0.3711  0.4873 -0.1683
   36MOL   C48534155   2.592   7.688   1.709  0.6160 -0.2579 -1.2197
   36MOL   C48634156   2.562   0.034   1.737  0.2663 -0.7575 -0.3557
   36MOL   C48734157   2.658   0.118   1.791  0.4797 -0.1280 -0.3924
   36MOL   C48834158   2.789   0.075   1.824 -0.4510  0.2039 -0.0044
   36MOL   C48934159   2.823   7.734   1.794 -0.0612  0.2605 -0.6750
   36MOL   C49034160   2.969   7.698   1.818  0.1905 -0.0185  0.2209
   36MOL   N49134161   3.036   7.715   1.692 -0.1956 -0.2790  0.4223
   36MOL   C49234162   3.151   7.661   1.657 -0.2395  0.3010  0.0228
   36MOL   O49334163   3.216   7.589   1.732  0.0539  0.1933  0.5975
   36MOL   C49434164   3.222   7.716   1.536  1.1208 -0.0012 -0.0768
   36MOL   C49534165   3.325   7.620   1.478  0.0266  0.0789  0.0193
   36MOL   C49634166   3.459   7.688   1.441  0.1740 -0.7404 -0.7631
   36MOL   C49734167   3.573   7.594   1.413 -0.0843 -0.4824  0.5474
   36MOL   C49834168   3.681   7.654   1.320  0.3342  0.1715 -1.2881
   36MOL   C49934169   3.648   7.630   1.172  0.2023  0.2514  0.1536
   36MOL   C50034170   3.748   7.705   1.085 -0.5381 -0.6404 -0.3490
   36MOL   C50134171   3.782   7.631   0.949  0.2830 -0.3904  0.0390
   36MOL   C50234172   3.840   7.719   0.833  0.3078 -0.0647  0.0032
   36MOL   O50334173   3.910   0.023   0.864 -0.3331 -0.3577  0.1194
   36MOL   H50434174   2.839   7.541   1.508 -0.5923 -1.2899 -0.0371
   36MOL   H50534175   2.663   7.443   1.670 -0.9710  1.3668  0.2436
   36MOL   H50634176   2.798   7.456   1.787 -2.2140 -2.1670  0.0033
   36MOL   H50734177   2.512   7.627   1.671  0.7015 -2.0311  1.3695
   36MOL   H50834178   2.463   0.071   1.717 -0.4732 -1.7556  1.3535
   36MOL   H50934179   2.627   0.218   1.819  1.1907 -0.1155  0.3437
   36MOL   H51034180   2.863   0.148   1.854 -0.2001 -0.8083  1.9159
   36MOL   H51134181   2.989   7.596   1.849  1.4041  0.2101  0.2268
   36MOL   H51234182   3.013   7.754   1.901 -0.3054  1.9717 -0.8271
   36MOL   H51334183   2.982   7.756   1.618  1.0220 -0.3508 -0.5095
   36MOL   H51434184   3.256   0.027   1.560  1.2103 -0.6510  2.8260
   36MOL   H51534185   3.143   7.738   1.465  0.9816  2.9288  0.9304
   36MOL   H51634186   3.276   7.560   1.401  2.8093 -1.5327 -0.5292
   36MOL   H51734187   3.358   7.547   1.551  2.0261 -0.2027 -1.1381
   36MOL   H51834188   3.434   7.755   1.359 -0.6014  0.8046  0.7083
   36MOL   H51934189   3.494   7.751   1.523  1.2023 -1.0158 -0.9915
   36MOL   H52034190   3.622   7.560   1.504  1.2006  0.2847  0.1522
   36MOL   H52134191   3.539   7.499   1.370  0.3150 -0.8300  0.9857
   36MOL   H52234192   3.688   7.759   1.348  2.8206 -0.2072 -0.4095
   36MOL   H52334193   3.772   7.599   1.344  0.6043  1.2789  0.2594
   36MOL   H52434194   3.548   7.668   1.152  0.4818  1.2675  0.6280
   36MOL   H52534195   3.651   7.523   1.153  1.8667 -0.1520  2.4807
   36MOL   H52634196   3.725   0.020   1.068 -0.2087 -0.4983  0.0864
   36MOL   H52734197   3.841   7.721   1.140 -0.8161 -1.4052  0.3446
   36MOL   H52834198   3.685   7.601   0.910 -0.8706  2.6933  0.3479
   36MOL   H52934199   3.852   7.552   0.975 -2.6216 -2.6936  1.2349
   36MOL   N53034200   3.802   7.692   0.707  0.2300 -0.2707 -0.5013
   36MOL   C53134201   3.843   7.765   0.586  0.7197 -0.2763 -0.2708
   36MOL   C53234202   3.723   0.046   0.520 -0.0258  0.2339  0.3216
   36MOL   C53334203   3.627   7.753   0.456  0.1937  0.1633 -0.3790
   36MOL   C53434204   3.510   0.018   0.395 -0.5020 -0.3927  1.2211
   36MOL   C53534205   3.494   0.156   0.392 -0.5135  0.0463 -0.0671
   36MOL   C53634206   3.583   0.237   0.460 -0.2272 -0.1784  0.1358
   36MOL   C53734207   3.694   0.185   0.537 -0.2880 -0.3051  0.0622
   36MOL   C53834208   3.782   0.287   0.615  0.3295 -0.0460  0.2547
   36MOL   N53934209   3.791   0.267   0.754  0.3568 -0.3698 -0.2177
   36MOL   C54034210   3.716   0.332   0.845 -0.6496 -0.0747 -0.0008
   36MOL   O54134211   3.620   0.399   0.819  0.5680 -0.0187  0.2258
   36MOL   C54234212   3.738   0.296   0.990  0.4883 -0.2270  0.0418
   36MOL   C54334213   3.784   0.414   1.076 -0.0923  0.1887  0.1074
   36MOL   C54434214   3.931   0.400   1.114  1.2782  0.2738 -0.0077
   36MOL   C54534215   4.002   0.513   1.196  0.1571  0.7100  0.7257
   36MOL   C54634216   3.915   0.552   1.313 -0.0194  0.7069 -0.0715
   36MOL   C54734217   4.003   0.609   1.431  0.0738  0.2502  0.1155
   36MOL   C54834218   3.933   0.608   1.562  0.7368 -0.5641 -0.2180
   36MOL   C54934219   4.024   0.608   1.687 -0.3609  0.8567 -1.0974
   36MOL   C55034220   3.939   0.613   1.813 -0.2605  0.3253  0.1190
   36MOL   O55134221   3.853   0.698   1.839 -0.0541  0.7538 -0.3846
   36MOL   H55234222   3.723   7.631   0.695 -0.7722  0.8083  0.4794
   36MOL   H55334223   3.905   7.705   0.520  3.0545  0.9006  0.7754
   36MOL   H55434224   3.917   0.052   0.606  0.6159 -0.8258  2.5229
   36MOL   H55534225   3.640   7.646   0.465 -0.1436  0.1967  0.5216
   36MOL   H55634226   3.433   7.740   0.365 -1.8947  2.1255 -1.0941
   36MOL   H55734227   3.404   0.199   0.352 -0.9422 -0.2517  0.5617
   36MOL   H55834228   3.560   0.343   0.466  0.7935  0.1331 -1.2700
   36MOL   H55934229   3.767   0.391   0.588  0.1144  0.3182  1.7492
   36MOL   H56034230   3.883   0.274   0.577 -0.0516  0.4301 -0.9505
   36MOL   H56134231   3.862   0.205   0.791 -0.5087 -0.7024  0.9010
   36MOL   H56234232   3.805   0.210   1.001 -0.3835 -0.6424  2.2773
   36MOL   H56334233   3.639   0.261   1.018 -0.1007 -0.3082 -2.0338
   36MOL   H56434234   3.729   0.413   1.170  1.7254 -1.4743  1.1962
   36MOL   H56534235   3.755   0.507   1.029 -1.9160  1.1050  2.9142
   36MOL   H56634236   3.930   0.306   1.168 -2.8467 -0.5547 -1.3523
   36MOL   H56734237   3.988   0.387   1.022  0.3765 -1.2442 -0.3672
   36MOL   H56834238   4.100   0.474   1.220  0.0066 -0.0394  0.1379
   36MOL   H56934239   4.020   0.585   1.116 -0.8949 -2.3667 -2.4033
   36MOL   H57034240   3.837   0.616   1.271  1.0401  1.3157 -1.1569
   36MOL   H57134241   3.871   0.458   1.346  1.5797  0.0570  0.2545
   36MOL   H57234242   4.044   0.709   1.413 -2.1181  0.9735 -0.9519
   36MOL   H57334243   4.087   0.540   1.435  1.2631  1.6240 -0.4045
   36MOL   H57434244   3.863   0.692   1.569  0.6493 -0.6485 -0.0671
   36MOL   H57534245   3.883   0.512   1.570 -0.1551 -0.0181  0.9420
   36MOL   H57634246   4.086   0.697   1.687 -2.0194  2.1081 -3.9738
   36MOL   H57734247   4.089   0.521   1.687 -1.5191 -0.0119 -0.8231
   36MOL   N57834248   3.975   0.512   1.898  0.6005 -0.7540  0.2502
   36MOL   C57934249   3.931   0.508   2.037  0.5943  0.4917 -0.6013
   36MOL   C58034250   3.881   0.367   2.073  0.0724 -0.1392  0.1772
   36MOL   C58134251   3.969   0.270   2.125 -0.1059  0.4872  0.2895
   36MOL   C58234252   3.920   0.147   2.169 -0.3968 -0.0745 -0.2773
   36MOL   C58334253   3.782   0.120   2.165 -0.6724  0.6438 -0.4440
   36MOL   C58434254   3.693   0.211   2.114  0.0992  0.2983  0.5095
   36MOL   C58534255   3.744   0.335   2.061 -1.4860 -1.0830  0.0006
   36MOL   C58634256   3.651   0.435   1.992 -0.0923  0.6443  0.3211
   36MOL   N58734257   3.527   0.386   1.947  0.8531  0.3303 -0.5077
   36MOL   C58834258   3.400   0.399   1.998  0.2682  1.2980 -0.1753
   36MOL   O58934259   3.365   0.486   2.071 -0.7120 -0.1925 -0.0475
   36MOL   C59034260   3.298   0.294   1.953  0.6492  0.7304 -0.5239
   36MOL   C59134261   3.174   0.360   1.885 -0.2732  1.1492  0.4098
   36MOL   C59234262   3.207   0.428   1.752  0.3255 -0.6248 -0.5114
   36MOL   C59334263   3.097   0.505   1.690 -0.2100 -0.4855 -0.2780
   36MOL   C59434264   3.155   0.595   1.585 -0.5084 -0.5568 -0.1076
   36MOL   C59534265   3.076   0.670   1.480  0.4950 -0.2234 -0.2606
   36MOL   C59634266   2.967   0.758   1.541 -0.1314 -0.5191  0.3432
   36MOL   C59734267   2.899   0.841   1.435  0.2801  0.0516  0.2341
   36MOL   C59834268   2.790   0.936   1.489  0.0867  0.7668  0.1532
   36MOL   O59934269   2.696   0.883   1.550 -0.2445 -0.1616 -0.6635
   36MOL   H60034270   4.057   0.457   1.880  1.7117  0.5368  1.2450
   36MOL   H60134271   3.851   0.580   2.053 -0.1984 -0.5890  0.4451
   36MOL   H60234272   4.020   0.522   2.098  0.9162  0.2568 -1.0156
   36MOL   H60334273   4.071   0.300   2.142  0.0513  0.2767 -0.2592
   36MOL   H60434274   3.983   0.077   2.223 -0.6715 -0.9825 -1.1110
   36MOL   H60534275   3.738   0.028   2.201  0.2818  0.5872  0.5835
   36MOL   H60634276   3.588   0.188   2.123  0.4074 -1.1020  0.6220
   36MOL   H60734277   3.709   0.453   1.901  1.3978 -1.1313  0.8875
   36MOL   H60834278   3.637   0.536   2.029  0.9512  0.7277  0.5071
   36MOL   H60934279   3.532   0.315   1.876  2.3443 -1.6368  1.5233
   36MOL   H61034280   3.268   0.243   2.044 -0.4142  2.5216  0.1525
   36MOL   H61134281   3.332   0.212   1.889 -1.2977 -1.4345  1.1436
   36MOL   H61234282   3.138   0.443   1.945  0.7629  2.4966 -0.7790
   36MOL   H61334283   3.095   0.286   1.879  1.0223 -0.2555  0.5871
   36MOL   H61434284   3.296   0.490   1.760  0.4126 -0.7814 -0.2787
   36MOL   H61534285   3.231   0.355   1.675  0.2448  0.3202 -1.4418
   36MOL   H61634286   3.029   0.435   1.642  0.9493 -0.6101 -1.7622
   36MOL   H61734287   3.046   0.575   1.757 -0.3522 -0.2661 -0.6151
   36MOL   H61834288   3.224   0.664   1.634  1.2603 -0.4589 -2.5906
   36MOL   H61934289   3.219   0.528   1.527  1.2840 -0.7295  2.0327
   36MOL   H62034290   3.028   0.595   1.418  0.0318 -1.0634  1.0820
   36MOL   H62134291   3.148   0.730   1.424  1.2094  0.9981  1.9075
   36MOL   H62234292   2.900   0.690   1.592  0.6272 -2.1752 -0.8052
   36MOL   H62334293   3.002   0.827   1.618 -0.6050  1.5253 -1.2450
   36MOL   H62434294   2.985   0.886   1.385  0.7952  0.2339  1.2750
   36MOL   H62534295   2.850   0.780   1.359 -1.0421 -0.0302  1.1316
   36MOL   N62634296   2.797   1.062   1.450  1.0335 -0.9987 -0.1955
   36MOL   C62734297   2.698   1.169   1.479  0.8270  0.0609 -0.5617
   36MOL   C62834298   2.574   1.150   1.388 -0.2942  0.2015 -0.1663
   36MOL   C62934299   2.588   1.164   1.247 -1.0897 -0.2562  0.3563
   36MOL   C63034300   2.483   1.140   1.158 -0.3692 -0.2313  0.4038
   36MOL   C63134301   2.352   1.133   1.208 -0.4770  0.4519  0.5696
   36MOL   C63234302   2.334   1.137   1.347  0.6368 -0.5365  0.1442
   36MOL   C63334303   2.440   1.139   1.437  0.3774 -0.0832 -0.1552
   36MOL   C63434304   2.404   1.116   1.577 -0.1151 -0.0959  0.2466
   36MOL   N63534305   2.472   0.995   1.624  0.0796 -0.2093 -0.2839
   36MOL   C63634306   2.439   0.941   1.742 -0.3215 -0.0654 -0.9046
   36MOL   O63734307   2.359   1.001   1.820  0.4833 -0.0286  0.4479
   36MOL   C63834308   2.503   0.809   1.785 -0.4931  0.3420  0.7899
   36MOL   C63934309   2.617   0.828   1.875 -0.4152  0.1185 -0.7596
   36MOL   C64034310   2.688   0.701   1.925  0.4987  0.7117  0.2943
   36MOL   C64134311   2.804   0.739   2.019 -0.2269  0.0918 -0.6057
   36MOL   C64234312   2.882   0.606   2.054  0.1383  0.1303 -0.2519
   36MOL   C64334313   2.992   0.617   2.157 -0.1312 -0.0066 -0.3027
   36MOL   C64434314   3.090   0.734   2.138 -0.1523  0.8361 -0.4541
   36MOL   C64534315   3.209   0.735   2.240 -0.1655 -0.7841  0.1367
   36MOL   C64634316   3.318   0.830   2.188  0.1186  0.0351 -0.5554
   36MOL   O64734317   3.294   0.949   2.172 -0.2115 -0.0835 -0.2573
   36MOL   H64834318   2.870   1.096   1.389 -0.2748  1.9438 -0.2122
   36MOL   H64934319   2.733   1.271   1.467 -0.1816  0.6519  1.3839
   36MOL   H65034320   2.676   1.163   1.585  2.5277 -1.0585 -0.2530
   36MOL   H65134321   2.689   1.186   1.216 -1.0165  0.5548  1.1600
   36MOL   H65234322   2.503   1.149   1.053 -0.9263  0.0076  0.3120
   36MOL   H65334323   2.271   1.139   1.137 -1.0870 -1.0676  1.1179
   36MOL   H65434324   2.231   1.144   1.377  0.5832  0.5064 -0.2402
   36MOL   H65534325   2.296   1.102   1.577 -0.0310 -0.8161 -0.6340
   36MOL   H65634326   2.430   1.192   1.650  2.6689 -1.8422  1.1672
   36MOL   H65734327   2.541   0.955   1.563  0.4974  1.5202 -0.9657
   36MOL   H65834328   2.538   0.755   1.697  0.9997  0.2329  1.4469
   36MOL   H65934329   2.427   0.742   1.826  1.1147 -1.6385  0.5982
   36MOL   H66034330   2.574   0.891   1.953 -2.7663 -0.9091 -1.2045
   36MOL   H66134331   2.694   0.890   1.828 -0.1977 -0.8775 -1.7396
   36MOL   H66234332   2.620   0.632   1.976  1.8349 -0.8576 -0.0188
   36MOL   H66334333   2.729   0.650   1.838 -0.4647 -0.2493  0.3884
   36MOL   H66434334   2.867   0.820   1.982  0.1195  0.8205  1.4793
   36MOL   H66534335   2.762   0.777   2.113 -2.8442 -1.3609 -1.1358
   36MOL   H66634336   2.817   0.527   2.092  0.9276 -1.1528 -1.4810
   36MOL   H66734337   2.926   0.574   1.959 -0.3175 -1.4916  0.0751
   36MOL   H66834338   3.057   0.532   2.179  0.9884  0.9906  0.3181
   36MOL   H66934339   2.937   0.629   2.250  2.6770 -1.1890  1.5691
   36MOL   H67034340   3.116   0.732   2.032  1.8240 -0.7204  0.0279
   36MOL   H67134341   3.035   0.828   2.151 -1.2793  0.3150 -1.3709
   36MOL   H67234342   3.243   0.633   2.258  2.7096 -0.0590 -1.0006
   36MOL   H67334343   3.172   0.759   2.340  0.3812  0.0878  0.1325
   36MOL   N67434344   3.436   0.775   2.159  0.3332 -0.2138  0.3748
   36MOL   C67534345   3.561   0.843   2.142 -0.1240  0.0940  0.1336
   36MOL   C67634346   3.683   0.777   2.205 -0.4337  0.7518 -0.8331
   36MOL   C67734347   3.670   0.651   2.272 -0.3241  0.2139  0.2107
   36MOL   C67834348   3.779   0.604   2.350 -0.0541  0.6593  0.0113
   36MOL   C67934349   3.906   0.664   2.337 -0.0333  0.4559  0.5083
   36MOL   C68034350   3.914   0.793   2.281  0.3646  0.5105 -0.3206
   36MOL   C68134351   3.801   0.854   2.222 -0.3141  0.5387 -0.2002
   36MOL   C68234352   3.825   0.987   2.152 -0.0438  0.1839 -0.5885
   36MOL   N68334353   3.859   0.966   2.012 -0.1569 -0.0004  0.0534
   36MOL   C68434354   3.825   1.039   1.906  0.2852  0.1745 -0.0734
   36MOL   O68534355   3.724   1.116   1.911  0.9787 -0.2903  0.0624
   36MOL   C68634356   3.914   1.018   1.781 -0.3358  0.6039  0.5741
   36MOL   C68734357   3.846   1.021   1.645  0.6379 -0.4771 -0.4945
   36MOL   C68834358   3.948   1.013   1.528 -0.5724 -0.0101 -0.1888
   36MOL   C68934359   3.889   1.029   1.395 -0.0315  0.6021  0.4984
   36MOL   C69034360   3.971   1.006   1.277  0.1013 -0.4705  0.1605
   36MOL   C69134361   3.898   0.950   1.150 -0.1240 -0.6801 -0.7928
   36MOL   C69234362   4.002   0.940   1.041  0.2034  0.2723  0.0820
   36MOL   C69334363   4.059   1.082   0.984  0.5518 -0.2459 -0.1704
   36MOL   C69434364   4.209   1.106   1.005  0.1739  0.4187  0.2822
   36MOL   O69534365   4.284   1.042   0.931 -0.1597  0.4041 -0.3610
   36MOL   H69634366   3.432   0.674   2.157 -0.1635 -0.2222  1.5604
   36MOL   H69734367   3.549   0.941   2.189 -1.4534 -0.8735  1.8430
   36MOL   H69834368   3.575   0.869   2.037  0.5747  1.2335  0.4925
   36MOL   H69934369   3.577   0.598   2.263  0.1466 -0.2424 -2.3545
   36MOL   H70034370   3.767   0.505   2.392  2.7560  0.7527  1.1471
   36MOL   H70134371   3.991   0.618   2.385  0.2096  0.1212 -0.2408
   36MOL   H70234372   4.003   0.854   2.280  1.4583 -1.0737 -0.1358
   36MOL   H70334373   3.904   1.046   2.199  0.4352 -0.2268 -0.8823
   36MOL   H70434374   3.739   1.054   2.163  0.0011  0.2337 -0.5381
   36MOL   H70534375   3.933   0.899   1.995 -0.7795 -0.2331 -1.9413
   36MOL   H70634376   3.955   0.918   1.792  0.4998  0.5632 -2.3933
   36MOL   H70734377   4.001   1.084   1.778  0.5340 -0.5751 -1.7822
   36MOL   H70834378   3.789   1.111   1.619 -0.4517 -0.7071  1.0333
   36MOL   H70934379   3.777   0.937   1.635 -0.9274  0.6872  0.2581
   36MOL   H71034380   4.019   1.094   1.542  1.7565 -2.0853  0.2567
   36MOL   H71134381   4.001   0.918   1.539  0.4029  0.4800 -0.5988
   36MOL   H71234382   3.821   0.945   1.407  1.6373 -0.4737  2.8154
   36MOL   H71334383   3.828   1.120   1.388 -1.2433 -0.1300  1.3864
   36MOL   H71434384   4.016   1.103   1.256 -0.7702  0.4120  2.1510
   36MOL   H71534385   4.047   0.929   1.292  0.5855  0.3292  2.0139
   36MOL   H71634386   3.813   1.003   1.107  0.1358  0.0508 -0.4186
   36MOL   H71734387   3.862   0.851   1.175  0.7209 -0.6685  0.5472
   36MOL   H71834388   3.968   0.874   0.962  0.4497 -0.0185  0.2175
   36MOL   H71934389   4.087   0.883   1.080  1.1398  1.5823  0.0028
   36MOL   H72034390   3.996   1.161   1.026 -0.0957  0.3819 -2.2314
   36MOL   H72134391   4.033   1.079   0.878 -1.9925 -0.2101  0.4027
   36MOL   N72234392   4.252   1.207   1.084 -0.3173  0.9630 -0.0288
   36MOL   C72334393   4.390   1.225   1.122  0.2730 -0.5077 -0.1301
   36MOL   C72434394   4.399   1.218   1.269  0.2295  0.2824  0.3152
   36MOL   C72534395   4.323   1.130   1.354  0.3687  0.0820  0.6239
   36MOL   C72634396   4.326   1.125   1.489 -0.6539  0.1573 -0.6317
   36MOL   C72734397   4.407   1.222   1.552 -0.4249 -0.2581  0.0570
   36MOL   C72834398   4.486   1.306   1.479  0.8084 -0.5810  0.0703
   36MOL   C72934399   4.487   1.307   1.335  0.3178  0.4607 -0.1532
   36MOL   C73034400   4.589   1.395   1.262 -0.0811  0.3654  0.3994
   36MOL   N73134401   4.541   1.534   1.249  0.2491  0.0349  0.0461
   36MOL   C73234402   4.538   1.605   1.133  0.4699  0.5489 -0.4716
   36MOL   O73334403   4.570   1.560   1.018 -0.4406  0.1086  0.2236
   36MOL   C73434404   4.502   1.754   1.152  0.0649 -0.1167 -0.1551
   36MOL   C73534405   4.399   1.815   1.052 -0.3407 -0.1713  0.2104
   36MOL   C73634406   4.464   1.865   0.920  0.1642 -0.1698  0.2556
   36MOL   C73734407   4.351   1.931   0.838  0.1698 -0.6150  0.2269
   36MOL   C73834408   4.383   1.957   0.691 -0.0710 -0.2474  0.0168
   36MOL   C73934409   4.493   2.062   0.679 -0.1437 -0.0837  0.2500
   36MOL   C74034410   4.505   2.131   0.535  0.1167 -0.1283 -0.2665
   36MOL   C74134411   4.528   2.043   0.414  0.3412 -0.0964 -0.1412
   36MOL   C74234412   4.669   1.995   0.407  0.6249  0.0249  0.6266
   36MOL   O74334413   4.764   2.053   0.457 -0.5811 -0.5453  0.3866
   36MOL   H74434414   4.181   1.241   1.147 -0.4028 -0.0889  0.4580
   36MOL   H74534415   4.425   1.318   1.077 -1.1405 -0.2429 -0.7160
   36MOL   H74634416   4.456   1.143   1.091  1.5943  0.8995 -1.1010
   36MOL   H74734417   4.254   1.067   1.298 -1.7154  2.2981  0.6089
   36MOL   H74834418   4.278   1.052   1.553  0.7515 -0.0763  0.1809
   36MOL   H74934419   4.406   1.228   1.660 -1.7925  0.4005  0.0202
   36MOL   H75034420   4.552   1.376   1.527 -1.0316  2.1000 -1.1760
   36MOL   H75134421   4.608   1.358   1.162  0.9542  0.9537  0.3748
   36MOL   H75234422   4.682   1.404   1.318  0.2849 -1.8643  0.1841
   36MOL   H75334423   4.525   1.583   1.336 -1.2155 -0.5600  0.1212
   36MOL   H75434424   4.589   1.816   1.169 -0.2638  0.8067 -1.7338
   36MOL   H75534425   4.452   1.759   1.249 -2.4559 -1.9783 -1.2823
   36MOL   H75634426   4.343   1.895   1.101  0.7179 -0.1989  1.4749
   36MOL   H75734427   4.311   1.753   1.035 -0.1992 -1.0834  2.5247
   36MOL   H75834428   4.549   1.933   0.926  0.5941 -0.8044  1.4196
   36MOL   H75934429   4.498   1.777   0.866 -2.1494 -0.3971 -0.9230
   36MOL   H76034430   4.258   1.874   0.843  1.3339 -2.6354 -0.7814
   36MOL   H76134431   4.313   2.020   0.890 -1.1436 -2.7010  2.9851
   36MOL   H76234432   4.416   1.870   0.635 -0.2633  1.4708 -2.8934
   36MOL   H76334433   4.297   1.999   0.637  1.0931  2.9893  0.5272
   36MOL   H76434434   4.589   2.013   0.698 -0.0813 -0.5696 -1.2119
   36MOL   H76534435   4.487   2.132   0.762  0.9049 -1.3659  1.4404
   36MOL   H76634436   4.415   2.192   0.527 -0.9410 -1.6329  0.0784
   36MOL   H76734437   4.587   2.203   0.539  0.4297 -0.5747  1.9311
   36MOL   H76834438   4.474   1.950   0.429  0.1546  0.1064  0.4441
   36MOL   H76934439   4.498   2.087   0.318 -1.0323  1.2556  0.8850
   36MOL   N77034440   4.695   1.880   0.351  0.0494  0.3454  0.3176
   36MOL   C77134441   4.828   1.814   0.341 -0.2137 -0.0706 -0.3500
   36MOL   C77234442   4.930   1.873   0.243  0.0349  0.8956 -0.5469
   36MOL   C77334443   4.886   1.890   0.115 -0.3786  0.1405  0.7067
   36MOL   C77434444   4.965   1.949   0.016 -0.3411  0.8985 -0.3827
   36MOL   C77534445   5.103   1.978   0.043  0.4634 -0.4896  0.2764
   36MOL   C77634446   5.148   1.965   0.178  0.1330 -0.2759  0.6630
   36MOL   C77734447   5.059   1.920   0.278 -0.0354  0.0679 -0.0531
   36MOL   C77834448   5.110   1.913   0.427 -0.1344  0.1740 -0.2650
   36MOL   N77934449   5.065   2.034   0.497  0.1012 -0.6140  0.2672
   36MOL   C78034450   5.143   2.145   0.523 -0.5522  0.0098  0.8821
   36MOL   O78134451   5.259   2.127   0.555  0.0049 -0.1387 -0.3216
   36MOL   C78234452   5.104   2.285   0.497 -0.3865 -0.2476 -0.1437
   36MOL   C78334453   5.198   2.351   0.393 -0.2476 -0.5149  0.1880
   36MOL   C78434454   5.323   2.420   0.446 -0.1294  0.6443  0.4055
   36MOL   C78534455   5.421   2.458   0.329  0.2112  0.2559  0.0118
   36MOL   C78634456   5.473   2.334   0.247  0.5849 -0.1432 -0.9187
   36MOL   C78734457   5.514   2.208   0.323  0.3019 -0.2267  0.2666
   36MOL   C78834458   5.577   2.092   0.236 -0.0095 -1.1747  0.4397
   36MOL   C78934459   5.589   1.968   0.315 -0.8283 -0.3152  0.3978
   36MOL   C79034460   5.607   1.835   0.236  0.7887 -0.6153 -0.8851
   36MOL   O79134461   5.509   1.776   0.185  0.3441  0.1560  1.0492
   36MOL   H79234462   4.613   1.828   0.323  1.6985 -0.3916 -3.4302
   36MOL   H79334463   4.872   1.800   0.440  1.5330 -1.1049 -1.2543
   36MOL   H79434464   4.812   1.712   0.307  2.8867 -1.1384  1.1429
   36MOL   H79534465   4.788   1.852   0.092 -0.2327 -0.2269  0.6878
   36MOL   H79634466   4.920   1.959   7.708 -0.0290 -0.9079 -0.7210
   36MOL   H79734467   5.164   2.016   7.753 -1.2670 -0.1651 -0.9241
   36MOL   H79834468   5.249   1.989   0.207  1.2204 -1.9060 -1.6194
   36MOL   H79934469   5.218   1.910   0.436 -0.2078 -0.1637  0.4930
   36MOL   H80034470   5.067   1.831   0.485  0.2092 -1.8996 -2.8424
   36MOL   H80134471   4.968   2.061   0.487  1.0369  2.3466 -1.4948
   36MOL   H80234472   5.104   2.340   0.591 -2.1005 -0.0679 -0.2401
   36MOL   H80334473   5.001   2.285   0.462 -0.5196 -1.6523  0.2150
   36MOL   H80434474   5.145   2.434   0.346 -0.8460 -0.5765  0.7344
   36MOL   H80534475   5.223   2.284   0.311 -1.9194  0.4150 -1.1263
   36MOL   H80634476   5.387   2.369   0.518  0.5189 -0.3555 -0.8781
   36MOL   H80734477   5.302   2.506   0.510 -3.3567  0.4017 -0.2280
   36MOL   H80834478   5.374   2.522   0.254 -2.0533  0.6563  1.6890
   36MOL   H80934479   5.510   2.496   0.379  2.7020 -3.3302 -1.4754
   36MOL   H81034480   5.395   2.308   0.176 -1.8872  1.3620  1.1853
   36MOL   H81134481   5.550   2.374   0.180 -0.1388  0.3227 -1.4756
   36MOL   H81234482   5.422   2.164   0.361  0.7555  0.4160  2.1831
   36MOL   H81334483   5.584   2.230   0.404 -1.8762  3.1903  1.3238
   36MOL   H81434484   5.670   2.122   0.188 -0.1461 -1.5693 -0.0724
   36MOL   H81534485   5.504   2.065   0.160 -2.3155 -1.0078  2.4932
   36MOL   H81634486   5.496   1.951   0.370 -1.3620  0.8597 -0.1234
   36MOL   H81734487   5.677   1.985   0.378 -1.8370  0.6324  1.5809
   36MOL   N81834488   5.731   1.791   0.236 -0.2821  0.6397 -0.1233
   36MOL   C81934489   5.781   1.659   0.193  0.0773  0.4673 -0.6080
   36MOL   C82034490   5.742   1.547   0.297  0.0982  0.1804  0.1214
   36MOL   C82134491   5.812   1.551   0.417  0.1687  0.1682 -0.0106
   36MOL   C82234492   5.794   1.446   0.509  0.5535 -0.4495 -0.3421
   36MOL   C82334493   5.723   1.332   0.467  0.2111 -0.8924  0.1004
   36MOL   C82434494   5.660   1.330   0.344 -0.2844  0.5533 -0.1737
   36MOL   C82534495   5.671   1.433   0.250 -0.6450 -0.0916 -0.3406
   36MOL   C82634496   5.613   1.424   0.111  0.0572 -0.0361  0.1205
   36MOL   N82734497   5.505   1.519   0.087 -0.3526 -0.5465 -0.5799
   36MOL   C82834498   5.412   1.504   7.774  0.5863  0.2553 -0.4483
   36MOL   O82934499   5.409   1.401   7.708 -0.5477 -0.1327  0.0636
   36MOL   C83034500   5.308   1.616   7.746 -0.1689 -0.0693 -0.5233
   36MOL   C83134501   5.198   1.581   7.647  0.2461  0.0300 -0.3141
   36MOL   C83234502   5.078   1.678   7.642  1.1634 -0.4977  0.1617
   36MOL   C83334503   4.973   1.631   7.544  0.6113  0.2690 -0.5114
   36MOL   C83434504   4.834   1.702   7.549 -0.0950 -0.2541 -0.2561
   36MOL   C83534505   4.825   1.833   7.469  0.2563  0.3618 -0.2162
   36MOL   C83634506   4.760   1.812   7.334 -0.0771 -0.2136  0.4900
   36MOL   C83734507   4.756   1.948   7.266  0.5853  0.6327 -0.9130
   36MOL   C83834508   4.719   1.930   7.118  0.0222 -0.1788 -0.3249
   36MOL   O83934509   4.626   1.855   7.085  0.0887 -0.7183  0.0287
   36MOL   H84034510   5.800   1.850   0.280 -0.5655  0.5013  0.5214
   36MOL   H84134511   5.761   1.634   0.089  0.1773 -0.7124 -0.3486
   36MOL   H84234512   5.890   1.648   0.191  0.0609  0.5029 -1.9372
   36MOL   H84334513   5.875   1.634   0.444  1.0014 -0.5312  0.2449
   36MOL   H84434514   5.837   1.447   0.608 -0.0925 -1.2661 -0.0458
   36MOL   H84534515   5.704   1.244   0.528 -1.1940 -1.1790 -0.7411
   36MOL   H84634516   5.598   1.245   0.322  1.2650 -0.5222 -0.4882
   36MOL   H84734517   5.570   1.325   0.095 -1.7382  0.7188  0.1675
   36MOL   H84834518   5.693   1.428   0.037 -1.0756  2.4176 -1.0387
   36MOL   H84934519   5.502   1.607   0.137 -2.0598 -2.3128  2.6221
   36MOL   H85034520   5.361   1.706   7.714 -1.8089  0.9480 -0.4195
   36MOL   H85134521   5.274   1.649   0.054 -2.1701  0.6339 -1.4287
   36MOL   H85234522   5.161   1.480   7.666  1.4729 -0.1003  1.5584
   36MOL   H85334523   5.241   1.582   7.547  2.8296 -1.5532  0.7249
   36MOL   H85434524   5.096   1.783   7.617  0.6056 -0.7032 -1.1583
   36MOL   H85534525   5.021   1.681   7.735 -0.4138 -0.2156 -0.7834
   36MOL   H85634526   5.017   1.643   7.445 -0.2650  2.2546 -0.6844
   36MOL   H85734527   4.947   1.525   7.551 -1.3116  0.7349 -0.3088
   36MOL   H85834528   4.754   1.640   7.509  0.9269 -1.5618 -0.3056
   36MOL   H85934529   4.805   1.718   7.653 -2.9121  3.1614 -1.4432
   36MOL   H86034530   4.918   1.890   7.459 -0.6502  1.8638 -0.3320
   36MOL   H86134531   4.762   1.898   7.530 -1.2341 -0.3810 -0.9331
   36MOL   H86234532   4.658   1.776   7.353 -0.1973 -0.0735  0.1046
   36MOL   H86334533   4.807   1.743   7.264 -1.7310 -1.0880  0.1951
   36MOL   H86434534   4.687   2.013   7.320  0.7656 -0.8128  1.0866
   36MOL   H86534535   4.861   1.978   7.275  1.2687 -1.8150 -0.5356
   36MOL   N86634536   4.788   1.998   7.032  0.1467  0.7400  0.6647
   36MOL   C86734537   4.750   1.995   6.891 -0.5633 -0.5290  0.2821
   36MOL   C86834538   4.745   2.125   6.820  0.1106  0.2717  0.3839
   36MOL   C86934539   4.753   2.246   6.894  0.1626  0.2871  0.4297
   36MOL   C87034540   4.741   2.373   6.835 -0.5064  0.0049  0.0559
   36MOL   C87134541   4.714   2.375   6.691  0.2467 -0.1311  0.4954
   36MOL   C87234542   4.705   2.257   6.617 -0.1645 -0.9395 -0.0347
   36MOL   C87334543   4.725   2.128   6.677 -0.0679 -0.1510 -0.2920
   36MOL   C87434544   4.736   2.006   6.579 -0.0547  0.1347 -0.7342
   36MOL   N87534545   4.834   2.022   6.470 -0.0534  0.2217 -0.3604
   36MOL   C87634546   4.806   2.015   6.339 -0.2963 -0.1957  0.0555
   36MOL   O87734547   4.690   1.992   6.299 -0.3629  0.4048  0.0607
   36MOL   C87834548   4.928   2.048   6.244  0.1753 -0.1998 -0.2892
   36MOL   C87934549   4.926   1.969   6.114 -0.5510 -0.3219  0.5645
   36MOL   C88034550   4.996   1.838   6.093 -0.3943  0.1123 -0.2174
   36MOL   C88134551   4.909   1.728   6.153 -0.4523  0.3057  0.2674
   36MOL   C88234552   4.993   1.599   6.165 -0.0964  0.1373 -0.3892
   36MOL   C88334553   4.915   1.468   6.190  0.6544 -0.3156 -0.1558
   36MOL   C88434554   4.992   1.337   6.183  0.1648  0.0555 -0.6207
   36MOL   C88534555   4.903   1.214   6.158 -0.5327 -0.1344 -0.0668
   36MOL   C88634556   4.988   1.094   6.133  0.3941 -0.0697 -0.5430
   36MOL   O88734557   5.043   1.041   6.226  0.4057 -0.1038 -0.4016
   36MOL   H88834558   4.870   2.049   7.060  0.8349 -0.4352  0.7852
   36MOL   H88934559   4.830   1.942   6.839 -0.3381 -0.7869  0.8858
   36MOL   H89034560   4.657   1.942   6.868 -0.5109 -0.3585 -0.3181
   36MOL   H89134561   4.776   2.253   6.999  1.4785 -3.3086  0.4676
   36MOL   H89234562   4.742   2.468   6.887 -1.8465  0.1512 -0.1661
   36MOL   H89334563   4.704   2.469   6.637  0.8512  0.2263  0.9955
   36MOL   H89434564   4.685   2.260   6.511 -3.9946 -2.6568  0.5511
   36MOL   H89534565   4.634   1.973   6.555  0.2341 -0.6249 -0.9318
   36MOL   H89634566   4.779   1.924   6.636  2.0711  0.8072 -1.3468
   36MOL   H89734567   4.929   2.040   6.498  0.3820  0.2819 -1.8714
   36MOL   H89834568   5.023   2.025   6.293  0.5380 -1.6383 -1.6262
   36MOL   H89934569   4.920   2.156   6.232 -0.4633 -0.3649 -1.4500
   36MOL   H90034570   4.979   2.030   6.041 -3.3119  0.8058 -0.5555
   36MOL   H90134571   4.824   1.962   6.077 -1.3725  1.0736  2.4683
   36MOL   H90234572   5.001   1.820   5.986 -0.6684  0.6950 -0.3309
   36MOL   H90334573   5.092   1.844   6.143  0.2346 -1.8737 -1.1343
   36MOL   H90434574   4.872   1.754   6.253  0.0397 -0.8243  0.7585
   36MOL   H90534575   4.818   1.713   6.095 -1.1906  1.8940  0.9793
   36MOL   H90634576   5.040   1.575   6.070  0.2165  1.1943 -0.5030
   36MOL   H90734577   5.074   1.607   6.238  0.3132 -1.9904 -0.5759
   36MOL   H90834578   4.828   1.468   6.125  0.8117 -1.1597 -0.3673
   36MOL   H90934579   4.879   1.477   6.293 -1.3552 -1.9732 -0.6874
   36MOL   H91034580   5.068   1.332   6.105  2.0240 -0.9440  1.1817
   36MOL   H91134581   5.040   1.336   6.281 -1.1211  0.5617  0.0287
   36MOL   H91234582   4.839   1.183   6.241 -0.1166  1.3157  0.8115
   36MOL   H91334583   4.840   1.247   6.076 -0.6857 -0.4667 -0.0858
   36MOL   N91434584   4.993   1.047   6.008  0.2150 -0.3086  0.3283
   36MOL   C91534585   5.062   0.924   5.969 -0.0693 -0.1484 -0.6479
   36MOL   C91634586   5.173   0.957   5.871  0.0413  0.2469  0.5808
   36MOL   C91734587   5.139   0.999   5.744 -0.3527 -0.1790 -0.6974
   36MOL   C91834588   5.238   1.014   5.644 -0.2406 -0.4347  0.4288
   36MOL   C91934589   5.374   1.017   5.682  0.5311 -0.1106 -0.5469
   36MOL   C92034590   5.417   0.984   5.814  0.6656 -1.0433  0.3540
   36MOL   C92134591   5.312   0.958   5.909  0.3535 -0.1602 -0.0036
   36MOL   C92234592   5.358   0.919   6.051 -0.5756 -0.5379 -0.8054
   36MOL   N92334593   5.310   1.015   6.157 -0.5410  0.9941 -0.0744
   36MOL   C92434594   5.385   1.096   6.224  0.3627  0.6899  0.3987
   36MOL   O92534595   5.504   1.109   6.197  0.5427 -0.1712  0.9407
   36MOL   C92634596   5.318   1.183   6.322  0.4528 -1.1431 -0.2853
   36MOL   C92734597   5.373   1.323   6.343 -0.1663  0.7180 -0.2986
   36MOL   C92834598   5.320   1.430   6.248  0.0428  0.5344  0.0633
   36MOL   C92934599   5.412   1.549   6.268  0.1927  0.4559 -0.1730
   36MOL   C93034600   5.377   1.675   6.181 -0.1442  1.0971 -0.3404
   36MOL   C93134601   5.412   1.655   6.035 -0.2170 -0.2791 -0.0516
   36MOL   C93234602   5.351   1.766   5.948  0.4014 -0.1100  0.3431
   36MOL   C93334603   5.326   1.739   5.797  0.2336 -0.4892  0.0410
   36MOL   C93434604   5.214   1.639   5.765 -0.4636 -0.4401  0.3155
   36MOL   O93534605   5.103   1.678   5.731 -0.5325  0.0124  0.0634
   36MOL   H93634606   4.940   1.100   5.940 -0.6952 -1.8429 -0.1825
   36MOL   H93734607   5.084   0.861   6.055  1.2183  1.9476  0.5825
   36MOL   H93834608   4.992   0.867   5.907 -0.7621  1.4092 -1.3225
   36MOL   H93934609   5.034   0.997   5.720 -0.5216  1.5304 -0.2121
   36MOL   H94034610   5.215   1.035   5.541  0.8692  3.1286  0.8361
   36MOL   H94134611   5.438   1.013   5.596  0.0018 -0.6771 -0.9191
   36MOL   H94234612   5.520   0.983   5.846  0.9902  1.6159 -0.4620
   36MOL   H94334613   5.467   0.909   6.055 -0.6959 -1.5857  0.3714
   36MOL   H94434614   5.311   0.824   6.076  0.0894 -0.3953  1.1555
   36MOL   H94534615   5.214   0.999   6.184 -0.2912  1.8599  1.4118
   36MOL   H94634616   5.315   1.119   6.410 -1.6093  0.1141  0.5802
   36MOL   H94734617   5.212   1.190   6.297  1.0989  1.1360 -2.5940
   36MOL   H94834618   5.482   1.320   6.334  0.1364  1.0992  2.6705
   36MOL   H94934619   5.342   1.348   6.444 -0.4371 -0.9282  0.0398
   36MOL   H95034620   5.321   1.396   6.145 -1.9904 -1.9434  0.8208
   36MOL   H95134621   5.219   1.460   6.278  0.2865  1.3258  0.1237
   36MOL   H95234622   5.427   1.576   6.372 -2.9331  0.4477  0.3181
   36MOL   H95334623   5.511   1.511   6.244  0.6206 -0.3275  2.6572
   36MOL   H95434624   5.425   1.764   6.223  0.8275  0.7131 -0.6176
   36MOL   H95534625   5.270   1.695   6.180 -0.0428  1.6509 -0.5638
   36MOL   H95634626   5.518   1.669   6.012  0.2000 -1.0927  1.3397
   36MOL   H95734627   5.381   1.555   6.007  1.5664 -0.5021 -1.3656
   36MOL   H95834628   5.404   1.858   5.973 -0.4454  0.5196 -0.1626
   36MOL   H95934629   5.250   1.779   5.988 -0.1376 -1.6179 -0.4756
   36MOL   H96034630   5.418   1.708   5.747  1.7060  2.2344  0.9190
   36MOL   H96134631   5.307   1.838   5.755  0.2319  0.0985  1.4141
   36MOL   H96234632   5.244   1.535   5.758 -1.0456 -0.5680 -0.3312
   37MOL     N134633   3.424   1.399   6.275 -0.7988  0.0327 -0.5801
   37MOL     C234634   3.559   1.449   6.289 -0.0632 -0.3410 -0.5737
   37MOL     C334635   3.583   1.496   6.430  0.6945 -0.4561  0.1219
   37MOL     C434636   3.643   1.412   6.529 -0.6524 -0.1117 -0.6599
   37MOL     C534637   3.675   1.451   6.661  0.1881  0.5092  0.1660
   37MOL     C634638   3.660   1.587   6.691 -0.0519 -0.3627  0.1068
   37MOL     C734639   3.592   1.676   6.604  0.5583  0.1702 -0.5623
   37MOL     C834640   3.545   1.635   6.474  0.1446  0.0961 -0.5624
   37MOL     C934641   3.454   1.724   6.390  0.1688 -0.8148  0.0711
   37MOL    N1034642   3.412   1.850   6.447 -0.3051 -0.4019  0.6029
   37MOL    C1134643   3.288   1.904   6.444 -0.6850 -0.4596  0.0317
   37MOL    O1234644   3.201   1.845   6.375  0.3314  0.3921  0.2746
   37MOL    C1334645   3.253   2.039   6.514  0.2893 -0.1159 -0.9514
   37MOL    C1434646   3.107   2.091   6.483  0.2649 -0.5117 -0.5120
   37MOL    C1534647   3.076   2.124   6.336 -0.2858 -0.2741 -0.7786
   37MOL    C1634648   2.931   2.148   6.299 -0.5463  0.0073 -0.9779
   37MOL    C1734649   2.876   2.288   6.335 -0.7797  0.3682  0.7468
   37MOL    C1834650   2.785   2.349   6.228 -0.2475  0.6267 -0.0077
   37MOL    C1934651   2.742   2.493   6.257  0.2770 -0.9826 -0.2519
   37MOL    C2034652   2.742   2.586   6.131 -0.1986 -0.1162  0.0297
   37MOL    C2134653   2.669   2.709   6.173 -0.0848  0.1363 -0.4677
   37MOL    O2234654   2.551   2.706   6.196  0.2176 -0.2340  0.1928
   37MOL    H2334655   3.418   1.300   6.257 -0.0132 -0.3124  1.0227
   37MOL    H2434656   3.642   1.385   6.259 -0.0387 -0.3959 -0.3842
   37MOL    H2534657   3.552   1.536   6.224 -0.1237 -0.5749 -0.8819
   37MOL    H2634658   3.663   1.310   6.500  2.5395  0.4343 -0.5520
   37MOL    H2734659   3.706   1.380   6.735  1.6990  1.3221  0.3313
   37MOL    H2834660   3.690   1.619   6.790 -1.1721  0.0926  0.3081
   37MOL    H2934661   3.565   1.776   6.633 -0.8531 -0.7341  1.3153
   37MOL    H3034662   3.365   1.671   6.358 -0.0952 -0.3711  0.0717
   37MOL    H3134663   3.503   1.759   6.299 -3.3416  2.5081 -0.6581
   37MOL    H3234664   3.484   1.896   6.501  0.0548  1.4845 -1.3824
   37MOL    H3334665   3.327   2.112   6.480  0.4094  0.8092  1.2295
   37MOL    H3434666   3.266   2.025   6.621 -2.6324 -0.6489 -0.6227
   37MOL    H3534667   3.083   2.173   6.550  1.9948  0.0814 -0.5999
   37MOL    H3634668   3.030   2.018   6.511  0.3910 -0.4148  0.0922
   37MOL    H3734669   3.140   2.205   6.303 -0.0866  0.6976  1.8541
   37MOL    H3834670   3.105   2.030   6.289 -0.6094 -0.0014 -1.5312
   37MOL    H3934671   2.933   2.123   6.193 -1.5550 -1.2697 -0.7159
   37MOL    H4034672   2.863   2.075   6.344 -0.3136  0.5878  0.3367
   37MOL    H4134673   2.814   2.290   6.425  0.6607 -0.2532  1.7658
   37MOL    H4234674   2.947   2.369   6.349 -0.9318  0.6700 -0.1776
   37MOL    H4334675   2.697   2.285   6.227 -0.0645  0.3296  1.6121
   37MOL    H4434676   2.823   2.329   6.128 -2.0272 -1.2635 -0.3506
   37MOL    H4534677   2.645   2.485   6.307 -0.1437  2.4183 -0.4195
   37MOL    H4634678   2.815   2.536   6.326 -1.2600 -1.2891  1.6031
   37MOL    H4734679   2.682   2.539   6.053 -0.3015 -1.9512  1.1786
   37MOL    H4834680   2.837   2.622   6.093  0.3421 -2.2495 -0.7105
   37MOL    H4934681   3.385   1.436   6.189 -0.7019 -0.6880 -0.9399
   37MOL    N5034682   2.731   2.821   6.201 -0.1747  0.0129  0.1972
   37MOL    C5134683   2.689   2.951   6.253  0.3645 -1.0750  0.6624
   37MOL    C5234684   2.631   3.041   6.142 -0.1335 -0.0419  0.0733
   37MOL    C5334685   2.497   3.020   6.108  0.2789  0.1504 -0.3214
   37MOL    C5434686   2.436   3.096   6.004 -0.5301 -0.0005 -0.4565
   37MOL    C5534687   2.515   3.185   5.927  0.3484 -0.0149 -0.1707
   37MOL    C5634688   2.648   3.193   5.954 -0.4538 -0.8757  0.1316
   37MOL    C5734689   2.714   3.123   6.059  0.2393 -0.4152  0.5772
   37MOL    C5834690   2.859   3.137   6.084  0.8240 -0.5751 -0.5269
   37MOL    N5934691   2.940   3.210   5.993  0.4869 -0.4860 -0.2387
   37MOL    C6034692   2.974   3.341   6.010  1.0539  0.4711 -0.6317
   37MOL    O6134693   2.935   3.414   6.096  0.4346  0.3835 -0.7408
   37MOL    C6234694   3.068   3.390   5.900 -0.0899  0.1021 -0.4667
   37MOL    C6334695   3.072   3.544   5.871  0.1999 -0.0625  0.8030
   37MOL    C6434696   2.941   3.584   5.798 -0.1814  0.0856  0.5789
   37MOL    C6534697   2.924   3.731   5.768  0.5648  0.1420 -0.2975
   37MOL    C6634698   2.802   3.779   5.680 -0.8299  0.2646 -0.9463
   37MOL    C6734699   2.677   3.775   5.766  0.0782 -0.0701  0.4047
   37MOL    C6834700   2.555   3.811   5.691  0.6879 -0.1571  0.0656
   37MOL    C6934701   2.422   3.785   5.775 -0.6594  0.0655 -0.0827
   37MOL    C7034702   2.367   3.923   5.809  0.8873 -0.4061 -0.2144
   37MOL    O7134703   2.347   4.014   5.725  0.2380 -0.0334 -0.2046
   37MOL    H7234704   2.830   2.806   6.183 -0.1269 -0.0644  0.5303
   37MOL    H7334705   2.774   2.996   6.304  0.0394  1.1306 -0.6711
   37MOL    H7434706   2.614   2.939   6.331 -0.1384  2.7022  0.8778
   37MOL    H7534707   2.429   2.952   6.158 -1.0677  1.8286  0.1901
   37MOL    H7634708   2.335   3.059   5.989 -1.0094  1.3636 -0.6733
   37MOL    H7734709   2.473   3.232   5.839  0.2768 -0.9525 -0.6448
   37MOL    H7834710   2.706   3.260   5.893 -4.6646  0.2061 -2.9271
   37MOL    H7934711   2.903   3.038   6.098  1.1883 -0.2232  0.9474
   37MOL    H8034712   2.860   3.190   6.179  0.0120 -1.9533  0.2702
   37MOL    H8134713   2.985   3.168   5.913  0.3256  1.4956 -1.4029
   37MOL    H8234714   3.062   3.329   5.810 -1.2112  2.3083 -1.9219
   37MOL    H8334715   3.166   3.357   5.934 -0.0356  0.3051 -0.4267
   37MOL    H8434716   3.158   3.573   5.810 -2.0423  1.2997 -1.8206
   37MOL    H8534717   3.084   3.599   5.964  1.9098 -0.9723  1.1468
   37MOL    H8634718   2.925   3.530   5.704 -0.1119  0.5121  0.3197
   37MOL    H8734719   2.863   3.557   5.869  0.2789 -0.7764  0.7541
   37MOL    H8834720   2.918   3.780   5.865 -1.7348 -0.6191 -0.0312
   37MOL    H8934721   3.014   3.776   5.727  0.9145 -2.2315 -2.2354
   37MOL    H9034722   2.821   3.880   5.645  2.3542 -0.2034 -0.7875
   37MOL    H9134723   2.790   3.712   5.595 -1.6147 -0.3487 -0.3512
   37MOL    H9234724   2.675   3.851   5.844  0.8331  0.5163 -0.1378
   37MOL    H9334725   2.661   3.677   5.812 -0.1885  0.0604  0.5937
   37MOL    H9434726   2.547   3.751   5.600 -2.3654 -0.9734  0.8260
   37MOL    H9534727   2.569   3.911   5.650  2.8430 -0.9362 -1.1838
   37MOL    H9634728   2.445   3.731   5.867 -1.4261 -1.1058 -0.5630
   37MOL    H9734729   2.352   3.726   5.715 -1.4266  1.1240 -0.2307
   37MOL    N9834730   2.351   3.937   5.940 -0.2323  0.4465 -0.3908
   37MOL    C9934731   2.294   4.058   5.999 -0.0532 -0.3331  0.0019
   37MOL   C10034732   2.244   4.039   6.144  0.7791 -0.2575  0.6061
   37MOL   C10134733   2.331   3.983   6.235 -0.4537  0.3694  0.2028
   37MOL   C10234734   2.298   3.957   6.367 -0.0413  0.7760  0.4036
   37MOL   C10334735   2.175   4.000   6.410  0.2336  0.7849  0.6196
   37MOL   C10434736   2.089   4.070   6.315  0.1896 -0.1587  0.1739
   37MOL   C10534737   2.124   4.094   6.184 -0.0978  0.4974 -0.1454
   37MOL   C10634738   2.035   4.159   6.085  0.4209 -0.3988 -0.6060
   37MOL   N10734739   1.983   4.061   5.990 -0.3996 -0.5627 -0.3099
   37MOL   C10834740   1.911   4.086   5.882  0.2423 -0.6832  0.4083
   37MOL   O10934741   1.872   4.203   5.858 -0.0511 -0.1650 -0.3869
   37MOL   C11034742   1.861   3.968   5.805  0.0409 -0.5335 -0.1503
   37MOL   C11134743   1.771   3.884   5.901 -0.1150 -0.0950  0.2507
   37MOL   C11234744   1.707   3.765   5.817  0.1673 -0.6531 -0.1342
   37MOL   C11334745   1.653   3.644   5.904  0.7311 -0.0417  0.1039
   37MOL   C11434746   1.566   3.547   5.817 -0.1678 -0.4376 -0.8222
   37MOL   C11534747   1.523   3.417   5.882  0.4389  0.1122  0.2604
   37MOL   C11634748   1.417   3.327   5.810 -0.1122  0.5304 -0.0301
   37MOL   C11734749   1.456   3.280   5.671  1.1541 -0.6629 -0.6799
   37MOL   C11834750   1.557   3.169   5.674 -0.3739 -0.4024  0.5978
   37MOL   O11934751   1.633   3.154   5.769 -0.0633 -0.0120 -0.1142
   37MOL   H12034752   2.372   3.864   6.006  2.1457  0.6235 -0.9246
   37MOL   H12134753   2.367   4.138   5.986  2.1906 -2.2116  0.6667
   37MOL   H12234754   2.217   4.096   5.933 -1.0895 -2.5473 -0.0984
   37MOL   H12334755   2.427   3.959   6.192  0.0876  1.0857  0.9921
   37MOL   H12434756   2.364   3.897   6.428 -1.0601 -4.7920 -3.5777
   37MOL   H12534757   2.154   3.998   6.516 -1.0588  1.3200  0.3823
   37MOL   H12634758   1.991   4.108   6.339  0.0439 -0.0440 -0.5888
   37MOL   H12734759   2.085   4.240   6.033  0.6750  1.3178  2.2160
   37MOL   H12834760   1.956   4.211   6.139 -0.4107 -1.3102 -0.9282
   37MOL   H12934761   1.994   3.960   5.997  1.8341 -0.2515  1.3588
   37MOL   H13034762   1.952   3.911   5.785  0.7900  1.1216 -1.6152
   37MOL   H13134763   1.807   3.986   5.711  2.2940  0.8775 -1.2185
   37MOL   H13234764   1.689   3.942   5.941 -1.3830 -2.2261  0.8487
   37MOL   H13334765   1.837   3.840   5.976 -1.2266 -0.2648  1.1414
   37MOL   H13434766   1.621   3.812   5.769  1.4400  2.2872  0.3501
   37MOL   H13534767   1.775   3.729   5.740 -1.3218  1.3252 -2.4291
   37MOL   H13634768   1.735   3.591   5.954  1.4881  1.7964  0.8544
   37MOL   H13734769   1.596   3.689   5.986  1.4175  1.6104 -0.3075
   37MOL   H13834770   1.482   3.608   5.782  1.6694  2.2828 -0.6101
   37MOL   H13934771   1.640   3.525   5.739 -0.6436 -0.7766 -1.1853
   37MOL   H14034772   1.475   3.460   5.969  0.6415 -0.2196  0.5370
   37MOL   H14134773   1.599   3.350   5.921  0.6768  0.7299  0.8637
   37MOL   H14234774   1.410   3.243   5.879 -0.2999 -1.4537 -2.3911
   37MOL   H14334775   1.323   3.380   5.796 -0.5639 -0.3762 -0.5068
   37MOL   H14434776   1.495   3.369   5.623  0.1042  1.3062  1.9753
   37MOL   H14534777   1.361   3.248   5.628  1.9428 -1.4814 -1.8231
   37MOL   N14634778   1.565   3.100   5.560 -0.0273  0.2510  0.6539
   37MOL   C14734779   1.679   3.005   5.521 -0.4588 -0.5656 -0.5322
   37MOL   C14834780   1.649   2.937   5.393 -0.0821  0.5895  0.5782
   37MOL   C14934781   1.724   2.982   5.282 -0.4606  0.6412 -0.5021
   37MOL   C15034782   1.708   2.922   5.160 -0.1695 -0.1857 -0.1883
   37MOL   C15134783   1.613   2.821   5.137 -0.0182  0.5628 -0.0230
   37MOL   C15234784   1.531   2.780   5.248  0.2605  0.4987  0.2510
   37MOL   C15334785   1.551   2.838   5.375 -0.2347 -0.3083  0.2339
   37MOL   C15434786   1.454   2.800   5.488 -0.2695 -0.6135 -0.1558
   37MOL   N15534787   1.500   2.700   5.580 -0.7383  0.0544  0.0410
   37MOL   C15634788   1.418   2.608   5.641 -0.9423 -0.1735 -0.0233
   37MOL   O15734789   1.293   2.604   5.632 -0.0530 -0.1978  0.7483
   37MOL   C15834790   1.489   2.496   5.715 -0.3168 -1.1038 -0.0513
   37MOL   C15934791   1.416   2.362   5.692  0.1256 -0.1581  0.1633
   37MOL   C16034792   1.449   2.290   5.559 -0.3605  0.4740  0.0800
   37MOL   C16134793   1.404   2.143   5.572 -0.0928  0.1873 -0.3091
   37MOL   C16234794   1.384   2.074   5.436 -0.1305  0.6311 -0.1464
   37MOL   C16334795   1.268   2.122   5.357 -0.0978  0.6408  0.1988
   37MOL   C16434796   1.257   2.035   5.223  0.1908 -0.0430  0.2351
   37MOL   C16534797   1.149   2.105   5.137  0.1723 -0.6451 -0.2627
   37MOL   C16634798   1.074   2.016   5.044 -0.5140  0.7270  0.4256
   37MOL   O16734799   1.130   1.919   4.995 -0.3281  0.1219  0.5232
   37MOL   H16834800   1.500   3.110   5.483  0.2443  2.2161  0.6702
   37MOL   H16934801   1.697   2.936   5.604  1.0484  1.8631  1.2354
   37MOL   H17034802   1.771   3.064   5.523 -0.5428 -0.4309 -0.7256
   37MOL   H17134803   1.791   3.068   5.286  0.3087 -0.0021  0.9205
   37MOL   H17234804   1.773   2.945   5.077  0.5839 -0.7092  0.2464
   37MOL   H17334805   1.590   2.777   5.041 -1.5519  1.5075 -0.1055
   37MOL   H17434806   1.445   2.719   5.224  0.3879  1.3364 -2.5323
   37MOL   H17534807   1.362   2.768   5.439 -0.0512 -3.6213  1.3330
   37MOL   H17634808   1.422   2.889   5.543 -1.0099  0.4333 -2.2022
   37MOL   H17734809   1.600   2.697   5.598 -0.2914  3.0489 -1.6389
   37MOL   H17834810   1.485   2.525   5.820 -1.2008  0.2986 -0.4609
   37MOL   H17934811   1.593   2.483   5.685 -0.0113 -0.0618  0.5316
   37MOL   H18034812   1.307   2.368   5.702  0.1028 -1.1983  0.5841
   37MOL   H18134813   1.455   2.300   5.773  2.2305  1.1901  0.2139
   37MOL   H18234814   1.390   2.343   5.485  1.0674  0.6589 -0.9385
   37MOL   H18334815   1.554   2.280   5.534 -0.4818 -2.9609  0.7381
   37MOL   H18434816   1.474   2.085   5.633 -1.8916  0.2295  1.8376
   37MOL   H18534817   1.314   2.132   5.631  1.5473 -2.0856  1.9025
   37MOL   H18634818   1.472   2.086   5.373 -1.2048 -3.1397 -2.5029
   37MOL   H18734819   1.377   1.967   5.455 -0.9784  0.5106 -1.0969
   37MOL   H18834820   1.282   2.229   5.344 -3.5430  1.2817  1.2013
   37MOL   H18934821   1.174   2.124   5.413 -0.0805  1.2553  0.1999
   37MOL   H19034822   1.351   2.034   5.168 -0.3467 -3.8517 -0.7375
   37MOL   H19134823   1.226   1.935   5.251  0.5296  0.1552  1.3387
   37MOL   H19234824   1.198   2.184   5.081 -0.7847 -0.1619 -0.4335
   37MOL   H19334825   1.071   2.155   5.195 -0.0784 -0.4085 -0.7966
   37MOL   N19434826   0.947   2.041   5.010 -0.0201  0.5602  0.2833
   37MOL   C19534827   0.869   1.950   4.926 -0.4266  0.0636 -0.3097
   37MOL   C19634828   0.732   2.010   4.909 -0.3605 -0.1600 -0.3208
   37MOL   C19734829   0.635   1.966   4.999  0.4239 -0.1787 -0.1107
   37MOL   C19834830   0.511   2.037   5.005 -0.4505 -1.2805  0.4374
   37MOL   C19934831   0.482   2.139   4.913  0.4251  0.3502  0.0965
   37MOL   C20034832   0.578   2.184   4.824  0.2301  0.2306  0.2973
   37MOL   C20134833   0.704   2.112   4.821 -0.2809 -0.2272 -0.2921
   37MOL   C20234834   0.810   2.151   4.726 -0.6011  0.0484 -0.3042
   37MOL   N20334835   0.784   2.282   4.664 -0.7447 -0.2133 -1.0167
   37MOL   C20434836   0.842   2.336   4.563 -0.0669 -0.3398  0.3778
   37MOL   O20534837   0.905   2.272   4.484 -0.7633  0.2226  0.3311
   37MOL   C20634838   0.821   2.481   4.528  0.0464  0.5839 -0.2269
   37MOL   C20734839   0.957   2.559   4.532  0.8494 -0.0122 -0.2685
   37MOL   C20834840   1.005   2.622   4.671  0.1733  0.4576  0.4499
   37MOL   C20934841   1.048   2.528   4.784  0.5233  0.6637  0.2246
   37MOL   C21034842   1.158   2.431   4.731  0.1105  0.5488 -0.4648
   37MOL   C21134843   1.201   2.343   4.853  0.2468  0.1018 -0.7415
   37MOL   C21234844   1.286   2.224   4.807 -0.1560  0.0556 -0.2430
   37MOL   C21334845   1.208   2.125   4.720  0.3165  0.0603 -0.1632
   37MOL   C21434846   1.286   2.005   4.679 -0.0823 -0.1316 -0.3079
   37MOL   O21534847   1.336   1.994   4.565  0.4359  0.3625  0.5001
   37MOL   H21634848   0.901   2.125   5.044  0.4960  1.3575 -0.9363
   37MOL   H21734849   0.923   1.929   4.833 -0.1487 -0.8354  0.0492
   37MOL   H21834850   0.863   1.853   4.975 -0.7809  0.1853 -0.1111
   37MOL   H21934851   0.651   1.898   5.081  2.1669  0.3354 -0.0015
   37MOL   H22034852   0.441   2.025   5.087 -1.4176  1.1377 -0.0022
   37MOL   H22134853   0.389   2.192   4.932 -0.7168 -2.0355  1.3560
   37MOL   H22234854   0.558   2.274   4.768  0.4683  0.2364  0.2213
   37MOL   H22334855   0.820   2.082   4.642  0.6392  1.7694 -1.6156
   37MOL   H22434856   0.911   2.154   4.767 -0.5793 -0.0933 -0.3479
   37MOL   H22534857   0.735   2.345   4.725 -1.3335  0.4153 -2.1223
   37MOL   H22634858   0.748   2.531   4.592 -0.5813 -0.6558  0.0447
   37MOL   H22734859   0.797   2.475   4.422  0.7844 -0.9181 -0.3289
   37MOL   H22834860   1.034   2.493   4.491  0.9707  0.0025 -0.0642
   37MOL   H22934861   0.954   2.626   4.447 -1.1875  0.0292 -0.1995
   37MOL   H23034862   1.097   2.679   4.654  1.6860 -1.0152  3.2853
   37MOL   H23134863   0.931   2.695   4.705 -1.4340 -0.4792 -0.9638
   37MOL   H23234864   1.085   2.586   4.868 -1.4770  1.3669  0.6368
   37MOL   H23334865   0.967   2.476   4.835 -1.3942  2.0994 -1.2738
   37MOL   H23434866   1.117   2.370   4.651 -1.4165 -0.3965  1.0121
   37MOL   H23534867   1.243   2.483   4.687  0.6047 -0.3531 -0.5994
   37MOL   H23634868   1.113   2.322   4.913  0.9096 -1.2142 -0.2167
   37MOL   H23734869   1.263   2.405   4.918  0.3042  0.3179 -1.0010
   37MOL   H23834870   1.319   2.174   4.898 -3.1509 -0.9792  0.3302
   37MOL   H23934871   1.378   2.261   4.761 -0.9370  1.6863 -0.5219
   37MOL   H24034872   1.124   2.079   4.772  1.1310 -0.4518  0.7111
   37MOL   H24134873   1.170   2.171   4.628 -1.2146  1.1534  0.9933
   37MOL   N24234874   1.290   1.906   4.767  0.1465 -0.5035  0.1586
   37MOL   C24334875   1.354   1.778   4.752  0.5169 -0.1672 -0.9092
   37MOL   C24434876   1.289   1.674   4.657  0.4681 -0.1879  0.4827
   37MOL   C24534877   1.162   1.696   4.597  0.2554 -1.2646  0.3176
   37MOL   C24634878   1.105   1.598   4.513 -0.1020  0.8346  0.0903
   37MOL   C24734879   1.175   1.483   4.484 -0.3074  0.4378  0.4052
   37MOL   C24834880   1.298   1.463   4.546  0.6633  0.3431  0.3794
   37MOL   C24934881   1.358   1.554   4.631 -0.1176 -0.7622  0.3107
   37MOL   C25034882   1.498   1.517   4.688 -0.3189 -0.1066 -0.2846
   37MOL   N25134883   1.500   1.416   4.795 -0.1075  0.2568  0.3249
   37MOL   C25234884   1.537   1.285   4.794  0.3246 -0.0018 -0.6905
   37MOL   O25334885   1.579   1.238   4.694  0.3404  0.1046  0.6180
   37MOL   C25434886   1.518   1.211   4.934 -0.2728 -0.3509  0.0202
   37MOL   C25534887   1.541   1.059   4.929  0.1491 -0.0681 -0.2077
   37MOL   C25634888   1.693   1.020   4.912 -0.0636  0.2643 -0.2755
   37MOL   C25734889   1.720   0.868   4.911 -0.2153 -0.2636  0.1310
   37MOL   C25834890   1.862   0.820   4.886 -0.1478 -0.4017  0.0345
   37MOL   C25934891   1.911   0.821   4.739 -0.8494 -0.3194  0.1061
   37MOL   C26034892   2.052   0.767   4.726  0.0539 -0.3215  0.6363
   37MOL   C26134893   2.094   0.766   4.579  0.0081 -0.3499 -0.0975
   37MOL   C26234894   2.162   0.898   4.545 -0.5258  0.2207 -0.1962
   37MOL   O26334895   2.105   0.993   4.493  0.5956  0.0925  0.3647
   37MOL   H26434896   1.263   1.925   4.863  0.6483 -0.2969  0.2627
   37MOL   H26534897   1.457   1.805   4.731  0.3013  0.1895 -1.4989
   37MOL   H26634898   1.361   1.744   4.856  2.9351  1.2888 -0.5578
   37MOL   H26734899   1.114   1.792   4.613 -0.2729 -1.0913 -2.0441
   37MOL   H26834900   1.019   1.622   4.452 -0.1264  0.2179 -0.1253
   37MOL   H26934901   1.138   1.414   4.409 -1.1404 -0.9068  2.0131
   37MOL   H27034902   1.356   1.378   4.513 -1.5533 -1.6210  1.3705
   37MOL   H27134903   1.563   1.597   4.725 -2.0341  0.3037  1.8919
   37MOL   H27234904   1.547   1.479   4.598  1.1833  1.4989 -0.1770
   37MOL   H27334905   1.461   1.459   4.878 -1.9524  0.1864 -0.4852
   37MOL   H27434906   1.419   1.241   4.970  0.0732 -1.5428  1.9659
   37MOL   H27534907   1.591   1.246   5.007  0.0712 -1.2420  0.1065
   37MOL   H27634908   1.478   1.023   4.848  2.9377 -0.9764 -2.0620
   37MOL   H27734909   1.487   1.012   5.012 -0.3872 -2.6589 -1.9567
   37MOL   H27834910   1.752   1.064   4.992  0.5024 -0.6999 -0.1512
   37MOL   H27934911   1.724   1.061   4.817 -1.3757 -0.1936 -0.9207
   37MOL   H28034912   1.697   0.822   5.007  1.3211 -1.3959 -0.0234
   37MOL   H28134913   1.660   0.825   4.831 -2.3271  0.9453  1.0074
   37MOL   H28234914   1.931   0.874   4.950  0.9387  0.9746 -2.2546
   37MOL   H28334915   1.887   0.718   4.916  0.4112 -0.2473  0.0860
   37MOL   H28434916   1.897   0.924   4.706  0.8072 -0.5518 -1.3677
   37MOL   H28534917   1.845   0.752   4.685 -0.3191 -0.1852 -0.7266
   37MOL   H28634918   2.124   0.819   4.789 -0.6648 -1.5911  2.5482
   37MOL   H28734919   2.076   0.675   4.779  2.2508 -0.2575 -0.1894
   37MOL   H28834920   2.157   0.680   4.555  0.7161 -0.2458  1.3070
   37MOL   H28934921   2.003   0.771   4.519 -1.0461 -2.5533  1.2674
   37MOL   N29034922   2.294   0.915   4.583  0.0234 -0.3534 -0.4426
   37MOL   C29134923   2.361   1.040   4.591 -0.3845  0.0661  0.4288
   37MOL   C29234924   2.502   1.024   4.654  0.2591  0.0293  0.3701
   37MOL   C29334925   2.609   1.056   4.569  0.2652 -0.0405  0.1328
   37MOL   C29434926   2.738   1.053   4.627 -0.0097  0.4573  0.8749
   37MOL   C29534927   2.762   1.012   4.758 -0.0957  0.1427 -0.0443
   37MOL   C29634928   2.658   0.976   4.834  0.0512 -0.9419 -0.2181
   37MOL   C29734929   2.524   0.982   4.786  0.2770 -0.5071 -0.8364
   37MOL   C29834930   2.410   0.959   4.887  0.1377  0.1499  0.0506
   37MOL   N29934931   2.427   0.848   4.968  0.1913 -0.2715 -0.6151
   37MOL   C30034932   2.435   0.725   4.922  0.0259  0.5540 -0.3493
   37MOL   O30134933   2.437   0.704   4.800 -0.6137 -0.0513 -0.0129
   37MOL   C30234934   2.453   0.618   5.022  0.6906  0.0323 -0.6557
   37MOL   C30334935   2.572   0.528   4.992  0.1474  1.4618 -0.4389
   37MOL   C30434936   2.588   0.417   5.094  0.9792  0.1903 -0.7585
   37MOL   C30534937   2.722   0.349   5.075 -0.6001  0.3771 -0.0217
   37MOL   C30634938   2.709   0.203   5.133 -0.1924  1.1269 -0.5844
   37MOL   C30734939   2.854   0.142   5.148  0.7413  0.4908 -0.4074
   37MOL   C30834940   2.850   7.774   5.167  0.2979 -0.7093 -0.1277
   37MOL   C30934941   2.985   7.696   5.149  0.4730  0.9153 -0.1933
   37MOL   C31034942   3.104   7.723   5.247  0.0641 -0.1668  0.4748
   37MOL   O31134943   3.080   7.757   5.360  0.1796  0.0398  0.1425
   37MOL   H31234944   2.335   0.835   4.629  0.8545  0.6139  0.5503
   37MOL   H31334945   2.367   1.078   4.489  0.0403  1.3047  0.8976
   37MOL   H31434946   2.300   1.110   4.647 -0.2126 -1.6676  2.8665
   37MOL   H31534947   2.586   1.090   4.469  1.9526  0.6346 -0.0412
   37MOL   H31634948   2.819   1.074   4.559 -0.0427  0.6468  0.8938
   37MOL   H31734949   2.861   1.010   4.800 -0.5909  1.0032  1.1878
   37MOL   H31834950   2.682   0.951   4.936  2.5862  2.6510  0.1853
   37MOL   H31934951   2.316   0.932   4.839  0.2956  1.1404 -0.8423
   37MOL   H32034952   2.393   1.047   4.948  0.2040 -0.4850  0.9825
   37MOL   H32134953   2.436   0.859   5.068 -0.1340 -1.6099 -0.4254
   37MOL   H32234954   2.459   0.668   5.119 -0.2757 -2.7674  0.8823
   37MOL   H32334955   2.362   0.560   5.034 -0.3800  1.8819  0.4641
   37MOL   H32434956   2.661   0.591   4.989  0.5016  0.9290 -1.4878
   37MOL   H32534957   2.565   0.492   4.889  1.2806 -1.3622  0.4387
   37MOL   H32634958   2.506   0.347   5.080  0.4819  0.5202  0.5055
   37MOL   H32734959   2.578   0.455   5.195  1.3130 -0.8404 -0.3286
   37MOL   H32834960   2.752   0.334   4.971  0.7848 -0.6946  0.5138
   37MOL   H32934961   2.806   0.408   5.112  0.6698 -1.5134  0.1903
   37MOL   H33034962   2.664   0.200   5.232  1.8002 -0.7871  0.2911
   37MOL   H33134963   2.647   0.141   5.067  1.6560  0.4194 -1.7130
   37MOL   H33234964   2.913   0.187   5.227  1.2760 -0.3031 -0.3472
   37MOL   H33334965   2.909   0.170   5.058  0.3844  2.1861 -0.1231
   37MOL   H33434966   2.816   7.762   5.270 -1.9609 -2.4110 -1.0468
   37MOL   H33534967   2.778   7.724   5.103 -1.4427  0.9045  0.5060
   37MOL   H33634968   2.969   7.588   5.149 -1.3076  1.1635 -0.7229
   37MOL   H33734969   3.030   7.717   5.052 -0.2479  2.1827 -0.2620
   37MOL   N33834970   3.231   7.699   5.208 -0.6099  0.1334 -0.6197
   37MOL   C33934971   3.345   7.710   5.304  0.3639  0.1011 -0.4743
   37MOL   C34034972   3.484   7.691   5.240  0.0363  0.7687 -0.5508
   37MOL   C34134973   3.584   7.777   5.285 -0.1208 -0.5442  0.3071
   37MOL   C34234974   3.716   7.756   5.246 -0.4331  0.3399 -0.3921
   37MOL   C34334975   3.747   7.639   5.171 -0.3095  0.1021 -0.4059
   37MOL   C34434976   3.651   7.552   5.123  0.1064  0.0511  0.0067
   37MOL   C34534977   3.517   7.576   5.152 -0.4014 -0.3642 -0.0589
   37MOL   C34634978   3.417   7.470   5.106  0.5583  0.4196  0.3363
   37MOL   N34734979   3.402   7.478   4.959 -0.3310  0.0316  0.6777
   37MOL   C34834980   3.322   7.562   4.891 -1.1688  0.2989 -0.5403
   37MOL   O34934981   3.243   7.643   4.942  0.0327  0.4070 -0.0701
   37MOL   C35034982   3.356   7.574   4.742 -0.5060 -0.1007  0.2705
   37MOL   C35134983   3.314   7.702   4.669 -1.2051  0.2268 -0.1182
   37MOL   C35234984   3.386   7.735   4.535 -0.2997  0.2569  0.7296
   37MOL   C35334985   3.366   0.095   4.494 -0.4578  0.4166  0.2645
   37MOL   C35434986   3.217   0.116   4.466 -0.7460 -0.5877  0.1913
   37MOL   C35534987   3.187   0.257   4.411 -0.0024  0.1399 -0.2803
   37MOL   C35634988   3.039   0.271   4.367  0.2836  0.5692 -0.4530
   37MOL   C35734989   3.020   0.404   4.286 -0.4990 -0.6220  0.3052
   37MOL   C35834990   2.879   0.412   4.227 -0.7738 -0.3327  0.0343
   37MOL   O35934991   2.818   0.311   4.191 -0.4815  0.1830 -0.5011
   37MOL   H36034992   3.241   7.660   5.115  0.1929 -1.5500  0.1661
   37MOL   H36134993   3.334   0.019   5.350 -1.6353  0.3135 -1.3650
   37MOL   H36234994   3.324   7.631   5.376  3.6536 -1.0949 -0.7097
   37MOL   H36334995   3.565   0.071   5.351  1.4961 -0.1360  0.2743
   37MOL   H36434996   3.797   0.022   5.290  1.6402 -1.3699 -1.9060
   37MOL   H36534997   3.842   7.598   5.141  0.9298  1.6278  1.3757
   37MOL   H36634998   3.679   7.471   5.057 -0.3920  1.2566 -1.6878
   37MOL   H36734999   3.320   7.480   5.155  1.0489 -1.8868  1.8107
   37MOL   H36835000   3.460   7.373   5.130  0.2624  0.1092 -0.3570
   37MOL   H36935001   3.470   7.423   4.909  1.4103  1.6161  1.2105
   37MOL   H37035002   3.318   7.483   4.696  0.3532 -0.0636 -0.5251
   37MOL   H37135003   3.464   7.567   4.731 -0.2009  0.6730  2.5287
   37MOL   H37235004   3.322   0.003   4.729 -2.6507  1.1334 -1.2843
   37MOL   H37335005   3.207   7.689   4.653 -0.9142 -1.7902 -0.5753
   37MOL   H37435006   3.489   7.710   4.559 -1.0955 -1.4231  2.4383
   37MOL   H37535007   3.351   7.666   4.458  0.3207  1.5881 -0.7914
   37MOL   H37635008   3.430   0.100   4.405  0.2913 -0.1743  0.7594
   37MOL   H37735009   3.413   0.168   4.560  0.5937  0.6400 -0.7078
   37MOL   H37835010   3.188   0.046   4.388 -0.6694 -1.2016  0.7077
   37MOL   H37935011   3.157   0.104   4.556 -0.6432  1.3734  0.5453
   37MOL   H38035012   3.260   0.280   4.333 -0.3494  0.7745 -0.4188
   37MOL   H38135013   3.207   0.332   4.487  0.8637 -1.8514  1.4985
   37MOL   H38235014   3.011   0.197   4.292 -2.8427  2.6382 -1.4255
   37MOL   H38335015   2.959   0.267   4.441 -2.7397  0.3442 -3.5851
   37MOL   H38435016   3.092   0.415   4.205 -0.7192 -0.2772  0.1534
   37MOL   H38535017   3.038   0.493   4.347 -0.9596 -1.3635  1.5156
   37MOL   N38635018   2.820   0.535   4.211 -0.3985  0.1509  0.3270
   37MOL   C38735019   2.683   0.545   4.146  0.7255  0.3539 -0.1258
   37MOL   C38835020   2.572   0.526   4.254  0.1179 -0.6610  0.4968
   37MOL   C38935021   2.499   0.408   4.249 -0.0671  0.6167  0.1467
   37MOL   C39035022   2.389   0.389   4.334  0.2184  1.0749  0.1203
   37MOL   C39135023   2.350   0.491   4.424 -0.2700  0.9813  0.0671
   37MOL   C39235024   2.431   0.610   4.431  0.2615 -0.5242  0.1766
   37MOL   C39335025   2.546   0.627   4.350 -0.0275 -0.3399  0.2150
   37MOL   C39435026   2.633   0.741   4.381  0.6940 -0.0909 -0.0959
   37MOL   N39535027   2.683   0.725   4.521 -0.1217 -0.6207 -0.0215
   37MOL   C39635028   2.806   0.688   4.565  0.0517 -0.3520  0.0523
   37MOL   O39735029   2.901   0.677   4.488  0.8450 -0.1378  0.0728
   37MOL   C39835030   2.834   0.663   4.711  0.4410  0.0729  0.1552
   37MOL   C39935031   2.965   0.597   4.735 -0.7666 -0.3436 -0.0034
   37MOL   C40035032   2.972   0.555   4.882 -0.2940 -0.1258  0.0248
   37MOL   C40135033   3.085   0.449   4.891  0.2089 -0.4191  0.4985
   37MOL   C40235034   3.104   0.412   5.034 -0.7850 -0.3609 -0.2082
   37MOL   C40335035   3.189   0.280   5.055  0.1621  0.5845  0.1546
   37MOL   C40435036   3.337   0.300   5.012 -0.7258 -0.6194  0.3963
   37MOL   C40535037   3.424   0.175   5.027  0.0392 -0.3502  0.3440
   37MOL   C40635038   3.558   0.197   4.958 -0.3953 -0.0479 -0.2194
   37MOL   O40735039   3.618   0.301   4.992 -0.3781 -0.0054 -0.3164
   37MOL   H40835040   2.864   0.619   4.247 -0.5265 -0.0324  0.9131
   37MOL   H40935041   2.679   0.634   4.083 -1.4731 -0.8960 -1.8045
   37MOL   H41035042   2.673   0.467   4.070 -0.3582  0.9138 -0.5805
   37MOL   H41135043   2.548   0.332   4.189 -0.6333  0.5567 -0.2355
   37MOL   H41235044   2.336   0.295   4.337 -1.2418  1.8097 -1.6181
   37MOL   H41335045   2.266   0.491   4.492  0.9623  0.1821  1.6351
   37MOL   H41435046   2.399   0.690   4.496 -2.5070 -0.0845 -1.6531
   37MOL   H41535047   2.562   0.821   4.364  0.6311 -0.2986 -0.8382
   37MOL   H41635048   2.710   0.749   4.304  0.5935  1.3812 -0.0600
   37MOL   H41735049   2.611   0.729   4.591  0.7953 -1.5413  0.9985
   37MOL   H41835050   2.835   0.759   4.763 -2.5247  2.5964 -4.1703
   37MOL   H41935051   2.753   0.605   4.754  0.3981  0.2832  0.3564
   37MOL   H42035052   3.050   0.661   4.712 -0.2222 -0.2737  2.0858
   37MOL   H42135053   2.970   0.518   4.660 -0.1792  0.1459 -0.4871
   37MOL   H42235054   2.882   0.505   4.918 -0.1514  0.9464  1.9561
   37MOL   H42335055   2.992   0.641   4.946 -1.0775 -0.6428  0.9898
   37MOL   H42435056   3.051   0.359   4.840 -0.9644 -0.1404  0.7758
   37MOL   H42535057   3.180   0.480   4.849 -0.6286 -0.2878 -1.3539
   37MOL   H42635058   3.150   0.495   5.088  2.8541 -2.3086 -0.1308
   37MOL   H42735059   3.013   0.390   5.089 -1.4879  0.9821 -0.8162
   37MOL   H42835060   3.144   0.198   4.998  1.5402  0.7101 -1.1632
   37MOL   H42935061   3.188   0.249   5.159  1.2277  0.6453  0.1917
   37MOL   H43035062   3.397   0.381   5.054  0.1251 -0.6249 -0.7726
   37MOL   H43135063   3.320   0.323   4.907 -1.5499  2.5403  1.1709
   37MOL   H43235064   3.373   0.085   4.992  0.0356  0.0444 -0.6843
   37MOL   H43335065   3.437   0.173   5.135 -1.9460  1.7933  0.6543
   37MOL   N43435066   3.605   0.103   4.874  0.2571 -0.3630 -0.7089
   37MOL   C43535067   3.729   0.110   4.810  0.3097 -0.8749  0.0357
   37MOL   C43635068   3.822   7.784   4.844  0.0291  0.4182  0.0981
   37MOL   C43735069   3.803   7.663   4.775  0.0675  0.7831  0.2473
   37MOL   C43835070   3.891   7.553   4.794 -0.2760  0.5022 -0.2989
   37MOL   C43935071   4.001   7.563   4.875  0.4751  0.3522 -0.1381
   37MOL   C44035072   4.031   7.687   4.927 -0.0438  0.0712 -0.0035
   37MOL   C44135073   3.946   0.010   4.905  0.5021  0.3301  0.3910
   37MOL   C44235074   3.994   0.140   4.963  0.1464  0.5567 -0.3035
   37MOL   N44335075   4.073   0.204   4.872 -0.4175 -0.0274  0.6118
   37MOL   C44435076   4.138   0.320   4.894  0.1618  0.5132 -0.1788
   37MOL   O44535077   4.120   0.382   4.996 -0.3080 -0.2520  0.1823
   37MOL   C44635078   4.215   0.381   4.781 -0.4202  0.1952 -0.5242
   37MOL   C44735079   4.292   0.508   4.819  0.0030  1.0059 -0.2988
   37MOL   C44835080   4.411   0.489   4.926  0.4024 -0.2948  0.2137
   37MOL   C44935081   4.512   0.605   4.910 -0.0976 -0.0991 -0.0172
   37MOL   C45035082   4.623   0.602   5.004  0.4046 -0.3113 -0.0171
   37MOL   C45135083   4.737   0.698   4.979 -0.8793  0.2532 -0.3247
   37MOL   C45235084   4.699   0.848   4.994  0.2389  0.3253  0.9056
   37MOL   C45335085   4.820   0.942   4.951  0.2819  0.0280 -0.1232
   37MOL   C45435086   4.950   0.922   5.039  0.4592 -0.1076  0.0154
   37MOL   O45535087   4.934   0.924   5.163 -0.3517 -0.1144  0.2120
   37MOL   H45635088   3.544   0.028   4.845  0.8162 -0.7328 -0.9434
   37MOL   H45735089   3.778   0.207   4.821 -1.5275 -0.0905  1.5080
   37MOL   H45835090   3.707   0.108   4.704  2.6989 -0.9643 -0.4992
   37MOL   H45935091   3.706   7.635   4.737 -0.0880  0.7955  0.6429
   37MOL   H46035092   3.862   7.459   4.749  0.1388  0.6749 -0.9465
   37MOL   H46135093   4.062   7.475   4.882 -1.4705 -1.0824 -0.7719
   37MOL   H46235094   4.124   7.684   4.981  0.9341 -2.2604 -1.7423
   37MOL   H46335095   4.060   0.122   5.048  1.0691  0.9996 -0.9248
   37MOL   H46435096   3.911   0.202   5.000 -0.0999  0.4820 -0.7370
   37MOL   H46535097   4.097   0.157   4.786 -2.2421 -0.5063  0.3543
   37MOL   H46635098   4.139   0.412   4.710  0.8931 -0.8997 -2.4509
   37MOL   H46735099   4.278   0.304   4.737  1.3530 -0.6105  3.1411
   37MOL   H46835100   4.217   0.571   4.868  1.9950  1.4729  2.2819
   37MOL   H46935101   4.328   0.563   4.732  0.3921 -0.3099 -0.9785
   37MOL   H47035102   4.372   0.482   5.028 -1.1761 -2.3746 -0.4855
   37MOL   H47135103   4.461   0.399   4.891  0.4107  0.0127 -0.5780
   37MOL   H47235104   4.550   0.607   4.808  0.2609 -1.9831  0.0553
   37MOL   H47335105   4.462   0.701   4.916 -1.4517 -0.7990  0.3155
   37MOL   H47435106   4.578   0.619   5.102 -1.1299 -0.4795 -0.6734
   37MOL   H47535107   4.655   0.499   4.988  0.1888 -0.6406  1.5736
   37MOL   H47635108   4.776   0.669   4.882 -0.1057  0.4038 -0.0586
   37MOL   H47735109   4.816   0.664   5.046 -2.5218 -3.2962 -0.0318
   37MOL   H47835110   4.618   0.873   4.926 -0.6139 -2.0342  1.0154
   37MOL   H47935111   4.682   0.876   5.098  0.8469  1.5063  0.6974
   37MOL   H48035112   4.856   0.904   4.856  0.3060  0.1573 -0.1653
   37MOL   H48135113   4.794   1.047   4.937  0.7828  0.6204  2.8975
   37MOL   N48235114   5.069   0.906   4.985 -0.6590 -0.8444  0.0880
   37MOL   C48335115   5.203   0.924   5.046  0.1130  0.6558 -0.2903
   37MOL   C48435116   5.289   1.041   5.004  0.4275  0.7463  0.5686
   37MOL   C48535117   5.260   1.170   5.055 -0.1972 -0.5950  0.1672
   37MOL   C48635118   5.341   1.280   5.022  0.6189 -0.0501 -0.2055
   37MOL   C48735119   5.451   1.268   4.935  0.1162 -0.7332 -0.4181
   37MOL   C48835120   5.485   1.135   4.886 -0.1744 -1.2490 -0.5197
   37MOL   C48935121   5.402   1.025   4.916  0.5120 -0.1207 -0.1035
   37MOL   C49035122   5.428   0.890   4.860  0.2444 -0.3520  0.6998
   37MOL   N49135123   5.503   0.805   4.950  0.2664  0.1644  0.2925
   37MOL   C49235124   5.583   0.702   4.905 -0.4487  0.4537  0.1554
   37MOL   O49335125   5.577   0.657   4.787  0.0511 -0.3412 -0.3184
   37MOL   C49435126   5.662   0.615   5.005 -0.0373  0.9482  0.0257
   37MOL   C49535127   5.750   0.496   4.954 -0.0447 -1.0866 -0.2066
   37MOL   C49635128   5.866   0.539   4.863  0.1351  0.6672 -0.4023
   37MOL   C49735129   5.969   0.430   4.835 -0.1005  0.4412 -0.1666
   37MOL   C49835130   6.097   0.488   4.778 -0.6735 -0.8166 -0.5503
   37MOL   C49935131   6.171   0.578   4.881  0.4878 -0.1182 -0.1414
   37MOL   C50035132   6.309   0.614   4.827 -0.4288  0.2159 -0.0773
   37MOL   C50135133   6.399   0.703   4.911  0.8397 -0.4233 -0.4556
   37MOL   C50235134   6.342   0.843   4.917 -1.1166  0.2444 -0.4956
   37MOL   O50335135   6.325   0.900   4.812  0.0534 -0.1652 -0.1325
   37MOL   H50435136   5.073   0.887   4.886  0.2044 -0.3613  0.0334
   37MOL   H50535137   5.205   0.920   5.155 -1.1472 -0.5105 -0.2964
   37MOL   H50635138   5.254   0.829   5.033  2.4108  1.3856  2.7583
   37MOL   H50735139   5.178   1.191   5.121 -1.2034  0.7868 -1.4877
   37MOL   H50835140   5.307   1.381   5.040 -0.3383 -0.4888  0.5075
   37MOL   H50935141   5.520   1.347   4.910 -0.4713 -0.1116 -0.0623
   37MOL   H51035142   5.561   1.126   4.809  1.6573  2.1147  0.7798
   37MOL   H51135143   5.499   0.907   4.779 -1.4206  1.4988 -0.4319
   37MOL   H51235144   5.337   0.847   4.817  0.3066  0.7475 -0.5750
   37MOL   H51335145   5.514   0.836   5.045 -2.8339 -0.5191  0.9498
   37MOL   H51435146   5.588   0.575   5.075  2.3800 -2.0941  0.9510
   37MOL   H51535147   5.718   0.679   5.073  0.2183  0.2854  0.4455
   37MOL   H51635148   5.697   0.426   4.889  0.9691 -1.2449 -0.8807
   37MOL   H51735149   5.776   0.431   5.038 -0.3844  0.1010  0.8277
   37MOL   H51835150   5.836   0.591   4.772  0.8986  0.5280 -0.7368
   37MOL   H51935151   5.911   0.616   4.925  0.3370 -1.8660  2.7135
   37MOL   H52035152   5.995   0.370   4.921 -0.4911  1.0284  0.3656
   37MOL   H52135153   5.931   0.358   4.762 -0.6384  1.1842 -0.6269
   37MOL   H52235154   6.169   0.411   4.747 -1.6473 -3.3855  3.2193
   37MOL   H52335155   6.074   0.544   4.687  2.0191  1.1084 -0.1006
   37MOL   H52435156   6.172   0.539   4.982 -0.1768  1.4186  0.4776
   37MOL   H52535157   6.111   0.667   4.902  1.6231  0.7322 -0.4317
   37MOL   H52635158   6.364   0.521   4.817 -0.9364  0.1934 -3.5058
   37MOL   H52735159   6.296   0.650   4.725 -0.1749  1.4232  0.3047
   37MOL   H52835160   6.501   0.710   4.875  0.7449  2.5870 -0.2626
   37MOL   H52935161   6.403   0.668   5.014  0.0906  1.3629  0.2016
   37MOL   N53035162   6.315   0.893   5.040  1.1171  0.1752 -0.0803
   37MOL   C53135163   6.262   1.036   5.062 -0.2468 -0.3623 -0.0087
   37MOL   C53235164   6.309   1.088   5.193  0.0810  0.7573 -0.0965
   37MOL   C53335165   6.437   1.142   5.204 -0.5111 -0.6065  0.6001
   37MOL   C53435166   6.486   1.192   5.326  0.3375  0.4321 -0.3973
   37MOL   C53535167   6.399   1.196   5.442 -0.3157 -0.1247  0.8865
   37MOL   C53635168   6.276   1.127   5.434 -0.3478 -0.1946 -0.5067
   37MOL   C53735169   6.237   1.058   5.311  0.1951  0.3391  0.8942
   37MOL   C53835170   6.105   0.980   5.319  0.0372  0.9900 -0.2753
   37MOL   N53935171   6.133   0.839   5.335  0.3270 -0.1300 -0.6854
   37MOL   C54035172   6.054   0.736   5.305 -0.3567  0.4783  0.2507
   37MOL   O54135173   5.940   0.740   5.252 -0.3950 -0.6199 -0.2875
   37MOL   C54235174   6.116   0.603   5.338 -0.1733  0.3569 -0.7360
   37MOL   C54335175   6.029   0.496   5.395  0.1099 -0.4195 -0.2749
   37MOL   C54435176   5.941   0.424   5.289 -0.9268  0.5624  0.3122
   37MOL   C54535177   5.853   0.309   5.341 -0.9262  0.6860 -0.0920
   37MOL   C54635178   5.935   0.195   5.399  0.3284  0.5155 -0.2376
   37MOL   C54735179   5.838   0.082   5.459 -0.4936 -0.4554  0.6007
   37MOL   C54835180   5.899   7.732   5.504  0.6192 -0.1037 -0.1548
   37MOL   C54935181   5.800   7.648   5.582 -0.4225 -0.0540 -0.8476
   37MOL   C55035182   5.861   7.548   5.686 -0.7258 -0.0226  0.3610
   37MOL   O55135183   5.972   7.568   5.740 -0.5721 -0.1575 -0.5529
   37MOL   H55235184   6.331   0.846   5.128  1.0833  0.7424  0.2338
   37MOL   H55335185   6.154   1.050   5.053 -0.5660  0.0887  3.8430
   37MOL   H55435186   6.316   1.097   4.990  1.5620  0.3196  1.8806
   37MOL   H55535187   6.498   1.147   5.115  1.0921  0.6862  1.7500
   37MOL   H55635188   6.589   1.222   5.339  0.6703  0.2768 -2.4306
   37MOL   H55735189   6.435   1.243   5.532  0.2395 -0.7144  0.9736
   37MOL   H55835190   6.212   1.109   5.519  1.8407 -2.0490  0.7952
   37MOL   H55935191   6.049   0.998   5.227 -0.3835  2.2128  0.2143
   37MOL   H56035192   6.036   1.001   5.400  1.9098 -0.5934  1.7924
   37MOL   H56135193   6.212   0.815   5.394  0.8940  0.0862 -1.3447
   37MOL   H56235194   6.195   0.618   5.412  0.5773 -0.4474 -1.3485
   37MOL   H56335195   6.161   0.565   5.246 -1.9700 -0.8383 -1.1411
   37MOL   H56435196   5.974   0.532   5.482  3.4022  1.5888  1.0694
   37MOL   H56535197   6.092   0.416   5.434 -0.2978 -0.1870  0.8686
   37MOL   H56635198   5.867   0.494   5.250  0.0419  1.0538 -0.6720
   37MOL   H56735199   5.996   0.397   5.198  1.0214  1.3736  1.2284
   37MOL   H56835200   5.788   0.357   5.413 -1.7772 -1.0004  0.2667
   37MOL   H56935201   5.795   0.277   5.255  2.1399 -2.4473 -1.1371
   37MOL   H57035202   6.010   0.166   5.325 -1.0225 -0.3855 -1.2883
   37MOL   H57135203   5.997   0.230   5.481  1.4767 -0.5311 -0.6353
   37MOL   H57235204   5.759   0.053   5.389  0.0078 -0.2545 -0.0492
   37MOL   H57335205   5.780   0.123   5.542  0.2302  1.8863 -0.0051
   37MOL   H57435206   5.940   7.683   5.416  0.1133 -0.2499 -0.3092
   37MOL   H57535207   5.994   7.744   5.555  0.2137  0.3688  0.4998
   37MOL   H57635208   5.735   7.597   5.511 -0.2745 -0.8853 -0.3859
   37MOL   H57735209   5.738   7.713   5.645 -1.2533 -2.5668  1.0009
   37MOL   N57835210   5.791   7.438   5.718 -0.3142  0.0190 -0.0204
   37MOL   C57935211   5.821   7.341   5.823 -0.2378  0.4804 -0.5349
   37MOL   C58035212   5.850   7.211   5.756 -0.1601 -0.3110  0.2306
   37MOL   C58135213   5.970   7.211   5.682  0.1648 -0.1602 -0.3810
   37MOL   C58235214   6.009   7.110   5.594 -0.3911  0.7204 -0.3714
   37MOL   C58335215   5.919   7.000   5.582 -0.2577 -0.8470 -0.5223
   37MOL   C58435216   5.804   6.990   5.660 -0.7129 -0.4886  0.0145
   37MOL   C58535217   5.769   7.096   5.750  0.5775 -0.0859  0.1540
   37MOL   C58635218   5.646   7.081   5.841 -0.1798 -0.0852 -0.8780
   37MOL   N58735219   5.529   7.135   5.781 -0.3302  0.1408 -0.4878
   37MOL   C58835220   5.458   7.084   5.682 -0.3697 -0.4485  0.7489
   37MOL   O58935221   5.488   6.979   5.629  0.3324  0.5223 -0.0916
   37MOL   C59035222   5.322   7.151   5.654  0.7853  0.0797 -0.4317
   37MOL   C59135223   5.321   7.219   5.516  0.5423  0.1666 -0.5868
   37MOL   C59235224   5.195   7.303   5.505 -0.0648 -0.1646 -0.1278
   37MOL   C59335225   5.175   7.394   5.381 -0.5937 -0.8270  0.6750
   37MOL   C59435226   5.048   7.488   5.389  0.3209 -0.5997 -0.0780
   37MOL   C59535227   5.035   7.589   5.265  0.2278 -0.8323  0.6571
   37MOL   C59635228   5.061   7.530   5.133  1.0126  0.1902 -0.3666
   37MOL   C59735229   5.036   7.614   5.011  0.0851  0.1410  0.0560
   37MOL   C59835230   5.126   7.739   5.004 -0.5326 -0.0997  0.0969
   37MOL   O59935231   5.108   0.035   5.090 -0.3027  0.0632  0.0876
   37MOL   H60035232   5.703   7.421   5.672  0.2516  0.4962 -1.2844
   37MOL   H60135233   5.730   7.336   5.882  0.0669  1.0782 -0.0054
   37MOL   H60235234   5.914   7.374   5.870 -1.6836  2.3648  1.0880
   37MOL   H60335235   6.027   7.301   5.699 -0.0496  0.4068 -2.6007
   37MOL   H60435236   6.105   7.120   5.547  0.8139 -0.1281  1.8590
   37MOL   H60535237   5.935   6.912   5.521 -0.2285 -0.6573 -0.7889
   37MOL   H60635238   5.748   6.899   5.649 -3.3717  1.0867  0.0897
   37MOL   H60735239   5.660   7.126   5.939  2.6716  0.3955 -1.4707
   37MOL   H60835240   5.622   6.977   5.866 -0.2114  0.0777 -0.2044
   37MOL   H60935241   5.508   7.228   5.814 -1.0894 -0.6485  1.2850
   37MOL   H61035242   5.301   7.225   5.731 -1.9485  0.3046 -1.3510
   37MOL   H61135243   5.241   7.079   5.660 -0.0310  0.4305 -5.0582
   37MOL   H61235244   5.314   7.134   5.448  1.0667 -2.2080  2.2124
   37MOL   H61335245   5.412   7.278   5.505  0.6510 -0.1026 -1.1447
   37MOL   H61435246   5.119   7.225   5.503 -1.1326  0.8826 -0.4348
   37MOL   H61535247   5.166   7.363   5.591 -0.3457  0.2221 -0.4949
   37MOL   H61635248   5.264   7.457   5.374 -1.5049  0.3779 -0.3254
   37MOL   H61735249   5.185   7.330   5.293  2.3980 -0.2864  0.5878
   37MOL   H61835250   4.963   7.422   5.400  0.7826 -1.0713  0.6923
   37MOL   H61935251   5.057   7.549   5.480 -0.1591  0.8677 -0.9889
   37MOL   H62035252   5.117   7.660   5.273 -0.6497  0.6436 -2.4378
   37MOL   H62135253   4.940   7.642   5.274 -0.2898 -1.5859 -0.2950
   37MOL   H62235254   5.167   7.506   5.137  1.1161  0.5223 -0.9514
   37MOL   H62335255   4.994   7.445   5.120 -1.8010  2.3588 -0.5287
   37MOL   H62435256   5.054   7.562   4.917 -2.4707  0.2604 -0.5302
   37MOL   H62535257   4.929   7.629   5.001 -0.4928 -2.7327  1.2224
   37MOL   N62635258   5.220   7.740   4.912  0.6541 -0.3954  0.1955
   37MOL   C62735259   5.293   0.070   4.870 -0.0031  0.8015  0.2656
   37MOL   C62835260   5.420   0.090   4.952  0.0018  0.1521  0.5586
   37MOL   C62935261   5.504   7.770   4.966 -0.4713  0.7498 -0.3772
   37MOL   C63035262   5.626   7.768   5.035  0.2077 -0.3763  0.3642
   37MOL   C63135263   5.660   0.094   5.105 -0.1779 -0.3105  0.3133
   37MOL   C63235264   5.576   0.209   5.105  0.0354  0.6850 -0.9114
   37MOL   C63335265   5.456   0.206   5.024  0.1131 -0.3717 -0.3513
   37MOL   C63435266   5.370   0.335   5.013 -0.4087  0.0943  0.0080
   37MOL   N63535267   5.223   0.325   5.037 -0.1091  0.9448 -0.3982
   37MOL   C63635268   5.159   0.423   5.102 -0.8511  0.3156  0.3697
   37MOL   O63735269   5.209   0.530   5.133  0.0203  0.6326  0.2041
   37MOL   C63835270   5.013   0.393   5.120  1.2515  0.1798  0.6118
   37MOL   C63935271   4.975   0.304   5.236 -0.1772 -0.0370 -0.3506
   37MOL   C64035272   4.830   0.250   5.226 -0.3366 -1.0085 -0.3093
   37MOL   C64135273   4.775   0.204   5.366 -0.6896 -0.8157  0.5014
   37MOL   C64235274   4.643   0.126   5.362  0.1396  0.4017 -0.0188
   37MOL   C64335275   4.558   0.131   5.492 -0.0315 -0.5124  0.0387
   37MOL   C64435276   4.610   0.071   5.625  0.0247 -0.5064 -0.0005
   37MOL   C64535277   4.506   0.093   5.729 -0.1387 -0.2356 -0.3732
   37MOL   C64635278   4.531   7.790   5.853 -0.3828  0.4156 -0.4409
   37MOL   O64735279   4.473   7.686   5.871 -0.2146 -0.4034 -0.4000
   37MOL   H64835280   5.243   7.655   4.863  0.9370  0.1978 -0.7240
   37MOL   H64935281   5.225   0.155   4.867 -2.3942 -1.0616 -0.6193
   37MOL   H65035282   5.320   0.046   4.767 -1.7735  0.7246 -0.2157
   37MOL   H65135283   5.476   7.674   4.925 -0.7945  0.7394 -0.1354
   37MOL   H65235284   5.701   7.691   5.046  2.0414  0.5278 -4.6249
   37MOL   H65335285   5.749   0.102   5.164  0.0539  0.2609 -0.1035
   37MOL   H65435286   5.609   0.293   5.165 -0.7864 -1.1718  2.3014
   37MOL   H65535287   5.375   0.390   4.919  1.8613  2.1611  1.2689
   37MOL   H65635288   5.414   0.395   5.093 -0.0315  0.1824 -0.2639
   37MOL   H65735289   5.176   0.236   5.032  1.0928  0.3417 -1.1866
   37MOL   H65835290   4.991   0.341   5.027 -0.6234  1.5477  0.2733
   37MOL   H65935291   4.969   0.492   5.109 -0.1903 -0.1190  3.2282
   37MOL   H66035292   5.004   0.363   5.323 -0.8906 -0.3219  0.0877
   37MOL   H66135293   5.033   0.212   5.243 -1.4686 -0.8992 -0.6144
   37MOL   H66235294   4.769   0.330   5.185 -0.3965 -0.1636  1.3660
   37MOL   H66335295   4.822   0.164   5.160 -1.7057 -0.9359 -0.2525
   37MOL   H66435296   4.850   0.140   5.414  0.6399 -0.3213 -0.8674
   37MOL   H66535297   4.775   0.294   5.427 -0.0059 -1.5447  1.5998
   37MOL   H66635298   4.571   0.166   5.290 -1.1782  0.6626  1.4204
   37MOL   H66735299   4.673   0.028   5.324  0.0509  0.5483 -0.4735
   37MOL   H66835300   4.478   0.061   5.465  1.7457 -2.5216 -0.1799
   37MOL   H66935301   4.519   0.231   5.510  1.7179  0.1801  0.0709
   37MOL   H67035302   4.639   7.756   5.621 -2.1354 -1.1273  0.0405
   37MOL   H67135303   4.695   0.134   5.654 -1.7972  1.9495  0.1603
   37MOL   H67235304   4.404   0.075   5.693 -0.6137  0.7622  0.4637
   37MOL   H67335305   4.500   0.197   5.759  2.0569  0.0853 -0.9759
   37MOL   N67435306   4.615   0.049   5.942  0.1020 -0.7801 -0.5207
   37MOL   C67535307   4.636   7.788   6.078 -0.0213  0.4684 -0.1352
   37MOL   C67635308   4.705   0.091   6.175 -0.0990  0.3298  0.6719
   37MOL   C67735309   4.680   0.228   6.161 -0.2483 -0.3589  0.1865
   37MOL   C67835310   4.740   0.320   6.244  0.1069 -0.4868 -0.3276
   37MOL   C67935311   4.814   0.266   6.359  0.3381 -0.1145  0.2023
   37MOL   C68035312   4.843   0.125   6.363  0.2557  0.2419  0.5228
   37MOL   C68135313   4.791   0.037   6.271 -0.4940 -0.0116  0.6517
   37MOL   C68235314   4.821   7.680   6.283 -0.8614  0.3932 -0.4444
   37MOL   N68335315   4.912   7.646   6.170  0.1142  0.4319 -0.6126
   37MOL   C68435316   4.920   7.520   6.124 -0.7519 -0.5028  0.5614
   37MOL   O68535317   4.864   7.424   6.172 -0.0584 -0.4271  0.2771
   37MOL   C68635318   5.009   7.506   5.998  0.1196  0.3179  0.8814
   37MOL   C68735319   4.944   7.422   5.888  0.0373 -0.6778  0.3683
   37MOL   C68835320   4.812   7.481   5.844  0.1303  0.1117  0.0701
   37MOL   C68935321   4.785   7.434   5.705 -0.1594 -0.1050  0.6167
   37MOL   C69035322   4.644   7.450   5.667 -0.3332  0.2799 -0.0711
   37MOL   C69135323   4.622   7.399   5.523 -0.1434  0.1442  0.2330
   37MOL   C69235324   4.667   7.483   5.401 -0.2831  0.3746  0.4323
   37MOL   C69335325   4.690   7.400   5.278  0.0507  0.3371  0.2884
   37MOL   C69435326   4.678   7.475   5.140  0.1188 -0.0854 -0.6511
   37MOL   O69535327   4.676   7.601   5.124 -0.1761  0.4699 -0.4251
   37MOL   H69635328   4.658   0.138   5.921  0.5509 -1.1655 -1.2611
   37MOL   H69735329   4.674   7.688   6.059 -1.2268 -0.2481  1.1343
   37MOL   H69835330   4.541   7.765   6.127  1.0590 -0.0504  1.7631
   37MOL   H69935331   4.616   0.266   6.082 -1.9407 -3.8664 -0.2114
   37MOL   H70035332   4.720   0.426   6.251 -2.6716 -0.9950  0.3093
   37MOL   H70135333   4.864   0.334   6.426  0.3586  0.1995 -0.1312
   37MOL   H70235334   4.906   0.085   6.441  0.0609  1.9608  1.5832
   37MOL   H70335335   4.724   7.630   6.288 -0.6255 -0.1074 -0.8237
   37MOL   H70435336   4.864   7.654   6.380  1.4766  1.0344 -1.2708
   37MOL   H70535337   4.968   7.722   6.135  1.9647 -0.4094  0.4466
   37MOL   H70635338   5.105   7.462   6.024  0.2265  1.1546  1.9411
   37MOL   H70735339   5.023   7.600   5.943 -0.7377  0.3094  0.6338
   37MOL   H70835340   4.913   7.325   5.927  0.1998 -0.3972  1.1960
   37MOL   H70935341   5.021   7.406   5.813  1.1813  0.9004  1.2059
   37MOL   H71035342   4.735   7.445   5.912  1.9555 -1.3910  1.3950
   37MOL   H71135343   4.819   7.589   5.835 -0.7624  0.2286  0.8021
   37MOL   H71235344   4.849   7.482   5.631  1.8889  0.9607  3.0132
   37MOL   H71335345   4.823   7.332   5.691 -0.3207  0.0267 -0.8119
   37MOL   H71435346   4.579   7.396   5.736  1.8920  2.5852  4.0033
   37MOL   H71535347   4.623   7.556   5.680 -1.9723 -0.1163  0.6437
   37MOL   H71635348   4.516   7.373   5.516 -0.5363  1.3493  1.5076
   37MOL   H71735349   4.677   7.306   5.520 -0.0850  0.1938 -0.2588
   37MOL   H71835350   4.764   7.527   5.427 -0.0807  0.7862 -0.9623
   37MOL   H71935351   4.601   7.569   5.391  0.6841  1.1840  0.8067
   37MOL   H72035352   4.632   7.308   5.273  2.6859 -1.4834  1.8425
   37MOL   H72135353   4.795   7.369   5.279  0.6888  2.3555 -1.3076
   37MOL   N72235354   4.664   7.390   5.040  0.0395 -0.3499  0.7198
   37MOL   C72335355   4.676   7.419   4.898  0.2276 -0.1979  0.0806
   37MOL   C72435356   4.550   7.389   4.810 -0.0246 -0.0419  0.3304
   37MOL   C72535357   4.435   7.333   4.871 -0.0447  0.0682 -0.1250
   37MOL   C72635358   4.318   7.324   4.798  0.5920 -0.4448  0.0645
   37MOL   C72735359   4.307   7.361   4.662 -0.2909 -0.2971 -0.0048
   37MOL   C72835360   4.427   7.405   4.604 -0.4887  0.6107  0.3417
   37MOL   C72935361   4.545   7.416   4.677 -0.0629 -0.7695  0.4037
   37MOL   C73035362   4.668   7.470   4.599  0.6061 -0.0206 -0.4175
   37MOL   N73135363   4.629   7.587   4.531 -0.4777  0.5846  0.7145
   37MOL   C73235364   4.711   7.648   4.447 -0.2969  0.0643  0.2495
   37MOL   O73335365   4.813   7.597   4.402 -0.3769 -0.0254  0.6187
   37MOL   C73435366   4.689   7.789   4.408 -0.0428  0.0510 -0.0664
   37MOL   C73535367   4.802   0.065   4.326 -0.1064 -0.5277  0.6909
   37MOL   C73635368   4.805   0.027   4.179  0.2461 -0.1404 -1.2665
   37MOL   C73735369   4.935   0.085   4.107  0.4650 -0.2971  0.5699
   37MOL   C73835370   4.936   0.234   4.084 -0.1354  0.0129 -0.0006
   37MOL   C73935371   5.071   0.266   4.014 -0.1834 -0.2374  0.8622
   37MOL   C74035372   5.101   0.421   4.013 -0.5091 -0.3385  0.2988
   37MOL   C74135373   5.242   0.455   3.961  0.5187  0.1626 -0.2688
   37MOL   C74235374   5.359   0.390   4.032 -0.2226 -0.5265 -0.7304
   37MOL   O74335375   5.357   0.378   4.157  0.1937  0.1656  0.2007
   37MOL   H74435376   4.669   7.291   5.056 -0.3836 -1.0478 -3.0647
   37MOL   H74535377   4.761   7.367   4.854  0.1436 -1.0447  0.9115
   37MOL   H74635378   4.693   7.527   4.894  3.1284 -0.6247  0.4004
   37MOL   H74735379   4.445   7.309   4.976  1.8739  0.0188 -0.3029
   37MOL   H74835380   4.228   7.287   4.845  0.8291 -0.8002  0.2443
   37MOL   H74935381   4.212   7.358   4.611 -2.0002  2.5341  2.8651
   37MOL   H75035382   4.421   7.436   4.500  2.9966 -1.7663 -0.6692
   37MOL   H75135383   4.702   7.392   4.531  1.1940 -0.5500  0.4830
   37MOL   H75235384   4.749   7.496   4.667  0.3301 -3.5282  1.3681
   37MOL   H75335385   4.570   7.657   4.574  0.4074  0.5637  1.9734
   37MOL   H75435386   4.677   0.047   4.504 -0.3183  0.7906 -0.4679
   37MOL   H75535387   4.593   0.019   4.360  0.2670  0.2375 -0.6233
   37MOL   H75635388   4.897   0.031   4.369  0.6525 -2.6653 -2.4571
   37MOL   H75735389   4.793   0.171   4.349 -2.2270 -0.6105  0.2992
   37MOL   H75835390   4.806   7.709   4.170  0.3084 -0.1378 -1.2919
   37MOL   H75935391   4.713   0.076   4.145 -0.1718  1.6259  2.2167
   37MOL   H76035392   5.022   0.044   4.157  0.0959 -1.5455  0.2371
   37MOL   H76135393   4.939   0.047   4.004 -0.6112 -3.0180  1.4658
   37MOL   H76235394   4.850   0.249   4.018 -1.3552 -0.8336  1.3518
   37MOL   H76335395   4.930   0.296   4.174  0.1782  1.2798 -0.8536
   37MOL   H76435396   5.080   0.228   3.913 -0.5084  0.2073  0.6656
   37MOL   H76535397   5.160   0.219   4.058 -0.4683  0.4791  2.2426
   37MOL   H76635398   5.029   0.469   3.947 -1.5054  0.2979  1.8031
   37MOL   H76735399   5.081   0.473   4.107 -2.3334  0.1903 -0.3573
   37MOL   H76835400   5.249   0.432   3.855 -0.8712 -1.5169 -0.0010
   37MOL   H76935401   5.250   0.564   3.962 -0.2620  0.2535 -1.9067
   37MOL   N77035402   5.463   0.351   3.951 -0.0863  0.0049 -0.0590
   37MOL   C77135403   5.578   0.279   3.997  0.7220 -0.3088  0.1525
   37MOL   C77235404   5.671   0.238   3.886  0.0748 -0.4820  0.4229
   37MOL   C77335405   5.620   0.154   3.787 -0.7311 -0.4202  0.1916
   37MOL   C77435406   5.701   0.124   3.679  0.4317 -0.4313 -0.0656
   37MOL   C77535407   5.828   0.181   3.657 -0.2788 -0.0486 -0.4154
   37MOL   C77635408   5.878   0.266   3.756  0.2009  0.5839 -0.5002
   37MOL   C77735409   5.805   0.294   3.872  0.4054  0.5695 -0.4869
   37MOL   C77835410   5.867   0.393   3.966 -0.3770  0.1599 -0.9266
   37MOL   N77935411   5.991   0.461   3.935 -0.4925 -0.2776  0.1245
   37MOL   C78035412   6.016   0.593   3.937  0.2967 -0.0581  0.3749
   37MOL   O78135413   5.925   0.671   3.954 -0.0946 -0.1979  0.0184
   37MOL   C78235414   6.151   0.655   3.914  0.0388  0.8428 -0.4485
   37MOL   C78335415   6.162   0.741   3.790  0.4204 -0.5824  0.5345
   37MOL   C78435416   6.106   0.679   3.659 -0.2597 -0.2196  0.1320
   37MOL   C78535417   6.129   0.763   3.533  0.1471 -0.2989  0.3403
   37MOL   C78635418   6.083   0.912   3.541 -0.4536  0.4195  0.6902
   37MOL   C78735419   6.101   0.984   3.409  0.0107  0.4499  0.4726
   37MOL   C78835420   6.056   1.125   3.430 -0.2028  0.4967 -0.0506
   37MOL   C78935421   6.014   1.196   3.302 -0.0405 -0.3508 -0.3403
   37MOL   C79035422   6.132   1.236   3.217  0.2355 -0.1177 -0.1467
   37MOL   O79135423   6.231   1.168   3.216  0.3528 -0.1275 -0.0095
   37MOL   H79235424   5.449   0.369   3.853  0.7518  1.1047  0.0096
   37MOL   H79335425   5.633   0.339   4.069  0.8810  1.7195 -1.6242
   37MOL   H79435426   5.541   0.192   4.051 -2.0208  0.7349  0.0458
   37MOL   H79535427   5.520   0.114   3.799 -0.6272 -0.7084  0.1088
   37MOL   H79635428   5.674   0.047   3.609  0.5424 -0.1102 -0.4661
   37MOL   H79735429   5.897   0.143   3.583 -0.5569 -0.1395 -0.6273
   37MOL   H79835430   5.972   0.316   3.739  0.3186  0.9151  1.0310
   37MOL   H79935431   5.899   0.333   4.051  0.2337  1.0775 -0.5116
   37MOL   H80035432   5.790   0.468   3.986 -1.0367 -1.0420  1.1212
   37MOL   H80135433   6.069   0.396   3.933  2.5680  3.1967  1.2970
   37MOL   H80235434   6.223   0.574   3.910  0.2133  0.9274  0.7310
   37MOL   H80335435   6.177   0.713   4.003 -3.0021  0.5993  0.6571
   37MOL   H80435436   6.268   0.759   3.777  0.3826 -1.0462 -0.4327
   37MOL   H80535437   6.102   0.831   3.805  1.4979  0.3649 -0.7263
   37MOL   H80635438   5.997   0.675   3.663 -0.2318 -0.7724  0.4469
   37MOL   H80735439   6.125   0.572   3.652  0.2495 -0.0641 -0.9214
   37MOL   H80835440   6.224   0.758   3.480  0.9136 -0.2929  1.6899
   37MOL   H80935441   6.053   0.729   3.463 -1.0392  1.8629  0.5235
   37MOL   H81035442   5.985   0.932   3.586 -0.1159  1.1799  1.0869
   37MOL   H81135443   6.149   0.962   3.612 -0.9141 -0.4730  1.7726
   37MOL   H81235444   6.046   0.930   3.332 -1.8631  0.3003  1.8806
   37MOL   H81335445   6.200   0.987   3.364 -1.0000 -3.4109 -2.3143
   37MOL   H81435446   6.139   1.176   3.477 -1.6679  0.8236  2.2365
   37MOL   H81535447   5.967   1.140   3.491 -0.8730 -2.3683 -0.2470
   37MOL   H81635448   5.971   1.293   3.325  0.3303 -0.1158 -0.6378
   37MOL   H81735449   5.945   1.139   3.239 -0.5180 -0.1890  0.0369
   37MOL   N81835450   6.112   1.345   3.140  0.0023 -0.1864 -0.5978
   37MOL   C81935451   6.195   1.381   3.021  0.1967  0.2169 -0.0320
   37MOL   C82035452   6.182   1.278   2.908  0.1748  0.3951 -0.5497
   37MOL   C82135453   6.055   1.275   2.844  0.3079 -0.3058  0.0178
   37MOL   C82235454   6.035   1.198   2.732  0.7723  0.2518 -0.2014
   37MOL   C82335455   6.133   1.114   2.677  0.6890  0.4401 -0.5727
   37MOL   C82435456   6.258   1.113   2.742 -0.4153  0.0892  0.4906
   37MOL   C82535457   6.286   1.193   2.856  0.4225  0.0673  0.3095
   37MOL   C82635458   6.429   1.191   2.916 -0.4585 -0.3028  0.4921
   37MOL   N82735459   6.451   1.131   3.039 -0.1564 -0.0490 -0.3125
   37MOL   C82835460   6.576   1.111   3.094 -0.3911 -0.0280  0.7092
   37MOL   O82935461   6.677   1.113   3.028 -0.4752  0.2499  0.2009
   37MOL   C83035462   6.581   1.102   3.243 -0.6691 -0.0059 -0.0456
   37MOL   C83135463   6.687   1.193   3.318 -0.0382  0.3521 -0.1783
   37MOL   C83235464   6.671   1.345   3.306  0.2568  0.2501 -0.5774
   37MOL   C83335465   6.555   1.399   3.393  0.5895  0.3367  0.1104
   37MOL   C83435466   6.559   1.549   3.385 -0.1474  0.7394 -0.0883
   37MOL   C83535467   6.436   1.623   3.443 -0.5590 -0.5260  0.0590
   37MOL   C83635468   6.429   1.776   3.430  0.3917 -0.0766  0.2920
   37MOL   C83735469   6.508   1.853   3.544 -0.1676 -0.0886  0.6716
   37MOL   C83835470   6.416   1.891   3.665 -0.2652 -0.7170 -0.5802
   37MOL   O83935471   6.355   1.803   3.723  1.1023  0.0853 -0.0025
   37MOL   H84035472   6.033   1.403   3.163  1.0063  0.8277  0.4096
   37MOL   H84135473   6.144   1.466   2.976  1.6368  0.3655 -1.4391
   37MOL   H84235474   6.294   1.416   3.048  0.0111  1.4195 -0.8695
   37MOL   H84335475   5.973   1.333   2.885 -0.6258  0.2543 -2.5176
   37MOL   H84435476   5.933   1.193   2.696 -0.1682 -0.3755  2.4421
   37MOL   H84535477   6.121   1.048   2.592 -1.4753  1.9953 -1.5090
   37MOL   H84635478   6.335   1.048   2.703 -1.8589 -1.7352  0.6258
   37MOL   H84735479   6.457   1.295   2.932 -1.1807  0.2752 -1.7993
   37MOL   H84835480   6.500   1.156   2.841  0.2343  0.6239  0.7153
   37MOL   H84935481   6.372   1.143   3.100 -0.3476  1.2236 -0.7869
   37MOL   H85035482   6.601   0.996   3.260  0.7900  0.1043 -0.9734
   37MOL   H85135483   6.481   1.126   3.279 -0.5190  1.2159 -0.4228
   37MOL   H85235484   6.792   1.168   3.306  0.0176  0.7002 -0.4097
   37MOL   H85335485   6.680   1.177   3.425  2.2328 -2.2750 -0.3626
   37MOL   H85435486   6.664   1.378   3.202  0.1255 -0.9377 -0.9550
   37MOL   H85535487   6.770   1.377   3.337  0.1232 -0.1660  0.2913
   37MOL   H85635488   6.461   1.355   3.360  1.0732  0.4160 -1.4275
   37MOL   H85735489   6.572   1.370   3.496 -0.6752  1.1102  0.5479
   37MOL   H85835490   6.645   1.591   3.437  0.3594  0.9883 -1.0987
   37MOL   H85935491   6.555   1.580   3.280 -1.9204  1.0069  0.0515
   37MOL   H86035492   6.416   1.592   3.545  0.7592 -2.6885 -0.2979
   37MOL   H86135493   6.353   1.583   3.384  0.2378 -2.6798  0.3476
   37MOL   H86235494   6.323   1.794   3.446  0.0091 -0.4270 -1.6426
   37MOL   H86335495   6.454   1.810   3.329  1.9522 -0.5117  0.5174
   37MOL   H86435496   6.597   1.801   3.580  2.0584  2.5752 -0.8575
   37MOL   H86535497   6.549   1.948   3.511 -0.3722 -0.4355 -0.6049
   37MOL   N86635498   6.413   2.027   3.696  0.0683  0.3485 -0.0219
   37MOL   C86735499   6.331   2.092   3.802  0.4848 -0.7268 -0.0785
   37MOL   C86835500   6.201   2.161   3.763 -0.4657  0.3134  0.4278
   37MOL   C86935501   6.169   2.155   3.631 -0.1708 -0.0282 -0.1535
   37MOL   C87035502   6.055   2.222   3.585 -0.1768  0.3977  0.8301
   37MOL   C87135503   5.966   2.287   3.670  0.2850 -0.1125  0.8057
   37MOL   C87235504   5.985   2.288   3.806  0.4609 -0.4672  0.5594
   37MOL   C87335505   6.110   2.224   3.852  0.4205  0.0191  0.0482
   37MOL   C87435506   6.137   2.232   4.002  0.0491 -0.0784 -0.1760
   37MOL   N87535507   6.092   2.361   4.051 -0.3733  0.2334 -0.2114
   37MOL   C87635508   6.114   2.406   4.172  0.3196 -0.1239  0.3908
   37MOL   O87735509   6.176   2.334   4.254  0.2178  0.3349 -1.6238
   37MOL   C87835510   6.048   2.532   4.220  0.0044 -0.0268  0.0415
   37MOL   C87935511   6.150   2.623   4.293 -0.5414 -0.2978  0.0915
   37MOL   C88035512   6.165   2.602   4.446  0.0534 -0.0534  0.3162
   37MOL   C88135513   6.063   2.684   4.521 -0.0320  0.1437 -0.8059
   37MOL   C88235514   6.074   2.669   4.672 -0.3047 -0.4207 -0.4431
   37MOL   C88335515   5.955   2.725   4.755  0.1394  0.1951 -0.9340
   37MOL   C88435516   5.992   2.735   4.907 -0.3160 -0.3981  0.7800
   37MOL   C88535517   5.880   2.808   4.990  0.4315  0.4178  0.5182
   37MOL   C88635518   5.743   2.730   4.991  0.0119 -0.1125 -0.0506
   37MOL   O88735519   5.743   2.605   4.977 -0.3757 -0.8410 -0.3717
   37MOL   H88835520   6.456   2.087   3.627 -0.9160  0.3087 -0.6801
   37MOL   H88935521   6.300   2.030   3.887 -0.8290 -1.4412 -1.0607
   37MOL   H89035522   6.405   2.165   3.835 -1.7783  2.2452 -1.2567
   37MOL   H89135523   6.231   2.100   3.562  0.8529  1.1417 -0.1897
   37MOL   H89235524   6.021   2.202   3.484  2.0922 -1.1670  0.3306
   37MOL   H89335525   5.871   2.326   3.639 -0.2616 -1.9023  0.1620
   37MOL   H89435526   5.917   2.324   3.881 -1.0470 -3.2213  0.5695
   37MOL   H89535527   6.242   2.220   4.031 -0.2517 -0.4932  0.7746
   37MOL   H89635528   6.076   2.156   4.051  0.4671  1.1326  2.2957
   37MOL   H89735529   6.039   2.418   3.986  0.8141  0.3442 -1.1074
   37MOL   H89835530   5.963   2.513   4.284 -1.9614  0.9621 -2.2094
   37MOL   H89935531   6.000   2.580   4.135 -2.0944 -4.1521 -1.2181
   37MOL   H90035532   6.145   2.728   4.265 -1.9180 -0.1343  0.8764
   37MOL   H90135533   6.247   2.597   4.253  0.1576  2.6502 -0.2290
   37MOL   H90235534   6.155   2.501   4.485  0.3674 -0.2445 -0.1035
   37MOL   H90335535   6.268   2.629   4.468  0.3230 -0.5197 -0.3619
   37MOL   H90435536   6.080   2.789   4.495 -0.2481 -0.1416 -2.0991
   37MOL   H90535537   5.961   2.659   4.492  0.2496  0.1844 -1.8240
   37MOL   H90635538   6.089   2.564   4.695  0.6897 -0.3634 -0.7806
   37MOL   H90735539   6.169   2.718   4.693 -0.0653 -0.0267 -2.2837
   37MOL   H90835540   5.867   2.662   4.743 -0.1315  0.3981 -0.0173
   37MOL   H90935541   5.913   2.818   4.717  0.5384  0.6765 -0.2084
   37MOL   H91035542   6.010   2.637   4.951 -1.4812  0.0780  2.3687
   37MOL   H91135543   6.083   2.793   4.921  0.2443 -1.3368  1.0322
   37MOL   H91235544   5.919   2.832   5.089 -1.4775 -1.2832  1.7176
   37MOL   H91335545   5.859   2.895   4.928  1.2011 -0.1568 -0.5717
   37MOL   N91435546   5.633   2.802   5.008  0.1211 -0.1845  0.3677
   37MOL   C91535547   5.507   2.735   5.047  0.0445  0.0900  0.9084
   37MOL   C91635548   5.477   2.760   5.196 -0.6337 -0.1976  0.5998
   37MOL   C91735549   5.423   2.885   5.228  0.7048  0.0328 -0.6141
   37MOL   C91835550   5.373   2.914   5.353  0.1991 -0.3081  0.3522
   37MOL   C91935551   5.376   2.816   5.454 -0.5468  0.3139 -0.0718
   37MOL   C92035552   5.439   2.691   5.427  0.3606 -0.1686  0.7696
   37MOL   C92135553   5.495   2.661   5.301  0.5075  0.4774  0.7219
   37MOL   C92235554   5.559   2.529   5.276 -0.1614 -0.1793  0.5311
   37MOL   N92335555   5.529   2.421   5.371  0.4588  0.1339  0.0161
   37MOL   C92435556   5.418   2.352   5.352 -0.6965  0.7304 -0.2127
   37MOL   O92535557   5.324   2.397   5.292  0.4277 -0.0549 -0.3687
   37MOL   C92635558   5.418   2.202   5.388  0.2749 -0.5884 -0.0068
   37MOL   C92735559   5.296   2.154   5.473 -0.3424 -0.2466  0.3879
   37MOL   C92835560   5.305   2.217   5.610 -0.2374 -0.1670  0.3833
   37MOL   C92935561   5.182   2.193   5.699 -0.1422 -0.4066 -0.1843
   37MOL   C93035562   5.203   2.240   5.847  0.2540 -0.2707  0.5516
   37MOL   C93135563   5.324   2.174   5.920 -0.2641 -0.3493  0.1724
   37MOL   C93235564   5.292   2.158   6.074 -0.5299 -0.3005  0.0617
   37MOL   C93335565   5.411   2.127   6.163  0.1739  0.8593 -0.7641
   37MOL   C93435566   5.370   2.113   6.310  0.6261 -0.4414  0.1018
   37MOL   O93535567   5.263   2.060   6.348 -0.2602 -0.6740 -0.0596
   37MOL   H93635568   5.643   2.902   5.020  0.1633 -0.0317 -0.9035
   37MOL   H93735569   5.436   2.781   4.979  0.0002 -1.1811  0.0676
   37MOL   H93835570   5.512   2.630   5.018  2.5779 -0.0025  1.5951
   37MOL   H93935571   5.410   2.965   5.156 -0.6516  0.6656  0.3135
   37MOL   H94035572   5.318   3.005   5.369  2.5471  0.9452  1.5429
   37MOL   H94135573   5.336   2.829   5.554  1.8954 -0.6335  1.0635
   37MOL   H94235574   5.448   2.621   5.508  2.3488  0.6062  1.2311
   37MOL   H94335575   5.666   2.550   5.272  0.3169 -2.5087  0.3342
   37MOL   H94435576   5.537   2.494   5.175 -0.7773  1.6199  0.0262
   37MOL   H94535577   5.612   2.376   5.408 -0.7548 -0.2296  2.3783
   37MOL   H94635578   5.513   2.163   5.424  0.8152  1.3331  0.7407
   37MOL   H94735579   5.404   2.150   5.293  2.6818  3.6963 -2.8746
   37MOL   H94835580   5.285   2.048   5.492  0.6306 -0.4166  0.0501
   37MOL   H94935581   5.201   2.186   5.430  0.2385  2.1462  0.8227
   37MOL   H95035582   5.393   2.178   5.660  0.7583 -0.9525 -1.9247
   37MOL   H95135583   5.324   2.323   5.595  0.6380 -0.6941 -2.4000
   37MOL   H95235584   5.096   2.252   5.669  1.1819  1.3616 -0.6360
   37MOL   H95335585   5.153   2.088   5.692  0.1263 -0.4115 -1.3328
   37MOL   H95435586   5.113   2.216   5.902  0.3126 -0.2330  0.6630
   37MOL   H95535587   5.206   2.348   5.834 -1.0173 -0.4537 -1.6264
   37MOL   H95635588   5.338   2.075   5.875 -1.9390  0.2423 -1.7669
   37MOL   H95735589   5.421   2.221   5.903  0.7047 -2.0266  0.9656
   37MOL   H95835590   5.210   2.087   6.082 -3.7237  3.2904  0.7498
   37MOL   H95935591   5.233   2.243   6.108 -0.9470 -0.1951 -0.9354
   37MOL   H96035592   5.482   2.208   6.154  1.8063 -0.8252 -3.6549
   37MOL   H96135593   5.449   2.031   6.127 -0.1772  0.1927  0.5977
   37MOL   H96235594   5.452   2.145   6.374 -0.5462 -0.3450  1.5769
   38MOL     N135595   7.120   1.355   7.760  0.6425 -0.8156  0.0100
   38MOL     C235596   7.024   1.268   0.021 -0.5392  0.9363  0.0660
   38MOL     C335597   6.957   1.314   0.155  0.6252  0.8960  0.4995
   38MOL     C435598   6.965   1.224   0.263  0.5642  0.1532  0.4169
   38MOL     C535599   6.903   1.249   0.382 -0.5946  0.3235  0.2235
   38MOL     C635600   6.831   1.368   0.399 -0.9526 -0.6968  0.8193
   38MOL     C735601   6.828   1.462   0.294 -0.0163  0.2539 -0.2721
   38MOL     C835602   6.885   1.436   0.167 -0.1699 -0.7258  0.5170
   38MOL     C935603   6.867   1.538   0.051 -0.7827  0.7704 -0.0081
   38MOL    N1035604   6.978   1.629   0.046  0.3672  0.4267 -0.1556
   38MOL    C1135605   6.970   1.743   7.757 -0.4225  0.7558 -0.5405
   38MOL    O1235606   6.868   1.764   7.691  0.0970 -0.6721 -0.0099
   38MOL    C1335607   7.082   1.843   7.763 -0.4545  0.2023  0.0342
   38MOL    C1435608   7.041   1.983   0.011  0.4150  0.0665  0.2288
   38MOL    C1535609   7.150   2.080   0.030 -0.2170  0.1865  0.6664
   38MOL    C1635610   7.219   2.061   0.161  0.2655  0.3795  0.0338
   38MOL    C1735611   7.352   2.140   0.178  0.3965  0.2669  0.1563
   38MOL    C1835612   7.406   2.127   0.315  0.3044 -0.5793 -0.2991
   38MOL    C1935613   7.369   2.246   0.406 -1.3295  0.0140  0.1559
   38MOL    C2035614   7.371   2.221   0.554 -0.1421  0.2151 -0.8508
   38MOL    C2135615   7.251   2.142   0.612 -0.4637 -0.0207 -0.0862
   38MOL    O2235616   7.145   2.203   0.629 -0.3457  0.1936  0.0034
   38MOL    H2335617   7.109   1.382   7.663  0.9746 -0.0530  0.1752
   38MOL    H2435618   6.947   1.243   7.738  0.9572 -0.9176 -0.8944
   38MOL    H2535619   7.050   1.163   0.034 -1.2285  0.8195  0.5431
   38MOL    H2635620   7.021   1.131   0.263  0.7878  0.2874  0.9351
   38MOL    H2735621   6.912   1.185   0.468 -0.8032 -2.9119 -2.0738
   38MOL    H2835622   6.796   1.397   0.497 -1.2080  1.1550  0.2088
   38MOL    H2935623   6.784   1.559   0.312 -0.3558  0.6982 -3.1864
   38MOL    H3035624   6.779   1.599   0.070 -0.1182  0.6447  3.9070
   38MOL    H3135625   6.837   1.491   7.747  1.6054 -1.2245  0.1860
   38MOL    H3235626   7.063   1.603   0.093  0.0385 -0.2956  0.0397
   38MOL    H3335627   7.128   1.846   7.664 -2.7922  0.9252 -1.0525
   38MOL    H3435628   7.157   1.812   0.046 -0.3142 -1.7603 -0.9014
   38MOL    H3535629   6.994   1.972   0.109  2.4314  0.8486  1.2941
   38MOL    H3635630   6.961   2.007   7.731  1.6379 -3.3177 -2.5148
   38MOL    H3735631   7.227   2.084   7.743 -0.5669 -1.5643  0.1981
   38MOL    H3835632   7.107   2.181   0.026 -1.6107 -0.4585 -2.6778
   38MOL    H3935633   7.146   2.094   0.235  0.9131 -1.7779  1.6968
   38MOL    H4035634   7.238   1.958   0.191 -1.9686  0.1675  0.8108
   38MOL    H4135635   7.424   2.105   0.104  0.7327  1.8845 -0.3045
   38MOL    H4235636   7.336   2.244   0.151  1.3524  1.0288  2.4003
   38MOL    H4335637   7.514   2.126   0.324  0.3295 -3.6490 -0.5720
   38MOL    H4435638   7.376   2.033   0.362 -1.7924 -1.1320 -2.6131
   38MOL    H4535639   7.430   2.335   0.392  1.0241 -1.4555  0.8184
   38MOL    H4635640   7.264   2.272   0.392 -1.4237 -0.7753 -0.6880
   38MOL    H4735641   7.376   2.313   0.612 -1.0188 -1.4223  1.9186
   38MOL    H4835642   7.472   2.182   0.569  0.3225  0.6590 -2.7140
   38MOL    H4935643   7.214   1.319   7.761  1.2996  0.6196 -3.5626
   38MOL    N5035644   7.279   2.016   0.650  0.2168 -0.5344  1.0191
   38MOL    C5135645   7.175   1.918   0.683  0.2600  1.0037  0.1446
   38MOL    C5235646   7.087   1.876   0.570 -1.0897 -0.3939  0.6069
   38MOL    C5335647   7.143   1.821   0.455 -0.1949  0.1597  1.2282
   38MOL    C5435648   7.058   1.774   0.350 -0.5245 -0.3403  0.4742
   38MOL    C5535649   6.918   1.800   0.357 -0.4579  0.3346  0.4454
   38MOL    C5635650   6.859   1.848   0.471  0.2132 -0.1512 -0.4615
   38MOL    C5735651   6.940   1.884   0.580 -0.8384  0.4403  0.3121
   38MOL    C5835652   6.868   1.940   0.699  0.6653  0.0975 -0.3154
   38MOL    N5935653   6.908   2.079   0.737 -0.4769  0.2603 -0.0492
   38MOL    C6035654   6.867   2.131   0.852 -0.8560 -0.0600 -0.5604
   38MOL    O6135655   6.778   2.083   0.919 -0.2179 -0.3546 -0.4860
   38MOL    C6235656   6.928   2.268   0.876 -0.3613  0.3194 -0.4177
   38MOL    C6335657   7.026   2.252   0.985  0.7990  0.8525 -0.1149
   38MOL    C6435658   7.123   2.370   1.012  0.5636  0.6220 -0.0482
   38MOL    C6535659   7.233   2.380   0.901 -0.3808  0.3138  0.0981
   38MOL    C6635660   7.351   2.482   0.927  0.5802  0.4184  0.3031
   38MOL    C6735661   7.305   2.624   0.971  0.1643  0.1140  0.2568
   38MOL    C6835662   7.262   2.712   0.849  0.6124 -0.1786 -0.8056
   38MOL    C6935663   7.147   2.811   0.867 -0.2157  0.5025  0.0066
   38MOL    C7035664   7.192   2.939   0.934 -0.4481 -0.7732 -0.2820
   38MOL    O7135665   7.271   3.014   0.878 -0.6195  0.5050  0.5992
   38MOL    H7235666   7.359   1.970   0.609  0.2764  0.2756  0.2223
   38MOL    H7335667   7.121   1.950   0.772  0.1666 -1.4266  0.9778
   38MOL    H7435668   7.228   1.830   0.718  0.3877 -0.0441 -2.5189
   38MOL    H7535669   7.250   1.812   0.449 -0.0969  1.3894  0.9078
   38MOL    H7635670   7.103   1.723   0.266 -2.3716  0.0888 -0.7988
   38MOL    H7735671   6.857   1.763   0.277  0.0164  2.7173 -1.0856
   38MOL    H7835672   6.753   1.864   0.481  0.2758  0.1089 -0.2251
   38MOL    H7935673   6.890   1.861   0.771 -2.3168 -0.3346  0.1785
   38MOL    H8035674   6.760   1.928   0.692  0.7276  0.0081 -1.2367
   38MOL    H8135675   6.991   2.116   0.693 -0.0474 -1.2881 -0.5668
   38MOL    H8235676   6.844   2.335   0.898 -1.1713 -0.5357 -0.8436
   38MOL    H8335677   6.984   2.303   0.790 -1.1650  2.4718 -0.0944
   38MOL    H8435678   7.091   2.166   0.971  0.9276  0.3473  3.0770
   38MOL    H8535679   6.974   2.231   1.079  0.3009 -0.9845 -0.7925
   38MOL    H8635680   7.069   2.464   1.024 -1.9689 -0.8092 -0.0552
   38MOL    H8735681   7.175   2.361   1.108 -1.5026 -1.9694  0.8850
   38MOL    H8835682   7.285   2.287   0.876  2.4934  1.9524 -0.3031
   38MOL    H8935683   7.177   2.407   0.812 -1.3824 -2.4097 -0.1439
   38MOL    H9035684   7.405   2.442   1.014 -0.0156 -0.1388  0.4201
   38MOL    H9135685   7.422   2.487   0.845  0.9605 -0.1934  0.5941
   38MOL    H9235686   7.395   2.660   1.022 -0.7986  2.2138  0.5079
   38MOL    H9335687   7.226   2.629   1.046 -1.3070 -3.0400 -1.0208
   38MOL    H9435688   7.228   2.636   0.779 -1.0294 -0.4823  0.2863
   38MOL    H9535689   7.348   2.752   0.796 -0.1332  0.4334 -1.5587
   38MOL    H9635690   7.066   2.767   0.925 -1.3899 -0.0281 -1.9980
   38MOL    H9735691   7.104   2.837   0.770  1.2246 -2.8007 -1.5940
   38MOL    N9835692   7.146   2.961   1.052 -0.4426  1.1164 -0.5645
   38MOL    C9935693   7.209   3.045   1.156  0.0609 -0.5960 -0.4123
   38MOL   C10035694   7.114   3.154   1.194  0.0178 -0.0721  0.0485
   38MOL   C10135695   7.019   3.127   1.294 -0.3954  0.0113 -0.6679
   38MOL   C10235696   6.917   3.220   1.333 -0.2717  0.0184 -0.4207
   38MOL   C10335697   6.914   3.341   1.268 -0.3252 -0.2553 -0.6366
   38MOL   C10435698   7.009   3.373   1.164  1.0158  0.3582  0.0192
   38MOL   C10535699   7.114   3.283   1.134 -0.1669  0.1423  0.4524
   38MOL   C10635700   7.224   3.331   1.038 -0.3004 -0.2140 -0.3635
   38MOL   N10735701   7.243   3.476   1.031 -0.3362  0.0409 -0.7908
   38MOL   C10835702   7.302   3.561   1.113 -0.2058  0.4852  0.8428
   38MOL   O10935703   7.289   3.683   1.104  0.4071 -0.1122  0.4345
   38MOL   C11035704   7.394   3.508   1.222  0.1081  0.1177 -0.2710
   38MOL   C11135705   7.491   3.609   1.281  0.3642 -0.1801 -0.5851
   38MOL   C11235706   7.536   3.565   1.422  0.1861 -0.9531  0.1692
   38MOL   C11335707   7.416   3.562   1.521  0.4016 -0.4774 -0.8818
   38MOL   C11435708   7.456   3.547   1.672 -0.1884 -0.1298 -0.0411
   38MOL   C11535709   7.535   3.420   1.706 -0.0317  0.1767 -0.4376
   38MOL   C11635710   7.595   3.416   1.850  0.0294 -0.5187  0.1199
   38MOL   C11735711   7.751   3.408   1.863  0.0087 -0.2756  0.3670
   38MOL   C11835712   0.022   3.522   1.781 -0.2196 -0.8081  0.6034
   38MOL   O11935713   7.776   3.642   1.788 -0.2531  0.3662 -0.5053
   38MOL   H12035714   7.082   2.895   1.093  1.7631 -2.0105 -1.9039
   38MOL   H12135715   7.228   2.993   1.250  0.7407 -0.5079 -0.4980
   38MOL   H12235716   7.310   3.072   1.124  0.4530 -0.7660  0.6824
   38MOL   H12335717   7.017   3.034   1.347 -4.5956  0.2740 -0.1879
   38MOL   H12435718   6.850   3.202   1.415 -1.6028  0.1614 -1.4504
   38MOL   H12535719   6.845   3.420   1.292 -0.5619  0.0914 -2.4370
   38MOL   H12635720   6.998   3.469   1.115 -0.3900 -0.1946 -0.7664
   38MOL   H12735721   7.190   3.304   0.938  0.4293 -0.3619 -0.5692
   38MOL   H12835722   7.320   3.279   1.041  0.6241  1.4797 -0.0080
   38MOL   H12935723   7.174   3.525   0.977 -1.0406  1.4438  1.3433
   38MOL   H13035724   7.447   3.427   1.172  1.2660  1.9434 -2.0886
   38MOL   H13135725   7.329   3.454   1.292  0.3368 -0.0569 -0.1925
   38MOL   H13235726   7.454   3.712   1.276  2.0304  0.5595  1.3173
   38MOL   H13335727   7.582   3.608   1.221  1.7956  0.3785  1.5001
   38MOL   H13435728   7.584   3.467   1.429  0.3968 -0.8695 -0.0715
   38MOL   H13535729   7.610   3.637   1.458 -2.3012  2.0066 -0.4521
   38MOL   H13635730   7.373   3.661   1.502 -0.2712 -0.9761 -2.0266
   38MOL   H13735731   7.345   3.486   1.487 -2.1448  1.4705 -0.0583
   38MOL   H13835732   7.535   3.622   1.680 -0.7225  0.1894  2.9995
   38MOL   H13935733   7.376   3.570   1.743 -1.1169  0.8534 -1.3907
   38MOL   H14035734   7.607   3.396   1.627 -1.1400 -0.0548 -1.3997
   38MOL   H14135735   7.468   3.334   1.700  0.8712 -0.7199  1.7871
   38MOL   H14235736   7.587   3.514   1.898  0.4398 -0.1830 -0.4907
   38MOL   H14335737   7.552   3.336   1.910 -2.4001  0.2349 -0.5737
   38MOL   H14435738   0.004   3.316   1.823  1.7311 -0.1535  1.8452
   38MOL   H14535739   7.778   3.413   1.968  0.4038  0.9009  0.2165
   38MOL   N14635740   0.107   3.486   1.687  0.0652 -0.6184 -0.9556
   38MOL   C14735741   0.165   3.582   1.591  0.7960  0.2801  0.2893
   38MOL   C14835742   0.263   3.536   1.489  0.4694  0.5871 -0.2916
   38MOL   C14935743   0.219   3.520   1.352  0.0954  0.3693  0.1535
   38MOL   C15035744   0.309   3.488   1.252 -0.3730  0.1278 -0.2244
   38MOL   C15135745   0.446   3.470   1.278  0.0477  0.5004  0.3641
   38MOL   C15235746   0.484   3.483   1.411 -0.5596 -0.3822 -0.3482
   38MOL   C15335747   0.398   3.520   1.519  0.2430 -0.2491  0.5610
   38MOL   C15435748   0.444   3.536   1.664 -0.0460  0.1894 -0.6282
   38MOL   N15535749   0.589   3.524   1.672 -0.2124 -0.3157 -0.2492
   38MOL   C15635750   0.662   3.630   1.660 -0.0007 -0.4059  0.6837
   38MOL   O15735751   0.613   3.738   1.628  0.3587  0.4785 -0.2547
   38MOL   C15835752   0.816   3.612   1.643  0.2449 -0.1810  0.6785
   38MOL   C15935753   0.900   3.727   1.706 -0.8964  0.0080 -0.3226
   38MOL   C16035754   1.052   3.711   1.667 -0.6020 -0.3246  0.3814
   38MOL   C16135755   1.134   3.817   1.731 -0.2320  0.1983 -0.9553
   38MOL   C16235756   1.283   3.811   1.694  0.3468  0.5210  0.0264
   38MOL   C16335757   1.366   3.928   1.740  0.1875  0.3831 -0.1219
   38MOL   C16435758   1.517   3.913   1.719  0.6147  0.3622  0.0939
   38MOL   C16535759   1.553   3.928   1.571  0.5057  0.1616  0.7900
   38MOL   C16635760   1.702   3.908   1.546 -0.5314  0.3300 -0.2099
   38MOL   O16735761   1.774   3.989   1.590 -0.6093 -0.5894 -0.1683
   38MOL   H16835762   0.142   3.391   1.677 -1.7786 -1.4384  0.0622
   38MOL   H16935763   0.204   3.660   1.656 -1.4562  0.2794  1.7183
   38MOL   H17035764   0.082   3.630   1.540  0.1122  0.0933  1.2175
   38MOL   H17135765   0.115   3.534   1.325 -0.2958  0.4693  1.6485
   38MOL   H17235766   0.274   3.465   1.153 -1.8851  0.4333  0.2272
   38MOL   H17335767   0.513   3.440   1.199 -2.0947 -0.9392 -0.9523
   38MOL   H17435768   0.586   3.473   1.443 -0.8889 -1.3995  0.4019
   38MOL   H17535769   0.402   3.446   1.709 -1.3150  1.0068 -0.1317
   38MOL   H17635770   0.396   3.623   1.708  0.1147 -0.1613  0.2437
   38MOL   H17735771   0.630   3.432   1.678 -1.1818 -0.9767 -3.1948
   38MOL   H17835772   0.841   3.585   1.540  1.8440  0.4792  0.8912
   38MOL   H17935773   0.850   3.523   1.697  0.3672  0.1890  1.2093
   38MOL   H18035774   0.878   3.733   1.813  0.0603  0.1912 -0.1265
   38MOL   H18135775   0.865   3.822   1.663 -1.6097 -0.2110 -0.2343
   38MOL   H18235776   1.078   3.614   1.708  1.1646  1.0474  2.6332
   38MOL   H18335777   1.061   3.705   1.558 -0.8203 -1.0567  0.4014
   38MOL   H18435778   1.095   3.909   1.688  0.8995 -0.6275 -3.8910
   38MOL   H18535779   1.112   3.835   1.836 -1.1260 -0.1263 -1.0821
   38MOL   H18635780   1.337   3.724   1.730 -0.7476 -0.3683 -0.4504
   38MOL   H18735781   1.298   3.807   1.586  1.3549  1.7003  0.1072
   38MOL   H18835782   1.342   3.962   1.841  1.8895 -1.3448  0.8993
   38MOL   H18935783   1.338   4.014   1.679  1.4640  0.8076 -0.1398
   38MOL   H19035784   1.572   3.979   1.786 -0.2784  0.8892  0.3119
   38MOL   H19135785   1.563   3.820   1.755  1.7512  1.7549  2.3667
   38MOL   H19235786   1.521   4.026   1.536 -1.1088 -0.4889  0.3810
   38MOL   H19335787   1.490   3.862   1.512  1.0275  0.6868 -0.3664
   38MOL   N19435788   1.737   3.805   1.470  0.0777  0.1524  0.0280
   38MOL   C19535789   1.867   3.760   1.445 -0.2128  0.1249  0.5123
   38MOL   C19635790   1.957   3.857   1.365  0.0792  0.0322 -0.7039
   38MOL   C19735791   1.915   3.891   1.233  0.6465  0.2418  0.4105
   38MOL   C19835792   1.994   3.976   1.153  0.5084  0.2581  0.1128
   38MOL   C19935793   2.104   4.040   1.212 -0.5919  0.3371  0.5670
   38MOL   C20035794   2.141   4.004   1.349 -0.4583 -0.5330  0.4328
   38MOL   C20135795   2.071   3.914   1.427 -0.0696 -0.1684  0.2261
   38MOL   C20235796   2.128   3.868   1.566 -0.5092  0.1571 -0.1481
   38MOL   N20335797   2.036   3.902   1.674 -0.4049 -0.4049 -0.0216
   38MOL   C20435798   2.037   3.855   1.796  0.4810  0.2046  0.3447
   38MOL   O20535799   2.104   3.759   1.832  0.0737  0.1418  0.3940
   38MOL   C20635800   1.932   3.921   1.892  0.5939 -0.2993 -0.5554
   38MOL   C20735801   1.843   3.820   1.962 -0.0291  0.3894  0.2835
   38MOL   C20835802   1.730   3.879   2.049 -0.3225  0.4832  0.0753
   38MOL   C20935803   1.620   3.785   2.081 -0.5798 -0.2741  0.2450
   38MOL   C21035804   1.490   3.867   2.120  0.5328  0.2695 -0.5413
   38MOL   C21135805   1.370   3.779   2.138  0.3460  0.3213 -0.2867
   38MOL   C21235806   1.243   3.857   2.194 -0.3835  0.6681 -0.8759
   38MOL   C21335807   1.118   3.767   2.211  0.6485  0.5730  0.6265
   38MOL   C21435808   1.096   3.701   2.349  0.0365 -0.1419  0.0180
   38MOL   O21535809   1.192   3.652   2.414  0.5159  0.1118  0.0210
   38MOL   H21635810   1.667   3.747   1.426 -0.4110  0.9824 -0.3082
   38MOL   H21735811   1.915   3.725   1.536  2.5350  0.2042 -0.8348
   38MOL   H21835812   1.864   3.668   1.385  0.9368 -0.1120  0.8115
   38MOL   H21935813   1.832   3.835   1.192 -1.2653  3.0697  0.2156
   38MOL   H22035814   1.965   3.996   1.051  1.7658 -0.3925 -0.3771
   38MOL   H22135815   2.162   4.111   1.155  0.5762  0.4358  1.8529
   38MOL   H22235816   2.227   4.056   1.388  1.0158 -1.2642 -1.7268
   38MOL   H22335817   2.221   3.920   1.593  0.1307 -1.1669  0.2508
   38MOL   H22435818   2.146   3.761   1.559  0.4973  0.3973 -1.3413
   38MOL   H22535819   1.964   3.967   1.648 -0.1213  0.2857  0.8686
   38MOL   H22635820   1.865   3.987   1.837  2.0154  0.7379 -1.0885
   38MOL   H22735821   1.986   3.978   1.968  0.5729  1.1979 -1.6273
   38MOL   H22835822   1.808   3.764   1.876  0.5553  1.7031 -0.8262
   38MOL   H22935823   1.905   3.751   2.020  0.0182 -0.5132 -0.8206
   38MOL   H23035824   1.770   3.925   2.139  0.6034 -1.2821  0.6004
   38MOL   H23135825   1.694   3.963   1.990  1.9792  0.4331 -1.4779
   38MOL   H23235826   1.605   3.729   1.988  0.0557  2.1326 -1.3433
   38MOL   H23335827   1.655   3.716   2.158  1.1356  0.7552  0.4010
   38MOL   H23435828   1.508   3.928   2.208 -0.1794  1.5911 -1.2857
   38MOL   H23535829   1.468   3.946   2.047 -1.0525 -1.5975 -2.1382
   38MOL   H23635830   1.395   3.690   2.197  0.2268 -1.3137 -2.6312
   38MOL   H23735831   1.332   3.754   2.039  1.3387  1.5129 -0.9787
   38MOL   H23835832   1.220   3.946   2.137  1.1351  1.8937  0.3718
   38MOL   H23935833   1.262   3.887   2.297 -3.4413  0.4812 -0.2338
   38MOL   H24035834   1.034   3.833   2.192 -0.0605 -0.4008  0.3277
   38MOL   H24135835   1.129   3.681   2.144 -0.2551  0.6836  0.3264
   38MOL   N24235836   0.975   3.713   2.398  0.1336  0.5010 -0.0467
   38MOL   C24335837   0.930   3.641   2.518  0.2319  0.6586  0.2529
   38MOL   C24435838   0.812   3.548   2.479  0.6409 -0.2960  0.3536
   38MOL   C24535839   0.832   3.445   2.385  0.5193 -0.5633 -0.3579
   38MOL   C24635840   0.724   3.368   2.331  0.1481  0.3050  0.4102
   38MOL   C24735841   0.595   3.395   2.377  0.1760 -0.0203 -0.0087
   38MOL   C24835842   0.570   3.499   2.468  0.2392  0.2250 -0.5040
   38MOL   C24935843   0.679   3.571   2.522 -0.0997  0.2867 -0.2607
   38MOL   C25035844   0.656   3.682   2.628 -0.1746  0.2009 -0.1255
   38MOL   N25135845   0.535   3.664   2.702  0.8983  0.3990  0.7089
   38MOL   C25235846   0.440   3.758   2.724 -0.1361  0.4662 -0.3508
   38MOL   O25335847   0.464   3.876   2.705 -0.8886 -0.8276  0.0804
   38MOL   C25435848   0.308   3.708   2.771  0.0736  0.4313  0.6342
   38MOL   C25535849   0.253   3.786   2.895 -0.3707  0.1766 -0.2954
   38MOL   C25635850   0.321   3.753   3.025 -0.0409  0.2686  0.5767
   38MOL   C25735851   0.283   3.831   3.147  0.0332 -0.1854 -0.0136
   38MOL   C25835852   0.320   3.756   3.280  0.0113 -0.2004  0.3262
   38MOL   C25935853   0.294   3.843   3.402  0.6549  0.2197  0.0716
   38MOL   C26035854   0.298   3.768   3.541 -0.3755 -0.2301  0.2495
   38MOL   C26135855   0.180   3.677   3.577 -0.2365  0.5010 -0.2174
   38MOL   C26235856   0.177   3.647   3.728  0.6182 -0.5368  0.1017
   38MOL   O26335857   0.273   3.634   3.801  0.5190 -0.7222 -0.1772
   38MOL   H26435858   0.909   3.774   2.352 -0.4160 -1.1664 -1.4997
   38MOL   H26535859   1.008   3.586   2.571 -0.9188  0.4105  1.7390
   38MOL   H26635860   0.902   3.714   2.594 -6.6097 -0.5153 -0.8306
   38MOL   H26735861   0.933   3.428   2.353  0.8190  3.1772 -1.6842
   38MOL   H26835862   0.738   3.287   2.260  3.4577  0.1312  1.1558
   38MOL   H26935863   0.511   3.353   2.324 -2.7575  1.9666  2.8363
   38MOL   H27035864   0.468   3.524   2.493 -0.0338 -0.4372 -0.9498
   38MOL   H27135865   0.667   3.777   2.576 -0.8842 -0.0003 -0.6496
   38MOL   H27235866   0.735   3.658   2.699  0.2579 -3.3444 -1.6902
   38MOL   H27335867   0.532   3.570   2.740  0.4127 -0.7439 -1.9888
   38MOL   H27435868   0.318   3.601   2.792 -0.8346  0.0208 -0.9837
   38MOL   H27535869   0.241   3.716   2.686 -0.6725  0.3615  1.2102
   38MOL   H27635870   0.146   3.763   2.896 -0.1110 -1.1419 -1.3067
   38MOL   H27735871   0.250   3.892   2.870  1.9383  0.2331 -0.4383
   38MOL   H27835872   0.422   3.787   3.002 -0.4466  1.5167  0.5718
   38MOL   H27935873   0.332   3.645   3.035  2.4782  0.3717 -0.7004
   38MOL   H28035874   0.314   3.935   3.141 -1.7822  0.5259  2.0839
   38MOL   H28135875   0.174   3.830   3.152  0.0460  0.3556  0.4564
   38MOL   H28235876   0.261   3.665   3.280 -1.0785  0.4594  2.9026
   38MOL   H28335877   0.421   3.716   3.292  0.3350  0.7265  0.7683
   38MOL   H28435878   0.205   3.905   3.390  1.8249  1.8743 -0.2641
   38MOL   H28535879   0.372   3.919   3.392  2.2356 -1.3976 -0.1350
   38MOL   H28635880   0.387   3.706   3.544  0.5505  1.0956  0.6474
   38MOL   H28735881   0.297   3.847   3.616 -2.1967 -2.2677  2.4387
   38MOL   H28835882   0.085   3.710   3.535 -0.3115 -1.3867 -1.5841
   38MOL   H28935883   0.193   3.582   3.526  0.4989  0.8798 -0.7370
   38MOL   N29035884   0.059   3.633   3.779  0.7663 -0.3578  0.3851
   38MOL   C29135885   0.037   3.577   3.915  0.5125 -0.2366 -0.3626
   38MOL   C29235886   7.676   3.559   3.926  0.5963  0.1525  0.3832
   38MOL   C29335887   7.613   3.446   3.870 -0.7126 -0.1155  0.1124
   38MOL   C29435888   7.479   3.422   3.866  0.2040  0.6886 -0.5152
   38MOL   C29535889   7.391   3.521   3.922 -0.0169  0.5630 -0.3884
   38MOL   C29635890   7.449   3.632   3.981  0.1045 -0.3465  0.5056
   38MOL   C29735891   7.589   3.664   3.975 -0.2158  0.3921  0.8710
   38MOL   C29835892   7.638   3.802   4.011  0.7783  0.0598  0.4932
   38MOL   N29935893   7.682   3.877   3.896  0.1547  0.3141 -0.3115
   38MOL   C30035894   7.754   3.988   3.907 -0.8301 -0.1553  0.5654
   38MOL   O30135895   0.005   4.026   4.016  0.0666  0.2105  0.1439
   38MOL   C30235896   7.772   4.073   3.786 -0.9665 -0.0495  0.6932
   38MOL   C30335897   0.121   4.064   3.712  0.0370  0.5274  0.0497
   38MOL   C30435898   0.228   4.147   3.782  0.2260 -0.9681  0.4814
   38MOL   C30535899   0.243   4.283   3.701  0.0702  0.3385  0.4800
   38MOL   C30635900   0.376   4.359   3.734 -0.3024  0.1555  0.2805
   38MOL   C30735901   0.416   4.468   3.631 -0.1303 -0.8768 -0.2117
   38MOL   C30835902   0.315   4.583   3.616 -0.9286  0.1540 -0.0111
   38MOL   C30935903   0.374   4.682   3.517 -0.2349 -0.2734  0.3393
   38MOL   C31035904   0.289   4.808   3.507  0.2778 -0.5327  0.1741
   38MOL   O31135905   0.284   4.884   3.608  0.2873  0.3241 -0.0576
   38MOL   H31235906   7.771   3.634   3.716  1.4844  0.9664 -0.5032
   38MOL   H31335907   0.090   3.488   3.950  0.2539  0.2085  1.2028
   38MOL   H31435908   0.077   3.651   3.984 -2.8623  0.0229  1.3850
   38MOL   H31535909   7.680   3.385   3.810 -0.5049 -0.5939  0.8243
   38MOL   H31635910   7.429   3.345   3.809 -0.2184 -0.7374  1.6938
   38MOL   H31735911   7.283   3.512   3.926  0.0432 -0.3705 -0.8257
   38MOL   H31835912   7.380   3.708   4.015  0.3707 -0.5609  1.5605
   38MOL   H31935913   7.722   3.780   4.077 -0.2330  0.1599  1.8400
   38MOL   H32035914   7.564   3.854   4.072  1.5605  1.5582  0.1765
   38MOL   H32135915   7.647   3.847   3.806 -0.0833  0.3825 -0.2394
   38MOL   H32235916   7.701   4.044   3.709  0.2296 -1.3013  0.0423
   38MOL   H32335917   7.741   4.171   3.821 -0.7403 -0.1151  1.0898
   38MOL   H32435918   0.115   4.089   3.607 -1.0591  0.5783  0.1117
   38MOL   H32535919   0.161   3.963   3.728  0.6041  0.6648 -0.4844
   38MOL   H32635920   0.329   4.106   3.775  2.6571  4.6640 -0.5151
   38MOL   H32735921   0.198   4.162   3.886 -2.0160  3.0532 -0.6360
   38MOL   H32835922   0.239   4.264   3.594  0.5847  0.0977  0.5053
   38MOL   H32935923   0.155   4.344   3.725 -1.0585 -1.0055 -0.1660
   38MOL   H33035924   0.386   4.390   3.838 -0.4362 -0.6931  0.5513
   38MOL   H33135925   0.453   4.283   3.728 -1.7761 -1.2306 -1.8064
   38MOL   H33235926   0.448   4.435   3.533 -0.1363  0.4044 -0.6613
   38MOL   H33335927   0.504   4.510   3.680  0.2701 -0.1513 -1.5515
   38MOL   H33435928   0.217   4.553   3.581 -2.7528  0.9620  4.1212
   38MOL   H33535929   0.303   4.629   3.714 -0.8370 -0.2203  0.1766
   38MOL   H33635930   0.471   4.703   3.561 -0.8844  1.2958  1.0387
   38MOL   H33735931   0.389   4.629   3.423 -0.4749 -0.3322  0.3332
   38MOL   N33835932   0.219   4.827   3.394 -0.2531 -0.5706 -0.0427
   38MOL   C33935933   0.132   4.946   3.380 -0.5175  0.8170 -0.4730
   38MOL   C34035934   0.114   4.991   3.239 -0.6653  0.1359 -0.0767
   38MOL   C34135935   7.782   4.947   3.183  0.0842 -1.3059  0.4171
   38MOL   C34235936   7.750   4.982   3.048  0.2947  0.2513 -0.4606
   38MOL   C34335937   0.057   5.053   2.970  0.2005 -0.2849  0.5448
   38MOL   C34435938   0.177   5.092   3.033  0.2726 -0.2692  0.2270
   38MOL   C34535939   0.210   5.070   3.167  0.1757  0.6965 -0.5335
   38MOL   C34635940   0.340   5.115   3.224  0.6105 -0.9745  0.2115
   38MOL   N34735941   0.424   4.995   3.243  0.0470  0.1412 -0.1611
   38MOL   C34835942   0.522   4.951   3.164 -0.1984 -0.4748  0.5491
   38MOL   O34935943   0.574   4.846   3.187 -0.3191 -0.4819  0.6865
   38MOL   C35035944   0.562   5.029   3.040 -0.7422  0.0748  0.5372
   38MOL   C35135945   0.648   4.950   2.943 -0.3451 -0.3654  0.2075
   38MOL   C35235946   0.715   5.030   2.838 -0.4991 -0.4797  1.0771
   38MOL   C35335947   0.778   4.941   2.718  0.5837  0.0677  0.4679
   38MOL   C35435948   0.851   5.032   2.621  0.0133 -0.1810  0.4474
   38MOL   C35535949   0.911   4.945   2.509  0.0561  0.4099 -0.3365
   38MOL   C35635950   0.817   4.945   2.390  0.1922 -0.0636 -0.0237
   38MOL   C35735951   0.844   4.827   2.293 -0.1136 -0.5571  0.2271
   38MOL   C35835952   0.953   4.848   2.188 -0.4356 -0.0096 -0.0431
   38MOL   O35935953   0.954   4.947   2.113  0.4412 -0.2721  0.2037
   38MOL   H36035954   0.190   4.752   3.333 -2.2759 -0.7155  1.0345
   38MOL   H36135955   0.038   4.938   3.435 -0.6114  3.4632 -0.2037
   38MOL   H36235956   0.180   5.030   3.429 -1.6541  1.3052 -0.1626
   38MOL   H36335957   7.702   4.907   3.243 -0.9674  0.8451  0.4949
   38MOL   H36435958   7.657   4.952   3.001  0.4916  0.8212 -1.2202
   38MOL   H36535959   0.031   5.072   2.867  1.2529  0.3934  0.3996
   38MOL   H36635960   0.249   5.146   2.973  0.4189 -1.2690 -0.5195
   38MOL   H36735961   0.320   5.159   3.322  4.1299  0.7143  0.2496
   38MOL   H36835962   0.398   5.186   3.165  1.0972 -0.4624  1.3060
   38MOL   H36935963   0.393   4.929   3.312 -1.7941  0.7757 -0.3475
   38MOL   H37035964   0.606   5.124   3.069 -0.9187  0.2327  0.2831
   38MOL   H37135965   0.465   5.047   2.994 -0.6359  1.4271  0.8108
   38MOL   H37235966   0.583   4.875   2.898 -2.1361  0.2404  1.7033
   38MOL   H37335967   0.726   4.897   2.996  1.5534 -0.2284 -2.3617
   38MOL   H37435968   0.647   5.107   2.803  1.2658 -0.0011 -1.4498
   38MOL   H37535969   0.796   5.090   2.880  0.0443  0.1770 -0.8570
   38MOL   H37635970   0.697   4.888   2.667  1.4088  0.5352 -1.3938
   38MOL   H37735971   0.850   4.873   2.763 -1.9465 -0.7765  3.3975
   38MOL   H37835972   0.794   5.116   2.581  2.0340  1.3371  0.6738
   38MOL   H37935973   0.937   5.078   2.670 -1.2580  1.2722  1.3474
   38MOL   H38035974   0.932   4.845   2.546 -0.3485  0.0947 -0.9570
   38MOL   H38135975   1.006   4.981   2.469  0.4647 -0.8868 -0.5741
   38MOL   H38235976   0.718   4.922   2.429  0.6755  1.0622  1.9720
   38MOL   H38335977   0.824   5.043   2.343  0.2544  0.1862  0.4935
   38MOL   H38435978   0.757   4.821   2.228 -0.2078 -1.1141  0.4002
   38MOL   H38535979   0.838   4.726   2.334  0.4683 -0.6382  0.1176
   38MOL   N38635980   1.053   4.754   2.188 -0.2747 -0.4109  0.8771
   38MOL   C38735981   1.154   4.756   2.080  0.2909  0.1947 -0.3080
   38MOL   C38835982   1.295   4.774   2.126  0.3628  0.0224  0.1446
   38MOL   C38935983   1.331   4.836   2.249 -0.2508  0.0546  0.0844
   38MOL   C39035984   1.458   4.861   2.295 -0.2628 -0.4422  0.3735
   38MOL   C39135985   1.566   4.824   2.209  0.1621  0.1549  0.4668
   38MOL   C39235986   1.540   4.748   2.091  0.1929 -0.3339 -0.0357
   38MOL   C39335987   1.407   4.722   2.050  0.2436  0.3366  0.2839
   38MOL   C39435988   1.390   4.650   1.917 -0.0515 -0.4874  0.1472
   38MOL   N39535989   1.391   4.741   1.804 -0.0599  0.1837 -0.1632
   38MOL   C39635990   1.288   4.755   1.723 -0.2915  0.5925  0.5816
   38MOL   O39735991   1.182   4.691   1.739  0.0036  0.0675 -0.2141
   38MOL   C39835992   1.312   4.849   1.606 -0.0719  0.1072  0.9536
   38MOL   C39935993   1.306   5.001   1.661  0.7006  0.1880  0.4191
   38MOL   C40035994   1.166   5.045   1.699 -0.5849 -0.1033 -0.1483
   38MOL   C40135995   1.149   5.195   1.740 -0.3086 -0.0791  0.1461
   38MOL   C40235996   1.008   5.252   1.732  0.1791 -0.0573  0.2856
   38MOL   C40335997   1.013   5.405   1.739  0.6757 -0.0632 -0.5117
   38MOL   C40435998   0.873   5.470   1.716 -0.3091  0.1736 -0.4166
   38MOL   C40535999   0.901   5.626   1.728  0.3595  0.4201  0.0592
   38MOL   C40636000   0.875   5.678   1.872  0.6845  0.1937 -0.4272
   38MOL   O40736001   0.836   5.599   1.952  0.2198  0.0146 -0.1444
   38MOL   H40836002   1.064   4.685   2.261  3.7633  0.6214  1.3674
   38MOL   H40936003   1.147   4.664   2.023  1.2643 -0.5267  0.7174
   38MOL   H41036004   1.139   4.828   1.999  0.0743 -0.0362 -0.4716
   38MOL   H41136005   1.249   4.859   2.316  0.8455 -0.3196  1.5746
   38MOL   H41236006   1.482   4.895   2.394 -0.2147 -0.2903  0.3095
   38MOL   H41336007   1.663   4.835   2.254  0.1459 -1.5906  0.9923
   38MOL   H41436008   1.622   4.712   2.031  0.0082  1.1680 -1.2176
   38MOL   H41536009   1.314   4.572   1.910 -0.3444 -0.0688 -1.5989
   38MOL   H41636010   1.485   4.598   1.906 -0.2534 -0.4722 -1.7928
   38MOL   H41736011   1.478   4.791   1.794  1.5558 -2.6909 -1.0352
   38MOL   H41836012   1.401   4.842   1.543 -2.5901  1.8169 -2.9880
   38MOL   H41936013   1.236   4.823   1.531  0.2643 -1.7883  1.2399
   38MOL   H42036014   1.335   5.064   1.576  2.7814  0.1376  1.0686
   38MOL   H42136015   1.378   5.020   1.740  1.2160  0.5878 -0.1396
   38MOL   H42236016   1.124   4.988   1.782 -1.7218 -0.6330 -1.0752
   38MOL   H42336017   1.099   5.015   1.618  0.5915 -1.0294 -0.7931
   38MOL   H42436018   1.200   5.215   1.834 -0.7901  0.0961  0.3691
   38MOL   H42536019   1.205   5.250   1.664 -0.3597 -2.7469 -1.8747
   38MOL   H42636020   0.964   5.213   1.640 -0.4017 -0.8541  0.8917
   38MOL   H42736021   0.943   5.217   1.812 -0.4430  1.5224  0.4983
   38MOL   H42836022   1.077   5.450   1.664  0.5583  1.5660  0.3568
   38MOL   H42936023   1.050   5.434   1.837  2.7904 -0.4872 -1.1520
   38MOL   H43036024   0.796   5.425   1.779  0.6891 -1.4236 -0.3063
   38MOL   H43136025   0.835   5.447   1.617  0.8573 -0.5035 -0.7163
   38MOL   H43236026   0.828   5.670   1.660  1.0949 -0.3709 -1.2793
   38MOL   H43336027   0.999   5.655   1.690  0.5330  0.0427  0.2188
   38MOL   N43436028   0.889   5.809   1.883 -0.4642 -0.2712 -0.0906
   38MOL   C43536029   0.853   5.890   1.994 -0.3620 -0.0465 -0.2369
   38MOL   C43636030   0.786   6.021   1.953 -0.5305 -0.0533 -0.3018
   38MOL   C43736031   0.827   6.131   2.032  0.0607 -0.0152 -0.2096
   38MOL   C43836032   0.748   6.243   2.045  0.3574 -0.0869  0.8395
   38MOL   C43936033   0.622   6.252   1.979 -0.0978 -0.1396  0.8707
   38MOL   C44036034   0.596   6.148   1.878  0.1234  0.5786 -0.0068
   38MOL   C44136035   0.677   6.034   1.867  0.3830 -0.3962 -0.6840
   38MOL   C44236036   0.631   5.917   1.782  0.3656 -0.1855  0.0932
   38MOL   N44336037   0.544   5.826   1.860  0.0510 -0.1282  0.0079
   38MOL   C44436038   0.433   5.770   1.808 -0.4501 -0.7625  0.4841
   38MOL   O44536039   0.409   5.773   1.687  0.2120 -0.2218  0.2630
   38MOL   C44636040   0.339   5.708   1.910  0.1105  0.1399 -0.0556
   38MOL   C44736041   0.358   5.551   1.896 -0.6797  0.2839 -0.0627
   38MOL   C44836042   0.497   5.490   1.937  0.5740  0.6677 -0.1898
   38MOL   C44936043   0.500   5.343   1.988 -0.1214  0.1151  0.8004
   38MOL   C45036044   0.638   5.290   2.040  0.1697 -0.1547  0.4283
   38MOL   C45136045   0.683   5.348   2.171  0.0324  0.4700 -0.7466
   38MOL   C45236046   0.814   5.284   2.217  0.0603 -0.7611 -0.1880
   38MOL   C45336047   0.933   5.358   2.158  0.7514 -0.2087 -0.2996
   38MOL   C45436048   1.060   5.297   2.209 -0.7051  0.2426  0.4270
   38MOL   O45536049   1.091   5.309   2.326 -0.1729 -0.2387 -0.4301
   38MOL   H45636050   0.923   5.855   1.800 -1.2017 -1.5454 -1.1350
   38MOL   H45736051   0.950   5.909   2.040  0.1631  0.0431 -1.3561
   38MOL   H45836052   0.792   5.839   2.068 -2.4091 -0.1525 -1.9459
   38MOL   H45936053   0.911   6.122   2.100 -0.3112  0.5808  0.3293
   38MOL   H46036054   0.773   6.325   2.111 -0.6264  1.0417 -0.1546
   38MOL   H46136055   0.552   6.330   2.005  1.3930  0.7834  2.1600
   38MOL   H46236056   0.507   6.164   1.819  1.3962 -0.3988 -2.2316
   38MOL   H46336057   0.703   5.861   1.723  0.6572  0.0100  0.2650
   38MOL   H46436058   0.577   5.972   1.705 -0.1127 -0.5961  0.1301
   38MOL   H46536059   0.564   5.806   1.957 -0.2781  0.5415  0.2185
   38MOL   H46636060   0.235   5.732   1.888 -0.3829  1.1498  3.1087
   38MOL   H46736061   0.347   5.715   2.019  1.6058  0.1573 -0.1568
   38MOL   H46836062   0.327   5.519   1.797 -0.8198 -0.0180  0.0803
   38MOL   H46936063   0.285   5.520   1.971 -3.6978  1.9334 -2.2384
   38MOL   H47036064   0.563   5.495   1.850 -1.8256  0.8805 -2.0614
   38MOL   H47136065   0.551   5.552   2.009  0.7863 -0.4498  0.6259
   38MOL   H47236066   0.440   5.342   2.080  1.1938 -0.7536  1.6538
   38MOL   H47336067   0.455   5.276   1.914  0.5467  1.2444 -0.6535
   38MOL   H47436068   0.628   5.182   2.052 -0.0700 -0.2678 -0.6566
   38MOL   H47536069   0.709   5.316   1.961 -1.7463 -0.8837 -1.6221
   38MOL   H47636070   0.624   5.339   2.262  1.6202  0.1895  0.2886
   38MOL   H47736071   0.699   5.453   2.149 -0.5006 -0.0518 -3.9343
   38MOL   H47836072   0.823   5.289   2.325  2.2622  0.5392 -0.4119
   38MOL   H47936073   0.812   5.178   2.191  0.6723 -0.3200 -2.2070
   38MOL   H48036074   0.937   5.374   2.050 -0.6322 -1.7391 -0.5954
   38MOL   H48136075   0.931   5.462   2.193  0.6067  0.5821 -2.5674
   38MOL   N48236076   1.135   5.227   2.124  0.1391  0.0495  0.1154
   38MOL   C48336077   1.236   5.122   2.157  0.7281  0.5693 -0.0049
   38MOL   C48436078   1.385   5.161   2.135 -0.0413  0.0135 -0.2713
   38MOL   C48536079   1.451   5.098   2.021 -0.1537  0.4573 -0.6504
   38MOL   C48636080   1.586   5.130   1.990 -0.3337 -0.7772 -0.0427
   38MOL   C48736081   1.655   5.218   2.067 -0.0891  0.4289  0.2768
   38MOL   C48836082   1.593   5.280   2.179  0.9879  0.0462 -0.5795
   38MOL   C48936083   1.452   5.256   2.214  0.4193 -0.0608  0.9004
   38MOL   C49036084   1.385   5.324   2.334 -0.5572 -0.2725 -0.0710
   38MOL   N49136085   1.488   5.370   2.428  0.5076  0.0732 -0.7190
   38MOL   C49236086   1.482   5.466   2.519  0.0872  0.7385 -0.2804
   38MOL   O49336087   1.581   5.486   2.591 -0.0881 -0.2659  0.0794
   38MOL   C49436088   1.354   5.546   2.535  0.1533  0.8037  0.4377
   38MOL   C49536089   1.317   5.599   2.685  0.0229  0.3543 -0.2194
   38MOL   C49636090   1.289   5.491   2.776 -0.7404  0.0683  0.0590
   38MOL   C49736091   1.255   5.553   2.911  0.0015  0.0210  0.1655
   38MOL   C49836092   1.196   5.454   3.011 -0.6322  0.7225 -0.2646
   38MOL   C49936093   1.058   5.405   2.990 -0.1760  0.3613  0.2428
   38MOL   C50036094   0.940   5.507   3.026  0.4369  0.6534  0.1815
   38MOL   C50136095   0.799   5.446   3.009  0.1529 -0.4173 -0.1470
   38MOL   C50236096   0.687   5.521   3.088 -0.1372 -0.1425  0.7045
   38MOL   O50336097   0.709   5.559   3.203  0.4098 -0.3399 -0.1101
   38MOL   H50436098   1.103   5.224   2.028 -0.0995  1.4771  0.1425
   38MOL   H50536099   1.216   5.099   2.261 -0.4657  2.0882  0.1139
   38MOL   H50636100   1.207   5.032   2.102 -1.7886  1.1477  0.3059
   38MOL   H50736101   1.398   5.022   1.966 -1.8981  0.4742  0.9450
   38MOL   H50836102   1.628   5.086   1.901  0.7761 -1.4666  0.8145
   38MOL   H50936103   1.759   5.236   2.045  0.0642 -3.5359 -2.6800
   38MOL   H51036104   1.644   5.356   2.238  0.0693  0.0335  0.2478
   38MOL   H51136105   1.331   5.255   2.398  1.5416 -1.0009  0.9447
   38MOL   H51236106   1.310   5.395   2.299 -1.1131 -0.5811  0.4830
   38MOL   H51336107   1.572   5.314   2.426  1.7573  1.8678  0.5199
   38MOL   H51436108   1.270   5.481   2.512  0.1861  1.0338 -0.3252
   38MOL   H51536109   1.356   5.632   2.468  1.5450 -0.7093 -1.4991
   38MOL   H51636110   1.228   5.661   2.673  2.1543  3.7122  0.3260
   38MOL   H51736111   1.389   5.673   2.721 -0.1788  1.5179 -2.1146
   38MOL   H51836112   1.206   5.431   2.739 -1.4799  0.9185  0.3056
   38MOL   H51936113   1.367   5.417   2.794 -0.5614  0.7563  2.2522
   38MOL   H52036114   1.347   5.593   2.955  0.8002 -1.0775 -0.4773
   38MOL   H52136115   1.182   5.632   2.894  1.5757  1.0159 -2.3184
   38MOL   H52236116   1.266   5.372   3.028  0.2780  1.2901 -1.1948
   38MOL   H52336117   1.200   5.486   3.115 -0.6492  3.2307 -1.0180
   38MOL   H52436118   1.042   5.312   3.043  1.6315  0.1274  0.4051
   38MOL   H52536119   1.053   5.379   2.884 -2.7443  1.6097  0.0162
   38MOL   H52636120   0.949   5.532   3.132 -0.6190 -1.0219  0.6926
   38MOL   H52736121   0.947   5.602   2.974 -0.3988 -0.3129 -1.7222
   38MOL   H52836122   0.805   5.348   3.056  0.4367 -0.7778 -0.9385
   38MOL   H52936123   0.787   5.432   2.902  2.1243 -3.7555 -0.0278
   38MOL   N53036124   0.564   5.518   3.033  1.2237  0.6894  0.6203
   38MOL   C53136125   0.449   5.594   3.084  0.3530  0.3209 -0.7584
   38MOL   C53236126   0.347   5.641   2.985  0.0068  0.5719  0.2247
   38MOL   C53336127   0.332   5.778   2.967  0.2674 -0.4281 -0.3180
   38MOL   C53436128   0.244   5.837   2.874  0.6614  0.6647  0.2150
   38MOL   C53536129   0.178   5.757   2.776  0.2881 -0.0520  0.2997
   38MOL   C53636130   0.177   5.619   2.801  0.8424 -0.4074 -0.3093
   38MOL   C53736131   0.257   5.558   2.903 -0.2556  0.1426 -0.6729
   38MOL   C53836132   0.252   5.399   2.911  0.5399 -0.1983 -0.2744
   38MOL   N53936133   0.305   5.348   2.787  0.3158 -0.0964 -0.4521
   38MOL   C54036134   0.428   5.314   2.763  0.4929  0.1651 -1.2310
   38MOL   O54136135   0.506   5.303   2.852 -0.3308 -0.4410 -0.6963
   38MOL   C54236136   0.472   5.288   2.622  0.6050  0.4542 -0.2248
   38MOL   C54336137   0.610   5.352   2.584 -0.1942 -0.0588 -0.1165
   38MOL   C54436138   0.616   5.507   2.583  0.0403 -1.1346 -0.2162
   38MOL   C54536139   0.748   5.586   2.572 -0.9646  0.0376 -0.0271
   38MOL   C54636140   0.815   5.587   2.443 -0.2947 -0.1363 -0.2519
   38MOL   C54736141   0.963   5.626   2.450  0.2025 -0.0872 -0.1702
   38MOL   C54836142   0.989   5.769   2.507 -0.6228  0.7172  0.1212
   38MOL   C54936143   0.991   5.882   2.415 -0.7474 -0.8564 -0.6110
   38MOL   C55036144   1.017   6.023   2.478 -0.2129 -0.2101 -0.1129
   38MOL   O55136145   0.978   6.051   2.589 -0.1659 -0.3721  0.0214
   38MOL   H55236146   0.552   5.457   2.954  1.7321 -0.6997  1.5879
   38MOL   H55336147   0.488   5.674   3.148 -0.1093 -1.3783  1.7395
   38MOL   H55436148   0.396   5.520   3.143 -1.5191 -0.1781 -3.0309
   38MOL   H55536149   0.394   5.840   3.030 -0.3404 -0.3298  0.1879
   38MOL   H55636150   0.245   5.945   2.871 -2.7698  0.7315 -0.0913
   38MOL   H55736151   0.105   5.801   2.710  0.3292 -3.1877 -1.9640
   38MOL   H55836152   0.114   5.557   2.739  0.4270  0.4156 -0.7300
   38MOL   H55936153   0.144   5.384   2.914  0.5358 -0.1013  0.0845
   38MOL   H56036154   0.296   5.367   3.005 -0.7801  1.1306  0.8192
   38MOL   H56136155   0.242   5.347   2.709  1.1999 -4.0392 -1.2123
   38MOL   H56236156   0.401   5.317   2.544 -2.4578 -0.1832  2.2205
   38MOL   H56336157   0.478   5.180   2.612 -1.2943  0.3646 -0.6275
   38MOL   H56436158   0.640   5.319   2.484  1.4020 -1.0977  0.6737
   38MOL   H56536159   0.687   5.310   2.649 -0.9462 -0.1556  0.7153
   38MOL   H56636160   0.541   5.549   2.516  1.5360  0.3130 -1.0049
   38MOL   H56736161   0.587   5.533   2.685 -0.1704 -2.6348  0.1178
   38MOL   H56836162   0.742   5.689   2.606  0.2539 -0.3529  1.4843
   38MOL   H56936163   0.811   5.550   2.654 -2.2042 -0.0538  0.9010
   38MOL   H57036164   0.822   5.485   2.408 -1.9880  0.0566 -1.1775
   38MOL   H57136165   0.753   5.644   2.374 -0.1690  0.8841  0.4585
   38MOL   H57236166   1.007   5.637   2.351 -0.6124  2.1234 -0.3088
   38MOL   H57336167   1.009   5.542   2.503 -1.1721 -0.1646  0.9378
   38MOL   H57436168   0.924   5.793   2.591 -0.0946  0.1383  0.6958
   38MOL   H57536169   1.086   5.757   2.554  0.3407 -0.6996 -2.1338
   38MOL   H57636170   0.901   5.875   2.353  0.3298 -1.3332 -2.1456
   38MOL   H57736171   1.070   5.874   2.341 -1.2895 -1.6783 -1.1094
   38MOL   N57836172   1.096   6.106   2.405 -0.7452 -0.2155  0.1744
   38MOL   C57936173   1.129   6.244   2.445 -0.2379  0.3479 -0.0954
   38MOL   C58036174   1.072   6.341   2.345  0.5538  0.2743  0.0373
   38MOL   C58136175   1.115   6.344   2.210 -0.4843  0.2440 -0.1125
   38MOL   C58236176   1.065   6.435   2.118 -0.2584 -0.8750  0.1509
   38MOL   C58336177   0.978   6.537   2.165  0.0224  0.3983  0.4797
   38MOL   C58436178   0.916   6.526   2.291  0.1476  0.4532  0.0740
   38MOL   C58536179   0.962   6.422   2.381  0.3993 -0.1630 -0.5072
   38MOL   C58636180   0.894   6.425   2.516 -0.6078 -0.3599  0.3355
   38MOL   N58736181   0.829   6.297   2.551 -0.5175 -1.0637 -0.0557
   38MOL   C58836182   0.695   6.281   2.536  0.1907 -0.6428  0.0357
   38MOL   O58936183   0.616   6.369   2.495 -0.1858  0.4159  0.0707
   38MOL   C59036184   0.639   6.148   2.595  0.7787  0.2311  0.3428
   38MOL   C59136185   0.620   6.055   2.470 -0.0116 -0.3471 -0.6785
   38MOL   C59236186   0.529   5.938   2.516 -0.1216 -0.5640  0.9374
   38MOL   C59336187   0.480   5.844   2.402 -0.1625  0.7751  0.2462
   38MOL   C59436188   0.368   5.751   2.444  0.7736 -0.2871 -0.7411
   38MOL   C59536189   0.334   5.644   2.335 -0.3413  0.8794 -0.6498
   38MOL   C59636190   0.223   5.543   2.372  0.4596 -0.1875  0.1782
   38MOL   C59736191   0.076   5.609   2.382 -0.1265  0.5829 -0.1619
   38MOL   C59836192   7.773   5.501   2.426  0.8018  0.2119 -0.4313
   38MOL   O59936193   0.018   5.422   2.512 -0.2042  0.5282 -0.5478
   38MOL   H60036194   1.110   6.065   2.314 -0.0105 -2.3377  1.1921
   38MOL   H60136195   1.237   6.252   2.448 -0.2334  0.2186  0.0801
   38MOL   H60236196   1.108   6.277   2.547 -0.4383 -2.5117  0.8341
   38MOL   H60336197   1.185   6.266   2.182  0.1920  1.0561 -0.6951
   38MOL   H60436198   1.096   6.432   2.015 -2.0935 -0.8247 -0.4273
   38MOL   H60536199   0.969   6.616   2.092  0.2127  1.2401  1.3551
   38MOL   H60636200   0.836   6.597   2.306 -2.3640 -2.1515 -0.6171
   38MOL   H60736201   0.826   6.509   2.512 -3.1920 -2.5367 -4.6578
   38MOL   H60836202   0.972   6.455   2.586  1.0696 -1.5739 -0.9671
   38MOL   H60936203   0.894   6.227   2.582  1.3756  1.6212  2.2416
   38MOL   H61036204   0.543   6.164   2.644  0.4291 -0.4752 -0.1083
   38MOL   H61136205   0.706   6.097   2.664  0.3219 -2.8156 -1.3936
   38MOL   H61236206   0.714   6.019   2.427 -0.2527 -0.2416 -1.3067
   38MOL   H61336207   0.565   6.101   2.388 -0.0092 -0.3573 -0.6860
   38MOL   H61436208   0.578   5.879   2.593 -2.4014 -2.3516  1.0559
   38MOL   H61536209   0.435   5.982   2.549 -1.0308 -0.7733 -1.3172
   38MOL   H61636210   0.443   5.900   2.316  2.1723  1.0054 -0.6367
   38MOL   H61736211   0.566   5.788   2.366 -1.4559 -1.7489  1.0040
   38MOL   H61836212   0.392   5.695   2.535  2.4016 -0.1641 -1.0819
   38MOL   H61936213   0.280   5.813   2.460  1.5310  0.9773 -1.3841
   38MOL   H62036214   0.421   5.582   2.311 -0.6035  0.1045  0.3464
   38MOL   H62136215   0.313   5.683   2.235  0.2592  1.1340 -0.6772
   38MOL   H62236216   0.226   5.466   2.296  0.0127 -0.2374  0.2099
   38MOL   H62336217   0.264   5.504   2.465 -1.2992 -1.3148  0.4943
   38MOL   H62436218   0.060   5.692   2.451  1.1037  1.4351 -0.8781
   38MOL   H62536219   0.046   5.634   2.281 -2.4019  0.1629  0.3804
   38MOL   N62636220   7.647   5.506   2.383  0.7793  0.3097 -0.2164
   38MOL   C62736221   7.534   5.409   2.406  0.5360 -0.9275 -0.7620
   38MOL   C62836222   7.533   5.307   2.300 -0.3536 -0.4189 -0.5717
   38MOL   C62936223   7.647   5.226   2.291  0.5467 -0.0298  0.5954
   38MOL   C63036224   7.650   5.110   2.206  0.2482 -0.2763 -0.2655
   38MOL   C63136225   7.540   5.084   2.124 -0.4383  0.2149 -0.5239
   38MOL   C63236226   7.424   5.167   2.133  0.2819 -0.2158  0.2920
   38MOL   C63336227   7.416   5.270   2.228  0.3687  0.3865  0.0064
   38MOL   C63436228   7.299   5.365   2.226 -0.0929  0.1740 -0.0944
   38MOL   N63536229   7.180   5.302   2.277 -0.9143  0.3539  0.1595
   38MOL   C63636230   7.159   5.289   2.410 -0.7057 -0.7222  0.9457
   38MOL   O63736231   7.236   5.331   2.498  0.2591  0.2878 -0.2979
   38MOL   C63836232   7.022   5.226   2.444  0.5809  0.1899 -0.3189
   38MOL   C63936233   7.036   5.109   2.543  0.1591  0.4479 -0.1034
   38MOL   C64036234   7.087   4.975   2.484 -0.2144 -0.6425  0.7769
   38MOL   C64136235   7.232   4.976   2.441  0.2394  0.7445 -0.0475
   38MOL   C64236236   7.323   5.003   2.561  0.0167 -0.3161  0.2685
   38MOL   C64336237   7.481   4.999   2.531  0.1736  0.0451  0.2813
   38MOL   C64436238   7.568   4.941   2.646 -0.5675  0.8313 -0.4442
   38MOL   C64536239   7.565   4.788   2.651 -0.0521  0.1492  0.2997
   38MOL   C64636240   7.654   4.728   2.760 -0.1662  0.2101 -0.1561
   38MOL   O64736241   7.776   4.734   2.758 -0.9003 -0.8727  0.3119
   38MOL   H64836242   7.630   5.594   2.336 -0.1182 -0.1151 -0.7134
   38MOL   H64936243   7.440   5.456   2.436  0.5788 -0.1650 -1.7742
   38MOL   H65036244   7.560   5.353   2.496 -0.5825 -1.1417 -0.5707
   38MOL   H65136245   7.735   5.247   2.350  2.1470 -2.5009 -0.8092
   38MOL   H65236246   7.742   5.055   2.194  0.9722  0.7302  0.6051
   38MOL   H65336247   7.543   5.004   2.052 -0.4757 -0.6797  0.4575
   38MOL   H65436248   7.329   5.132   2.094 -0.0054  0.4537  0.3800
   38MOL   H65536249   7.284   5.398   2.123  2.1006 -2.4662 -1.3219
   38MOL   H65636250   7.319   5.463   2.269 -0.2301  1.4530 -2.8269
   38MOL   H65736251   7.102   5.279   2.217 -0.7621  1.1292 -0.3468
   38MOL   H65836252   6.964   5.204   2.354 -0.6668  1.1057  0.2434
   38MOL   H65936253   6.975   5.307   2.500  2.1126 -1.2487  3.1866
   38MOL   H66036254   6.937   5.085   2.584  1.3601 -1.1587  1.9310
   38MOL   H66136255   7.097   5.139   2.628  1.2146 -0.8536 -0.3929
   38MOL   H66236256   7.075   4.896   2.558  1.2676 -0.4126  1.2666
   38MOL   H66336257   7.022   4.940   2.403 -1.5239  3.1654  0.0698
   38MOL   H66436258   7.252   4.873   2.411 -4.0948 -0.9463  2.4116
   38MOL   H66536259   7.248   5.043   2.357 -0.5434  1.4910  0.3915
   38MOL   H66636260   7.289   5.104   2.585  0.1867  1.0737 -4.6664
   38MOL   H66736261   7.303   4.934   2.642  0.2718 -2.1848 -1.2254
   38MOL   H66836262   7.511   5.102   2.511 -0.9567  0.5852  1.3280
   38MOL   H66936263   7.507   4.935   2.447  1.4956 -0.1275  0.8167
   38MOL   H67036264   7.670   4.974   2.627 -0.2571  1.5026  2.2513
   38MOL   H67136265   7.530   4.978   2.741 -0.4959  0.4174 -0.2530
   38MOL   H67236266   7.597   4.745   2.556  1.3645 -0.7704  1.1725
   38MOL   H67336267   7.460   4.762   2.668  0.0333 -0.0759  0.4890
   38MOL   N67436268   7.594   4.669   2.862 -0.6389 -0.5147  0.4826
   38MOL   C67536269   7.647   4.609   2.983 -0.0528 -0.0943 -0.4738
   38MOL   C67636270   7.661   4.455   2.975  0.1606 -0.6269  0.4144
   38MOL   C67736271   7.786   4.402   2.964 -0.5335  0.0683  1.5394
   38MOL   C67836272   0.016   4.261   2.942  0.2511  0.6542 -0.0770
   38MOL   C67936273   7.687   4.179   2.946  0.1638 -0.1933 -0.4014
   38MOL   C68036274   7.555   4.232   2.968 -0.5008  0.4442  0.7303
   38MOL   C68136275   7.542   4.372   2.973 -0.1745 -0.1064 -0.2255
   38MOL   C68236276   7.403   4.424   2.985 -0.1070 -0.5941  0.2208
   38MOL   N68336277   7.348   4.461   2.858  0.1612 -0.2858 -0.6142
   38MOL   C68436278   7.216   4.488   2.828 -0.3328 -0.3246 -0.7455
   38MOL   O68536279   7.133   4.484   2.919 -0.3287 -0.0968  0.2190
   38MOL   C68636280   7.187   4.527   2.677  0.7646  0.9050  0.0761
   38MOL   C68736281   7.051   4.594   2.659 -0.2310 -0.0704 -0.1874
   38MOL   C68836282   7.030   4.650   2.517  0.3342  0.3392  0.2855
   38MOL   C68936283   6.996   4.549   2.418 -0.4177  0.3451  0.1102
   38MOL   C69036284   6.982   4.597   2.272  0.8247  0.2353  0.2791
   38MOL   C69136285   6.927   4.486   2.183  0.1603 -0.2550  0.3504
   38MOL   C69236286   6.899   4.535   2.039  0.2996 -0.0908 -0.0333
   38MOL   C69336287   6.881   4.429   1.928 -0.5653  0.0423  0.0219
   38MOL   C69436288   6.742   4.364   1.918  0.3549  0.4776  0.0001
   38MOL   O69536289   6.650   4.407   1.986  0.3663 -0.1577 -0.1754
   38MOL   H69636290   7.494   4.682   2.866 -0.5078  1.4619 -1.8124
   38MOL   H69736291   7.583   4.633   3.068  0.4495  0.0768 -0.1422
   38MOL   H69836292   7.743   4.656   3.003 -0.7874  0.2234  2.6162
   38MOL   H69936293   0.086   4.462   2.956  0.5494 -1.5432  1.3974
   38MOL   H70036294   0.114   4.220   2.921  0.4434  0.8084  0.5111
   38MOL   H70136295   7.699   4.074   2.926  1.1071 -0.3516  0.9244
   38MOL   H70236296   7.472   4.164   2.966  0.0512 -0.2354 -1.2626
   38MOL   H70336297   7.404   4.507   3.055  1.4665  0.0207 -0.5094
   38MOL   H70436298   7.336   4.347   3.025 -1.8145  0.0553 -1.2764
   38MOL   H70536299   7.420   4.474   2.788  0.4321  2.1890  0.0841
   38MOL   H70636300   7.222   4.452   2.606 -1.5576  0.1981 -0.3699
   38MOL   H70736301   7.249   4.611   2.646 -0.5609  2.0240  0.4067
   38MOL   H70836302   7.036   4.676   2.729  0.4173 -0.3758  0.3108
   38MOL   H70936303   6.971   4.525   2.685 -1.4345  1.5288  0.4865
   38MOL   H71036304   6.956   4.730   2.514 -0.5403 -0.4660  0.2647
   38MOL   H71136305   7.122   4.698   2.485  0.1259 -1.0384 -2.4977
   38MOL   H71236306   7.069   4.468   2.408 -0.0648  0.7373 -0.4979
   38MOL   H71336307   6.906   4.500   2.456 -0.1334 -2.3065 -2.4772
   38MOL   H71436308   6.910   4.679   2.262  2.0118  1.2982  0.3490
   38MOL   H71536309   7.081   4.633   2.247  0.4318  1.4699  0.4614
   38MOL   H71636310   6.836   4.455   2.234 -0.7124  0.5170 -0.7100
   38MOL   H71736311   6.999   4.405   2.185  0.6009  0.0169 -2.8334
   38MOL   H71836312   6.982   4.602   2.017  0.7932 -0.3512  0.9911
   38MOL   H71936313   6.814   4.603   2.041 -1.7575 -2.6042 -0.0880
   38MOL   H72036314   6.963   4.357   1.936 -1.2048 -0.8211 -1.0398
   38MOL   H72136315   6.900   4.470   1.829 -2.4670 -1.6217 -1.0748
   38MOL   N72236316   6.726   4.253   1.847  0.1530  0.4096  0.1730
   38MOL   C72336317   6.598   4.187   1.838 -0.2551  0.1028 -0.5495
   38MOL   C72436318   6.609   4.067   1.741 -0.4549 -0.0153  0.1990
   38MOL   C72536319   6.537   4.084   1.621  0.4265  0.0657 -0.3208
   38MOL   C72636320   6.530   3.978   1.528  0.1748 -0.2236 -0.7774
   38MOL   C72736321   6.611   3.861   1.544  0.1137  0.0797 -0.1241
   38MOL   C72836322   6.695   3.852   1.657  0.6283  0.2592 -0.6833
   38MOL   C72936323   6.692   3.950   1.762  0.1397 -0.3958 -0.4594
   38MOL   C73036324   6.788   3.939   1.882 -0.0833  0.6265 -0.3520
   38MOL   N73136325   6.929   3.915   1.849 -0.1821  0.0429  0.0078
   38MOL   C73236326   7.018   4.007   1.814 -0.2585 -0.0283 -0.2839
   38MOL   O73336327   6.987   4.123   1.809  0.0700 -0.3751  0.4596
   38MOL   C73436328   7.161   3.961   1.784 -0.2735  0.1604  0.6890
   38MOL   C73536329   7.231   4.037   1.675  0.3003 -0.1899 -0.6085
   38MOL   C73636330   7.368   3.974   1.646 -0.3363 -0.7836 -0.3768
   38MOL   C73736331   7.448   4.046   1.539 -0.1143 -0.9920 -0.0136
   38MOL   C73836332   7.574   3.965   1.492  0.5052  0.3708 -0.0086
   38MOL   C73936333   7.666   3.899   1.594  0.1033  0.3495 -0.2845
   38MOL   C74036334   7.728   4.013   1.673 -0.2585 -0.0072  0.4305
   38MOL   C74136335   0.068   3.966   1.737  0.8620  0.3864 -0.5790
   38MOL   C74236336   0.130   4.079   1.827 -0.2746  0.0339  0.2638
   38MOL   O74336337   0.075   4.185   1.848 -0.1779  0.3169  0.2958
   38MOL   H74436338   6.811   4.226   1.800  1.7025  0.3815  2.8984
   38MOL   H74536339   6.523   4.263   1.817  1.9244  2.7210  0.9492
   38MOL   H74636340   6.581   4.149   1.939 -0.0699 -0.8067 -0.8543
   38MOL   H74736341   6.466   4.164   1.612  0.5406  0.1484 -0.4895
   38MOL   H74836342   6.463   3.997   1.446 -1.1171  1.2411  0.5677
   38MOL   H74936343   6.622   3.806   1.451 -1.2388  1.4027 -1.1045
   38MOL   H75036344   6.756   3.764   1.673  0.3014  0.1302 -0.1537
   38MOL   H75136345   6.764   3.849   1.939  1.8665  0.2736 -0.0764
   38MOL   H75236346   6.778   4.028   1.944  2.3956  2.0857 -1.9787
   38MOL   H75336347   6.963   3.820   1.848  1.0216  0.4589  0.5137
   38MOL   H75436348   7.162   3.853   1.770  0.0988 -0.1869  3.2149
   38MOL   H75536349   7.217   3.978   1.875 -0.5329  0.4920  0.7900
   38MOL   H75636350   7.230   4.140   1.709  0.2383 -0.6934  0.9145
   38MOL   H75736351   7.173   4.038   1.583 -0.5810 -0.9300 -0.0625
   38MOL   H75836352   7.417   3.965   1.744 -1.4257 -2.1534  0.0666
   38MOL   H75936353   7.348   3.871   1.617 -2.1722 -0.8661  1.0853
   38MOL   H76036354   7.385   4.082   1.458 -1.1990 -1.9664  0.3744
   38MOL   H76136355   7.477   4.136   1.593 -3.1718 -1.8111  3.2006
   38MOL   H76236356   7.524   3.889   1.431 -0.1172  0.3741  0.4967
   38MOL   H76336357   7.634   4.026   1.425 -0.1507  1.0918  0.0582
   38MOL   H76436358   7.749   3.848   1.545  0.7382  0.6463  0.4638
   38MOL   H76536359   7.622   3.832   1.669  0.9542 -0.2119 -0.2824
   38MOL   H76636360   7.766   4.086   1.602  1.3028 -0.1730  1.0806
   38MOL   H76736361   7.654   4.056   1.742  0.0159 -0.4882  1.0291
   38MOL   H76836362   0.038   3.886   1.806 -1.5841  0.9992 -0.8708
   38MOL   H76936363   0.135   3.924   1.662  2.0323  0.0524  0.6421
   38MOL   N77036364   0.253   4.052   1.876  0.4188 -0.4845  0.4628
   38MOL   C77136365   0.344   4.144   1.945 -0.6242  0.2224  0.0951
   38MOL   C77236366   0.459   4.164   1.843 -0.5197  0.9048 -0.5944
   38MOL   C77336367   0.556   4.063   1.822 -0.7937 -0.1026  0.2174
   38MOL   C77436368   0.634   4.058   1.707 -0.2138  0.4335  0.9751
   38MOL   C77536369   0.638   4.172   1.625  0.7322  0.1643 -0.2646
   38MOL   C77636370   0.545   4.274   1.632 -0.3007 -0.5366 -0.1236
   38MOL   C77736371   0.452   4.267   1.746  1.0611  0.0528 -0.3048
   38MOL   C77836372   0.351   4.380   1.754  0.5229  0.4156 -0.0657
   38MOL   N77936373   0.416   4.486   1.819 -0.3105 -0.6776 -0.3439
   38MOL   C78036374   0.375   4.578   1.911  0.4961 -0.2372 -0.4540
   38MOL   O78136375   0.263   4.583   1.950 -0.5749  0.3485 -0.7120
   38MOL   C78236376   0.493   4.658   1.970 -0.8066 -0.2687 -0.0686
   38MOL   C78336377   0.458   4.750   2.082 -0.0424  0.6640  0.3529
   38MOL   C78436378   0.433   4.896   2.050  0.5384 -0.7657  0.4121
   38MOL   C78536379   0.386   4.978   2.181 -0.4035  0.0473  0.7603
   38MOL   C78636380   0.246   4.954   2.229  0.5062  0.3378 -0.9313
   38MOL   C78736381   0.204   5.027   2.359 -0.1967 -0.3033  0.3811
   38MOL   C78836382   0.267   4.957   2.478  0.2109  0.2421 -0.4511
   38MOL   C78936383   0.214   4.998   2.614 -0.0522  0.5397 -0.2175
   38MOL   C79036384   0.300   4.939   2.727  0.2655 -0.7623 -0.2242
   38MOL   O79136385   0.406   4.989   2.763  0.5777 -1.2179  0.3487
   38MOL   H79236386   0.286   3.964   1.840  0.0133  0.9915 -3.8140
   38MOL   H79336387   0.297   4.237   1.977 -1.9560 -0.5829  0.5405
   38MOL   H79436388   0.392   4.097   2.030  0.8557 -1.6473 -1.7070
   38MOL   H79536389   0.568   3.978   1.888 -0.5576  0.4969  0.9478
   38MOL   H79636390   0.698   3.974   1.684  0.3726  1.3432 -0.7566
   38MOL   H79736391   0.712   4.178   1.547  1.1179 -0.4191  0.0551
   38MOL   H79836392   0.559   4.360   1.568 -2.7716  0.0453  0.0707
   38MOL   H79936393   0.256   4.357   1.801  1.0623  0.6966  1.1950
   38MOL   H80036394   0.314   4.410   1.657 -2.0729 -0.9565  0.4723
   38MOL   H80136395   0.509   4.504   1.785  0.6604 -2.0098  1.5480
   38MOL   H80236396   0.544   4.704   1.886 -1.1495 -0.7077 -0.5245
   38MOL   H80336397   0.556   4.585   2.020 -1.8104 -0.8812  0.3266
   38MOL   H80436398   0.543   4.750   2.150  0.0282 -0.2775  0.2724
   38MOL   H80536399   0.371   4.711   2.137 -0.0988  1.5143  0.8824
   38MOL   H80636400   0.365   4.917   1.967  0.0220  1.3980  1.3745
   38MOL   H80736401   0.525   4.936   2.007 -0.4482 -0.3765 -1.4202
   38MOL   H80836402   0.459   4.949   2.257  0.8711  1.5105  0.1220
   38MOL   H80936403   0.402   5.083   2.161 -1.7071  0.1866  0.4084
   38MOL   H81036404   0.183   4.997   2.151 -0.5080  0.8603  0.1641
   38MOL   H81136405   0.225   4.848   2.230  3.3428 -0.2601 -0.1876
   38MOL   H81236406   0.097   5.022   2.378 -0.0554  1.1000  1.7370
   38MOL   H81336407   0.223   5.134   2.345  1.7077 -1.0080 -2.9026
   38MOL   H81436408   0.376   4.958   2.471  0.1574  0.8914 -1.2973
   38MOL   H81536409   0.251   4.850   2.469  1.2809  0.0849 -0.6029
   38MOL   H81636410   0.114   4.956   2.605  0.7266 -1.8496  1.6379
   38MOL   H81736411   0.214   5.107   2.626  0.7566  0.4526  0.7227
   38MOL   N81836412   0.240   4.839   2.781  1.2073  0.5959 -0.5800
   38MOL   C81936413   0.280   4.771   2.902 -0.0049 -0.5164 -0.5812
   38MOL   C82036414   0.320   4.627   2.884  0.7128 -0.0126 -0.0712
   38MOL   C82136415   0.312   4.565   2.757  0.0213 -0.0265  1.0246
   38MOL   C82236416   0.354   4.435   2.732  0.0298  0.7881 -0.9839
   38MOL   C82336417   0.390   4.357   2.848 -0.1435 -0.3824  0.1146
   38MOL   C82436418   0.387   4.412   2.976  0.1347 -0.7230 -0.7859
   38MOL   C82536419   0.352   4.549   2.999  0.6064 -0.2097 -0.6799
   38MOL   C82636420   0.354   4.611   3.139 -0.0341  0.0788 -0.0675
   38MOL   N82736421   0.287   4.519   3.227 -0.4199 -0.0553 -0.2215
   38MOL   C82836422   0.163   4.526   3.268 -0.5140  0.2772 -0.7818
   38MOL   O82936423   0.092   4.624   3.258  0.4735  0.3109 -0.0327
   38MOL   C83036424   0.107   4.401   3.343 -0.1393  0.3217 -0.3422
   38MOL   C83136425   7.749   4.408   3.384  0.4065 -0.4187 -0.4683
   38MOL   C83236426   7.720   4.485   3.511 -0.2608  0.7954  0.6761
   38MOL   C83336427   7.577   4.516   3.554 -0.0682 -0.2943  0.0821
   38MOL   C83436428   7.577   4.583   3.695 -1.1286  0.2452 -0.3441
   38MOL   C83536429   7.625   4.476   3.806 -0.0210 -0.2284 -0.0737
   38MOL   C83636430   7.563   4.487   3.945 -0.3053  0.0304 -0.7559
   38MOL   C83736431   7.610   4.369   4.031  0.1047  0.0893  0.2774
   38MOL   C83836432   7.569   4.371   4.175  0.6592 -0.1319 -0.6848
   38MOL   O83936433   7.503   4.468   4.218  0.2942 -0.0672  0.0673
   38MOL   H84036434   0.144   4.835   2.751  0.3045  1.8851  2.0347
   38MOL   H84136435   0.364   4.817   2.954 -0.5255  1.3391 -1.3641
   38MOL   H84236436   0.205   4.776   2.980  0.6334 -0.6061  0.0519
   38MOL   H84336437   0.284   4.620   2.668 -0.4886 -2.1387 -0.1514
   38MOL   H84436438   0.357   4.389   2.634 -1.1512 -1.2356 -0.1037
   38MOL   H84536439   0.411   4.252   2.832  2.5095 -0.1931  2.0079
   38MOL   H84636440   0.424   4.358   3.062 -1.0264  2.5015  1.8820
   38MOL   H84736441   0.303   4.707   3.147  1.4445  0.8415  0.3427
   38MOL   H84836442   0.460   4.622   3.163 -0.4932  1.2818  1.5535
   38MOL   H84936443   0.335   4.435   3.256  0.8742  1.3534  1.7988
   38MOL   H85036444   0.176   4.378   3.424 -0.1890 -0.0462 -0.4016
   38MOL   H85136445   0.109   4.324   3.265 -0.5561  1.1468 -1.1837
   38MOL   H85236446   7.730   4.301   3.393 -1.1334 -0.0627  0.8316
   38MOL   H85336447   7.678   4.448   3.310  0.0354 -0.8555 -0.3508
   38MOL   H85436448   7.775   4.579   3.507 -0.4523  0.8809 -0.0844
   38MOL   H85536449   7.769   4.445   3.599  0.0582  0.3584  0.2969
   38MOL   H85636450   7.531   4.580   3.480 -0.0440 -0.1810  0.1638
   38MOL   H85736451   7.528   4.419   3.561 -0.1077 -0.2303  0.8204
   38MOL   H85836452   7.638   4.673   3.693  2.7553 -2.2595 -1.0084
   38MOL   H85936453   7.478   4.613   3.728 -0.7869 -0.1349  1.0655
   38MOL   H86036454   7.732   4.475   3.826  0.1529  0.2890 -0.9334
   38MOL   H86136455   7.592   4.375   3.782  2.4745 -1.3995  1.2571
   38MOL   H86236456   7.455   4.485   3.930 -0.1954  0.5491 -1.6155
   38MOL   H86336457   7.577   4.585   3.990 -4.5991  0.2679  0.3000
   38MOL   H86436458   7.553   4.286   3.988  2.1938 -0.4967 -1.4783
   38MOL   H86536459   7.718   4.357   4.022 -0.2293 -2.5053 -0.8388
   38MOL   N86636460   7.614   4.271   4.248  0.0477 -0.0217 -0.1130
   38MOL   C86736461   7.572   4.254   4.388  0.3473  0.1253 -0.4441
   38MOL   C86836462   7.471   4.140   4.403 -0.0043 -0.0153  0.2766
   38MOL   C86936463   7.515   4.009   4.380  0.1057  0.6171 -0.4946
   38MOL   C87036464   7.429   3.895   4.391 -0.4034  0.2461  0.2066
   38MOL   C87136465   7.299   3.911   4.448 -0.0965  0.3156 -0.6967
   38MOL   C87236466   7.256   4.041   4.474  0.1723 -0.5260 -0.6616
   38MOL   C87336467   7.336   4.152   4.449 -0.7736  0.2310 -0.2525
   38MOL   C87436468   7.280   4.283   4.500  0.3752 -0.1584  0.1914
   38MOL   N87536469   7.295   4.398   4.409  0.4608 -0.6036 -0.2216
   38MOL   C87636470   7.248   4.520   4.437 -0.3069  0.5703 -0.3811
   38MOL   O87736471   7.176   4.542   4.534  0.4615 -0.6385 -0.2382
   38MOL   C87836472   7.284   4.634   4.339 -0.8762  0.0865 -0.1393
   38MOL   C87936473   7.221   4.769   4.369  0.6501 -0.0768  0.2438
   38MOL   C88036474   7.208   4.867   4.244  0.3807  0.3721 -0.0612
   38MOL   C88136475   7.342   4.898   4.170 -0.2698  0.7340  0.5736
   38MOL   C88236476   7.319   4.983   4.046 -0.4589  0.6232  0.5614
   38MOL   C88336477   7.445   5.002   3.967 -0.0353  0.1944 -0.0620
   38MOL   C88436478   7.553   5.092   4.038  0.2026  0.3016  0.0174
   38MOL   C88536479   7.669   5.029   4.119  0.0823  0.7335  0.3171
   38MOL   C88636480   7.732   5.129   4.215  0.2183  0.0345  0.1741
   38MOL   O88736481   7.660   5.211   4.266  0.1354 -0.0316  0.3794
   38MOL   H88836482   7.656   4.191   4.205 -2.0772 -2.8492  2.7767
   38MOL   H88936483   7.662   4.226   4.443  0.3949  1.6855  0.2857
   38MOL   H89036484   7.538   4.344   4.438  1.2034  0.1693  0.0767
   38MOL   H89136485   7.610   3.995   4.330 -0.0644 -0.2721 -0.5772
   38MOL   H89236486   7.473   3.799   4.370  2.2163  1.1203  1.4606
   38MOL   H89336487   7.246   3.820   4.472  0.4512 -0.1137 -1.1015
   38MOL   H89436488   7.157   4.064   4.510 -0.7842 -3.2411 -1.4603
   38MOL   H89536489   7.334   4.319   4.587 -1.9847 -0.0555  1.6635
   38MOL   H89636490   7.177   4.280   4.537 -0.4952  0.4977 -2.0878
   38MOL   H89736491   7.327   4.388   4.314 -0.0414 -2.5937 -0.1989
   38MOL   H89836492   7.253   4.597   4.240  0.0255 -1.8205  0.2614
   38MOL   H89936493   7.392   4.641   4.337 -0.9406  1.0401 -0.6335
   38MOL   H90036494   7.281   4.808   4.451  0.2296 -1.0758  1.0423
   38MOL   H90136495   7.121   4.760   4.412  0.2329  0.5713 -0.5709
   38MOL   H90236496   7.145   4.819   4.169  0.2307 -2.2541  1.6597
   38MOL   H90336497   7.156   4.957   4.274  1.2442  1.3868 -1.5724
   38MOL   H90436498   7.412   4.941   4.241  1.2829  0.3872 -0.7196
   38MOL   H90536499   7.385   4.801   4.144 -2.6948  0.1376 -1.4210
   38MOL   H90636500   7.243   4.951   3.974 -0.4064  1.4207  0.1443
   38MOL   H90736501   7.279   5.081   4.070  0.5309  1.2669 -0.3906
   38MOL   H90836502   7.410   5.051   3.876 -2.3879 -2.6490 -0.7764
   38MOL   H90936503   7.478   4.903   3.935 -0.8937 -0.5377  1.2736
   38MOL   H91036504   7.603   5.155   3.965 -0.0975 -0.4827 -0.8774
   38MOL   H91136505   7.494   5.160   4.100  2.2629  2.3435 -0.2041
   38MOL   H91236506   7.633   4.939   4.169  0.6486  1.1048  1.4089
   38MOL   H91336507   7.743   4.990   4.050  0.1917  0.0213  0.8242
   38MOL   N91436508   0.075   5.126   4.230  0.2972 -0.6692  0.1273
   38MOL   C91536509   0.146   5.245   4.287 -0.3762 -0.3674 -0.1000
   38MOL   C91636510   0.219   5.219   4.414 -0.4518  0.6218 -0.2919
   38MOL   C91736511   0.351   5.179   4.397 -0.3910  1.4409  0.8078
   38MOL   C91836512   0.439   5.171   4.507  0.2422 -0.3609  0.1822
   38MOL   C91936513   0.390   5.195   4.638  1.1761  0.5378 -0.1440
   38MOL   C92036514   0.253   5.233   4.648 -0.3171  0.2336 -0.6045
   38MOL   C92136515   0.170   5.240   4.541  0.7808 -0.0424 -0.0674
   38MOL   C92236516   0.031   5.295   4.566 -0.4423 -0.0957  0.6585
   38MOL   N92336517   7.775   5.275   4.700 -0.0625 -0.0874 -0.5703
   38MOL   C92436518   7.704   5.357   4.776  0.3938 -0.4920  0.3037
   38MOL   O92536519   7.699   5.474   4.758  0.0061  0.0255  0.2853
   38MOL   C92636520   7.622   5.307   4.894  0.2622 -0.2306  0.5729
   38MOL   C92736521   7.504   5.393   4.936  0.1319 -0.1150  0.3222
   38MOL   C92836522   7.384   5.370   4.848 -0.7505 -0.4397 -0.4860
   38MOL   C92936523   7.265   5.453   4.900 -0.5383 -0.5420  0.3259
   38MOL   C93036524   7.126   5.426   4.832  0.1860  0.2969 -0.2091
   38MOL   C93136525   7.020   5.530   4.817  0.0310 -0.0635 -0.0657
   38MOL   C93236526   6.954   5.561   4.953  0.2002 -0.0825 -0.3989
   38MOL   C93336527   6.844   5.670   4.948  0.5605 -0.2818 -0.2653
   38MOL   C93436528   6.774   5.684   5.086 -0.0535  0.1532  0.7343
   38MOL   O93536529   6.817   5.635   5.191  0.5290 -0.0595 -0.0813
   38MOL   H93636530   0.131   5.058   4.182  2.3222  0.4758  0.8165
   38MOL   H93736531   0.213   5.279   4.207  0.7224 -0.2651  0.8457
   38MOL   H93836532   0.088   5.337   4.295  0.9851  0.7031 -1.9756
   38MOL   H93936533   0.373   5.131   4.303  3.2873  1.9438  1.3633
   38MOL   H94036534   0.541   5.143   4.485  0.4856  0.9941 -0.4187
   38MOL   H94136535   0.451   5.170   4.724 -2.4235 -0.9567  2.1282
   38MOL   H94236536   0.212   5.241   4.747  0.5514  3.9550 -0.4808
   38MOL   H94336537   7.757   5.245   4.493  2.8906  0.3999 -2.7605
   38MOL   H94436538   0.028   5.400   4.537 -1.6161  0.2923  2.0862
   38MOL   H94536539   7.769   5.177   4.724  0.2888 -0.0735 -0.4082
   38MOL   H94636540   7.693   5.312   4.977  1.0418  2.7237 -0.2120
   38MOL   H94736541   7.587   5.204   4.888  0.7508 -0.5244  2.6152
   38MOL   H94836542   7.532   5.498   4.937  0.7667 -0.2218 -2.0753
   38MOL   H94936543   7.471   5.363   5.035  1.6034 -1.8667  0.3248
   38MOL   H95036544   7.401   5.392   4.743 -0.4888  2.3904  0.0877
   38MOL   H95136545   7.355   5.266   4.860 -1.1231  0.1417  5.1541
   38MOL   H95236546   7.256   5.428   5.006  0.3897  0.3706  0.6351
   38MOL   H95336547   7.289   5.558   4.881  1.5211 -0.6995  1.8378
   38MOL   H95436548   7.070   5.338   4.862 -1.2521  0.7336 -1.5683
   38MOL   H95536549   7.157   5.410   4.729 -1.0862  2.1979 -0.9131
   38MOL   H95636550   7.045   5.619   4.758  0.6268 -0.8044 -0.9453
   38MOL   H95736551   6.939   5.478   4.766  1.4232 -0.7645 -1.6223
   38MOL   H95836552   7.032   5.602   5.016  0.3907 -1.4069  0.2444
   38MOL   H95936553   6.916   5.468   4.994  1.9183 -0.6363 -0.0325
   38MOL   H96036554   6.761   5.641   4.884  0.0510  0.9759 -0.1977
   38MOL   H96136555   6.884   5.768   4.924  1.1632 -0.6135 -0.6281
   38MOL   H96236556   6.682   5.742   5.085 -0.4643 -0.4987 -0.4399
   39MOL     N136557   1.067   0.236   6.634  0.0274 -0.1761  0.1823
   39MOL     C236558   0.984   0.123   6.592  0.1517  0.2044  0.1486
   39MOL     C336559   0.846   0.130   6.661 -0.0439  0.3065  0.3426
   39MOL     C436560   0.731   0.143   6.574 -0.4534  0.0965 -0.1553
   39MOL     C536561   0.605   0.109   6.626  0.5995  0.1164  0.4328
   39MOL     C636562   0.589   0.083   6.761  0.2271  0.6279  0.0268
   39MOL     C736563   0.701   0.083   6.842 -0.3210  0.0721 -0.6543
   39MOL     C836564   0.829   0.098   6.796  0.0403 -0.3045 -0.3502
   39MOL     C936565   0.954   0.091   6.888  0.3977 -0.3677 -0.0522
   39MOL    N1036566   0.915   0.049   7.025 -0.2431 -0.1737  0.1098
   39MOL    C1136567   0.917   7.710   7.071 -0.2463  0.3890  0.5387
   39MOL    O1236568   0.942   7.611   6.997  0.6114 -0.0504 -0.2910
   39MOL    C1336569   0.879   7.688   7.223 -0.4421 -0.1566 -0.1978
   39MOL    C1436570   1.013   7.674   7.308  0.1712  0.1342 -0.1380
   39MOL    C1536571   1.098   0.009   7.303 -0.1820  0.1345 -0.0853
   39MOL    C1636572   1.249   7.767   7.302 -0.2380 -0.0317  0.3939
   39MOL    C1736573   1.339   0.089   7.242  0.7087  0.1609  0.1324
   39MOL    C1836574   1.331   0.096   7.091  0.2657 -0.3359 -0.4381
   39MOL    C1936575   1.453   0.174   7.028  0.2090  0.7645 -0.0762
   39MOL    C2036576   1.559   0.082   6.955  0.5286  0.1476 -1.1261
   39MOL    C2136577   1.642   0.003   7.052 -0.3050 -0.2492  0.2185
   39MOL    O2236578   1.731   0.055   7.120 -0.1757 -0.0205  0.0977
   39MOL    H2336579   1.037   0.315   6.579 -0.7692  0.9758  2.2230
   39MOL    H2436580   0.978   0.125   6.483 -0.6647  0.0110  0.1838
   39MOL    H2536581   1.036   0.033   6.624  0.7775  0.2864 -0.6412
   39MOL    H2636582   0.752   0.166   6.471  2.0338 -3.5611 -0.5565
   39MOL    H2736583   0.519   0.100   6.560  0.9841  0.1480 -0.0761
   39MOL    H2836584   0.490   0.056   6.795 -0.0698 -1.7192 -2.5428
   39MOL    H2936585   0.692   0.037   6.939  1.3348  1.3880  0.1387
   39MOL    H3036586   1.021   0.177   6.896 -1.0074  0.6421  0.9643
   39MOL    H3136587   1.024   0.015   6.851  2.1233  1.1861 -0.0680
   39MOL    H3236588   0.908   0.120   7.097  0.9482 -0.0853  0.1486
   39MOL    H3336589   0.819   7.598   7.229 -1.6967  0.5261 -2.0724
   39MOL    H3436590   0.818   7.774   7.251 -0.2774  0.0818 -0.5546
   39MOL    H3536591   1.062   7.585   7.269  0.4482  2.2697 -5.0302
   39MOL    H3636592   0.979   7.650   7.408 -0.0614  0.7625 -0.0609
   39MOL    H3736593   1.078   0.073   7.217  1.2003 -0.6950 -1.0387
   39MOL    H3836594   1.070   0.073   7.387 -1.4287 -1.4818  0.7693
   39MOL    H3936595   1.272   7.751   7.407  1.3296 -1.4223 -0.1274
   39MOL    H4036596   1.280   7.678   7.245  1.6104  0.9675 -0.2072
   39MOL    H4136597   1.323   0.183   7.294  2.4166 -0.2686  1.4784
   39MOL    H4236598   1.443   0.062   7.259  0.3682 -1.2173  0.0735
   39MOL    H4336599   1.241   0.154   7.071  0.0973  0.4256  2.3215
   39MOL    H4436600   1.316   7.787   7.047 -2.0470 -0.7398  1.1541
   39MOL    H4536601   1.415   0.260   6.973  0.3919  1.2066  0.4845
   39MOL    H4636602   1.519   0.225   7.099  2.3783  1.7156 -2.6792
   39MOL    H4736603   1.613   0.161   6.902  0.5155  0.5290 -0.5875
   39MOL    H4836604   1.510   0.027   6.876  1.0592  0.8700 -1.9708
   39MOL    H4936605   1.159   0.222   6.594  1.4705  2.0840  2.5543
   39MOL    N5036606   1.615   7.666   7.058 -0.0673 -0.2578 -0.3271
   39MOL    C5136607   1.684   7.568   7.131  0.0153  0.2486 -0.3151
   39MOL    C5236608   1.622   7.528   7.269  0.2922  0.0674 -0.5813
   39MOL    C5336609   1.592   7.634   7.354 -1.0737 -0.1583 -0.1926
   39MOL    C5436610   1.531   7.610   7.475 -0.3921 -0.2105  0.1365
   39MOL    C5536611   1.495   7.476   7.505  0.0718 -0.6397 -0.6193
   39MOL    C5636612   1.521   7.367   7.421  0.1927 -0.7080 -0.9892
   39MOL    C5736613   1.584   7.393   7.300 -0.0703 -0.2759  0.2895
   39MOL    C5836614   1.616   7.279   7.207 -0.3024  0.6074 -0.3565
   39MOL    N5936615   1.578   7.151   7.262 -0.2983 -0.3093 -0.3449
   39MOL    C6036616   1.664   7.049   7.277  0.3156  0.1786 -0.6294
   39MOL    O6136617   1.777   7.064   7.245 -0.7479  0.1919 -0.3745
   39MOL    C6236618   1.615   6.932   7.371 -0.3682 -0.2690 -0.0083
   39MOL    C6336619   1.621   6.790   7.309 -0.3158  0.0273 -0.3283
   39MOL    C6436620   1.592   6.676   7.409 -0.1678  0.0436 -0.5490
   39MOL    C6536621   1.705   6.637   7.510 -0.5725 -0.1445 -0.0668
   39MOL    C6636622   1.696   6.498   7.567  0.5927  0.7293  0.3459
   39MOL    C6736623   1.808   6.477   7.662 -0.3960  0.0264 -0.3946
   39MOL    C6836624   1.794   6.342   7.732  0.4792  0.8631 -0.6386
   39MOL    C6936625   1.924   6.312   0.016  0.4517 -0.0731 -0.3320
   39MOL    C7036626   2.045   6.279   7.714  0.3115  0.5482 -0.1234
   39MOL    O7136627   2.040   6.194   7.627 -0.5054 -0.4100  0.0504
   39MOL    H7236628   1.524   7.641   7.022 -0.9179  2.3901 -0.1256
   39MOL    H7336629   1.783   7.606   7.152  1.2450 -1.9000 -1.9503
   39MOL    H7436630   1.704   7.481   7.068  0.1895  0.3438 -0.3887
   39MOL    H7536631   1.615   7.736   7.328 -0.7882 -0.2906 -0.4637
   39MOL    H7636632   1.506   7.682   7.551  2.2439  1.1628 -0.2251
   39MOL    H7736633   1.462   7.455   7.606 -1.5028  2.6195 -0.3784
   39MOL    H7836634   1.497   7.268   7.458 -0.5567 -0.3104 -0.4122
   39MOL    H7936635   1.722   7.281   7.180  0.0394 -0.3916  0.8560
   39MOL    H8036636   1.562   7.288   7.114  0.2085 -1.5152 -0.8812
   39MOL    H8136637   1.487   7.148   7.305 -1.2845 -0.3461 -2.3454
   39MOL    H8236638   1.511   6.948   7.398  0.0354  1.7462  0.3871
   39MOL    H8336639   1.681   6.927   7.458  0.0702  0.6872 -0.2795
   39MOL    H8436640   1.715   6.772   7.258  0.3960 -3.0654  1.8981
   39MOL    H8536641   1.558   6.783   7.221 -1.4335 -2.3619  0.5999
   39MOL    H8636642   1.503   6.685   7.472 -1.2893 -0.8801 -1.9560
   39MOL    H8736643   1.561   6.585   7.358 -1.7155 -1.7032  3.2544
   39MOL    H8836644   1.800   6.668   7.467  0.3712 -0.7922  1.5068
   39MOL    H8936645   1.703   6.706   7.595  0.6064 -0.4983  0.2560
   39MOL    H9036646   1.597   6.491   7.610 -0.4219 -1.5401 -2.2100
   39MOL    H9136647   1.708   6.423   7.489  1.5651  0.5384  0.6634
   39MOL    H9236648   1.818   6.555   7.738 -0.4077 -0.5447  0.2002
   39MOL    H9336649   1.901   6.474   7.605 -0.3127 -2.3430 -0.1950
   39MOL    H9436650   1.782   6.269   7.652  0.4407 -0.1839  0.3028
   39MOL    H9536651   1.708   6.332   0.009  0.1717  0.7395 -1.0509
   39MOL    H9636652   1.913   6.214   0.062 -1.9756  0.7545  0.9286
   39MOL    H9736653   1.947   6.371   0.104 -0.2229  1.1139 -0.9480
   39MOL    N9836654   2.161   6.344   7.733  0.6282  0.4562 -0.0600
   39MOL    C9936655   2.294   6.323   7.675  0.6975  0.1485  0.6438
   39MOL   C10036656   2.341   6.434   7.578  0.3165 -0.0264  0.5335
   39MOL   C10136657   2.290   6.417   7.454 -0.2999 -0.6361  0.3146
   39MOL   C10236658   2.322   6.502   7.353  0.0180  0.3748 -0.4915
   39MOL   C10336659   2.401   6.617   7.382 -0.2620  0.2250  0.8609
   39MOL   C10436660   2.450   6.631   7.512  0.1197 -0.4805  0.0455
   39MOL   C10536661   2.425   6.541   7.615  0.7014  0.1091  0.6626
   39MOL   C10636662   2.477   6.551   7.762 -0.5818 -0.3639 -0.0970
   39MOL   N10736663   2.532   6.682   0.008 -0.4928  0.3491  0.3607
   39MOL   C10836664   2.494   6.769   0.101  0.2692  0.7653 -0.8938
   39MOL   O10936665   2.404   6.740   0.181 -0.6703 -0.3035  0.2512
   39MOL   C11036666   2.560   6.900   0.106 -0.4503  0.2693 -0.3180
   39MOL   C11136667   2.471   7.019   0.070 -0.4140  0.1851 -0.2196
   39MOL   C11236668   2.435   7.038   7.705  0.2323  0.8544  0.5484
   39MOL   C11336669   2.557   7.099   7.626 -0.0302 -0.2223 -0.3566
   39MOL   C11436670   2.512   7.159   7.491 -0.1635  0.0979 -0.4492
   39MOL   C11536671   2.601   7.256   7.425  0.1309 -0.5973  0.1854
   39MOL   C11636672   2.726   7.197   7.357 -0.3492 -0.4882 -0.2722
   39MOL   C11736673   2.798   7.284   7.259  0.5490  0.1089 -0.4582
   39MOL   C11836674   2.860   7.406   7.321  0.1386 -0.5298  0.2419
   39MOL   O11936675   2.984   7.405   7.343  0.2407 -0.1389 -0.3854
   39MOL   H12036676   2.160   6.417   0.013  1.4201  1.2218 -0.8247
   39MOL   H12136677   2.368   6.300   7.751 -0.9544  0.7850  2.4776
   39MOL   H12236678   2.287   6.237   7.608 -1.9630  1.6886 -1.1796
   39MOL   H12336679   2.249   6.323   7.420 -2.2921  0.6893 -1.0852
   39MOL   H12436680   2.286   6.491   7.251 -0.9767  0.5196 -0.1614
   39MOL   H12536681   2.412   6.702   7.315  0.8146 -1.1223 -0.6888
   39MOL   H12636682   2.492   6.729   7.528  1.1125 -0.9769  0.4873
   39MOL   H12736683   2.555   6.481   0.002  1.5254  1.1090 -1.8776
   39MOL   H12836684   2.391   6.524   0.032  2.0949 -3.1406  2.6713
   39MOL   H12936685   2.599   6.723   7.735  1.6022 -0.8057  1.7752
   39MOL   H13036686   2.638   6.893   0.030  0.4597 -2.3246  0.8210
   39MOL   H13136687   2.615   6.920   0.197 -0.1447 -1.6916 -0.0694
   39MOL   H13236688   2.512   7.113   0.108 -2.2955  0.2662  1.6866
   39MOL   H13336689   2.372   7.016   0.115 -0.5521  0.9354 -0.4617
   39MOL   H13436690   2.415   6.946   7.651 -1.4760  1.1631  0.6129
   39MOL   H13536691   2.353   7.111   7.705  0.9201  1.6371  1.3607
   39MOL   H13636692   2.596   7.174   7.694 -0.8113 -1.1250  1.1015
   39MOL   H13736693   2.641   7.033   7.611  0.6347 -0.2801  3.2741
   39MOL   H13836694   2.488   7.077   7.423  0.5660 -0.3648 -0.1627
   39MOL   H13936695   2.416   7.208   7.508 -0.0253  0.2531 -0.1004
   39MOL   H14036696   2.638   7.328   7.498  0.7713  0.3431 -1.0319
   39MOL   H14136697   2.553   7.323   7.353  1.3321  0.1069  0.0279
   39MOL   H14236698   2.794   7.176   7.439 -0.4943 -1.0462 -0.2969
   39MOL   H14336699   2.686   7.101   7.324 -0.8049 -1.4019  2.7584
   39MOL   H14436700   2.735   7.324   7.180 -0.3869  0.2846  0.3583
   39MOL   H14536701   2.878   7.226   7.215  0.6190  0.6273 -1.0067
   39MOL   N14636702   2.779   7.510   7.341  0.0516 -0.0934 -0.3678
   39MOL   C14736703   2.819   7.638   7.380 -0.7162  0.4047 -0.6161
   39MOL   C14836704   2.813   7.664   7.529 -0.8095 -0.6879  0.4836
   39MOL   C14936705   2.694   7.633   7.589 -0.0405  0.5982  0.5958
   39MOL   C15036706   2.667   7.652   7.732  0.0919  1.2372  0.3604
   39MOL   C15136707   2.774   7.703   0.017 -0.3674 -0.2892  0.0046
   39MOL   C15236708   2.894   7.739   7.744  0.1880  0.2839 -0.2942
   39MOL   C15336709   2.917   7.718   7.608  1.1416  1.2264  0.0835
   39MOL   C15436710   3.051   7.751   7.546  0.6628  0.0167  0.4565
   39MOL   N15536711   3.116   7.628   7.491  0.2780 -0.4980 -0.1271
   39MOL   C15636712   3.250   7.615   7.482 -0.2550  0.0696  0.0328
   39MOL   O15736713   3.326   7.694   7.540 -0.0344  0.6734 -0.1227
   39MOL   C15836714   3.310   7.502   7.391  0.4100 -0.0826  0.3990
   39MOL   C15936715   3.427   7.541   7.297  0.2455 -0.3038 -0.7308
   39MOL   C16036716   3.485   7.423   7.219 -0.1628 -0.3871  0.1831
   39MOL   C16136717   3.391   7.365   7.111  0.0220 -0.1471 -0.4602
   39MOL   C16236718   3.445   7.263   7.013  0.0833  0.7292  0.3162
   39MOL   C16336719   3.347   7.220   6.908  0.6999  0.2427 -0.3374
   39MOL   C16436720   3.392   7.098   6.836  1.2410  0.6357 -0.5116
   39MOL   C16536721   3.520   7.107   6.747 -0.0417 -0.3246 -0.2232
   39MOL   C16636722   3.496   7.140   6.603 -0.1651  0.0249  0.3092
   39MOL   O16736723   3.421   7.236   6.575 -0.0160 -0.7294  0.2327
   39MOL   H16836724   2.679   7.498   7.330  0.3122 -1.5181 -1.3869
   39MOL   H16936725   2.735   7.704   7.358 -0.3721  1.7416  1.8338
   39MOL   H17036726   2.903   7.676   7.321  1.7703  0.9879  3.1375
   39MOL   H17136727   2.607   7.603   7.533 -0.7190  1.2705  1.2797
   39MOL   H17236728   2.574   7.633   7.783  0.6007 -1.3804  0.3836
   39MOL   H17336729   2.767   7.718   0.124  2.1151  0.7887  0.0554
   39MOL   H17436730   2.973   7.784   0.013 -1.3672  2.6001  0.0718
   39MOL   H17536731   3.119   0.007   7.618 -1.0857  0.7656  1.6367
   39MOL   H17636732   3.032   0.036   7.470 -2.4575 -1.6655 -0.4886
   39MOL   H17736733   3.061   7.562   7.439 -0.4759  1.1160 -1.3988
   39MOL   H17836734   3.235   7.451   7.330  2.8659  0.3193 -3.0976
   39MOL   H17936735   3.342   7.423   7.459  1.7950  0.0226 -0.1312
   39MOL   H18036736   3.504   7.596   7.352 -1.1326  0.3798  0.5310
   39MOL   H18136737   3.395   7.625   7.236 -1.4102 -0.5711 -0.2358
   39MOL   H18236738   3.579   7.463   7.180  0.8329 -2.4432  0.4032
   39MOL   H18336739   3.519   7.343   7.283  2.5003  1.2027  0.8449
   39MOL   H18436740   3.303   7.323   7.159 -0.0483 -0.2514 -0.6835
   39MOL   H18536741   3.350   7.439   7.043 -3.8303  0.4871  2.3478
   39MOL   H18636742   3.533   7.295   6.956  0.5731 -1.1531  0.0025
   39MOL   H18736743   3.461   7.172   7.070  0.2674  1.0432  0.7678
   39MOL   H18836744   3.330   7.301   6.837 -1.1830  0.3824  0.2461
   39MOL   H18936745   3.247   7.201   6.946  0.3428  3.8305  0.6418
   39MOL   H19036746   3.413   7.020   6.910  0.6571  0.6144 -0.3633
   39MOL   H19136747   3.310   7.057   6.777 -0.1697 -0.6766  2.2689
   39MOL   H19236748   3.555   7.004   6.753  2.1239  0.0642 -4.5697
   39MOL   H19336749   3.599   7.166   6.794  1.4467 -0.1107 -2.9089
   39MOL   N19436750   3.573   7.075   6.513  0.3289 -0.2378  0.2828
   39MOL   C19536751   3.584   7.111   6.369 -0.4491  0.6449  0.3881
   39MOL   C19636752   3.565   6.991   6.274  0.2097 -0.1272  0.5886
   39MOL   C19736753   3.621   6.864   6.301 -0.4968  0.4816  0.0622
   39MOL   C19836754   3.605   6.762   6.218  0.4981  0.6468  0.4341
   39MOL   C19936755   3.526   6.773   6.103 -0.7151 -0.5652  0.3687
   39MOL   C20036756   3.478   6.900   6.067  0.1189  0.1923  0.0361
   39MOL   C20136757   3.496   7.015   6.152 -0.5723  0.5902 -0.6612
   39MOL   C20236758   3.444   7.150   6.111 -0.2006  0.7224 -0.0336
   39MOL   N20336759   3.422   7.170   5.968  0.4123  0.4689  0.1023
   39MOL   C20436760   3.315   7.243   5.925  0.0328  0.0283  0.3712
   39MOL   O20536761   3.228   7.289   5.999 -0.3428  0.3192  0.2537
   39MOL   C20636762   3.316   7.252   5.773 -0.5414  0.5677 -0.3991
   39MOL   C20736763   3.224   7.369   5.725 -0.2287  0.2059 -0.4429
   39MOL   C20836764   3.212   7.390   5.569  0.2771  1.0965 -0.3625
   39MOL   C20936765   3.193   7.256   5.490  0.7856  0.0207 -0.5004
   39MOL   C21036766   3.154   7.279   5.350  0.1398  0.2205 -0.4543
   39MOL   C21136767   3.129   7.136   5.282 -0.1312 -0.7337  0.0803
   39MOL   C21236768   3.121   7.153   5.135  0.3090 -0.7600 -0.2236
   39MOL   C21336769   3.011   7.247   5.068  0.4902 -0.4780  0.6197
   39MOL   C21436770   3.027   7.282   4.912 -0.5882  0.1201 -0.2052
   39MOL   O21536771   3.144   7.271   4.866  0.1541  0.3297  0.1483
   39MOL   H21636772   3.628   6.995   6.541 -3.4988 -3.2668 -0.3735
   39MOL   H21736773   3.516   7.194   6.351 -0.2894  1.2027  2.3014
   39MOL   H21836774   3.688   7.142   6.350 -0.1203  1.8176  3.8562
   39MOL   H21936775   3.672   6.848   6.395 -0.0921  0.2013 -0.2071
   39MOL   H22036776   3.647   6.666   6.246  0.8671  1.2600  2.0705
   39MOL   H22136777   3.513   6.689   6.036 -0.7815  0.9536 -1.5687
   39MOL   H22236778   3.423   6.897   5.974  1.1069 -0.3255 -0.5471
   39MOL   H22336779   3.522   7.220   6.141 -0.2318  0.5095  0.5683
   39MOL   H22436780   3.362   7.190   6.171  0.0637  1.2205 -0.0048
   39MOL   H22536781   3.475   7.117   5.901  1.0877  0.6710  0.4727
   39MOL   H22636782   3.295   7.154   5.730 -0.0756 -0.7197  2.2165
   39MOL   H22736783   3.422   7.266   5.752 -0.3430 -0.0610  0.1471
   39MOL   H22836784   3.125   7.346   5.763 -1.3796  1.7089 -2.4767
   39MOL   H22936785   3.263   7.455   5.780  1.0692 -1.4352  1.2826
   39MOL   H23036786   3.149   7.477   5.551  1.0160  1.6938 -0.0581
   39MOL   H23136787   3.309   7.434   5.547  1.4884 -1.0927  0.4933
   39MOL   H23236788   3.277   7.185   5.491  0.3739 -0.4626  1.0400
   39MOL   H23336789   3.111   7.219   5.550  0.5382  2.8029  0.9099
   39MOL   H23436790   3.080   7.358   5.332  0.5966  0.9814  0.9270
   39MOL   H23536791   3.239   7.329   5.302  0.5585  0.2674  0.3323
   39MOL   H23636792   3.035   7.100   5.325  0.7135 -0.9737  1.7694
   39MOL   H23736793   3.208   7.069   5.315  0.9050  0.1594 -0.5505
   39MOL   H23836794   3.101   7.054   5.094  1.2491 -2.3648  3.0312
   39MOL   H23936795   3.224   7.175   5.108  0.7924 -2.6993 -0.0843
   39MOL   H24036796   2.909   7.209   5.078 -0.5735  1.5677 -1.8909
   39MOL   H24136797   3.007   7.344   5.118  1.9550 -0.1514  0.1280
   39MOL   N24236798   2.923   7.312   4.833 -0.2331  0.4296  0.1836
   39MOL   C24336799   2.931   7.325   4.690 -0.0521 -0.1744 -0.6012
   39MOL   C24436800   2.888   7.210   4.606 -0.1292 -0.2790  0.5955
   39MOL   C24536801   2.884   7.082   4.670  0.0265  0.5368  0.1704
   39MOL   C24636802   2.833   6.970   4.613  0.0854  0.2637 -0.1204
   39MOL   C24736803   2.790   6.981   4.481 -0.2575 -0.5586 -0.2157
   39MOL   C24836804   2.819   7.097   4.404 -0.6230  0.0732 -0.4024
   39MOL   C24936805   2.857   7.216   4.467  0.5745  0.5230 -0.5165
   39MOL   C25036806   2.855   7.344   4.394  0.2462  0.3330  0.0679
   39MOL   N25136807   2.800   7.335   4.260  0.8513  0.4263 -0.0940
   39MOL   C25236808   2.765   7.442   4.189  0.0739 -0.7783  0.7345
   39MOL   O25336809   2.776   7.552   4.235  0.1550  0.4521 -0.1643
   39MOL   C25436810   2.689   7.422   4.051  0.5878  0.5809 -0.3124
   39MOL   C25536811   2.677   7.542   3.964 -0.9283  0.5729 -0.0855
   39MOL   C25636812   2.596   7.514   3.836 -0.3274 -0.3615  0.3477
   39MOL   C25736813   2.571   7.643   3.755  0.0412 -0.4755 -0.2314
   39MOL   C25836814   2.495   7.615   3.626  0.8303 -0.1889  0.4662
   39MOL   C25936815   2.484   7.734   3.530  0.5397  0.0943  0.0861
   39MOL   C26036816   2.394   7.708   3.408  0.1543 -0.3948 -0.1616
   39MOL   C26136817   2.440   7.595   3.310 -0.0157  0.5289  0.2945
   39MOL   C26236818   2.589   7.593   3.265 -0.0114  0.2728  0.5104
   39MOL   O26336819   2.633   7.689   3.210 -0.7406  0.3080 -0.9832
   39MOL   H26436820   2.835   7.326   4.881  1.3275  1.9277  2.7011
   39MOL   H26536821   2.872   7.412   4.662  0.3304  0.0262 -0.7813
   39MOL   H26636822   3.036   7.352   4.676  1.1509 -3.3621  1.6597
   39MOL   H26736823   2.907   7.080   4.776 -0.8510 -0.9675  0.3496
   39MOL   H26836824   2.843   6.878   4.667  1.4146  1.3481  1.5594
   39MOL   H26936825   2.746   6.897   4.430  2.3841 -1.9322 -0.2999
   39MOL   H27036826   2.804   7.081   4.298 -1.4474 -1.2368 -0.1068
   39MOL   H27136827   2.958   7.378   4.381  0.1852 -0.2333 -2.1081
   39MOL   H27236828   2.781   7.399   4.450  0.2208 -0.9342  1.3082
   39MOL   H27336829   2.770   7.242   4.235 -2.9758  1.2384  1.1883
   39MOL   H27436830   2.590   7.384   4.077  0.2109  1.2765 -0.7111
   39MOL   H27536831   2.731   7.338   3.996  1.1325 -0.1440  1.1903
   39MOL   H27636832   2.780   7.572   3.943 -1.2020  0.2645 -1.9713
   39MOL   H27736833   2.633   7.628   4.015  1.2600  0.9160  1.3225
   39MOL   H27836834   2.500   7.475   3.870 -0.2905 -0.4765  0.3194
   39MOL   H27936835   2.648   7.442   3.773  0.8362  1.4025 -0.7394
   39MOL   H28036836   2.501   7.707   3.809 -0.1820 -0.1949 -0.8473
   39MOL   H28136837   2.668   7.691   3.736  0.0894  0.0028  1.1532
   39MOL   H28236838   2.548   7.535   3.574 -0.7028 -0.4980 -0.6674
   39MOL   H28336839   2.396   7.576   3.649 -0.0898  1.5974 -0.3806
   39MOL   H28436840   2.580   7.773   3.495  2.1254 -2.2771  1.6769
   39MOL   H28536841   2.441   0.029   3.584  0.2681  0.2619 -0.3923
   39MOL   H28636842   2.305   7.667   3.456  0.2806  0.1375  0.5438
   39MOL   H28736843   2.368   0.012   3.359 -1.3283 -0.3439  0.6870
   39MOL   H28836844   2.445   7.499   3.362  1.8282 -0.1077 -0.9955
   39MOL   H28936845   2.375   7.583   3.223 -0.6989 -0.1619  0.8998
   39MOL   N29036846   2.661   7.480   3.276  0.1080 -0.0289  0.6251
   39MOL   C29136847   2.799   7.458   3.215 -0.7938 -0.6094 -0.3293
   39MOL   C29236848   2.912   7.537   3.284  0.6089  0.3019  0.8309
   39MOL   C29336849   2.889   7.613   3.403  0.5970 -0.3150 -0.7301
   39MOL   C29436850   2.985   7.701   3.452 -0.7946 -0.0216  0.4057
   39MOL   C29536851   3.104   7.729   3.386 -0.7247  0.6207  0.4198
   39MOL   C29636852   3.127   7.659   3.262  0.2382  0.4265  0.1980
   39MOL   C29736853   3.037   7.561   3.214 -0.7527  0.3679 -1.0750
   39MOL   C29836854   3.063   7.481   3.087 -0.1082 -0.9849  0.1614
   39MOL   N29936855   3.062   7.338   3.103  0.4700  0.2556  0.0418
   39MOL   C30036856   3.060   7.260   2.997  0.2289 -0.5751 -0.2784
   39MOL   O30136857   3.076   7.305   2.882  0.2193 -0.1521  0.5592
   39MOL   C30236858   3.045   7.109   3.024 -0.7542 -0.0026 -0.2851
   39MOL   C30336859   2.924   7.044   2.948  1.1482  0.1279  0.2950
   39MOL   C30436860   2.784   7.098   2.991  0.5231 -0.1301  0.5685
   39MOL   C30536861   2.666   7.050   2.903  0.4338  0.3508 -0.4291
   39MOL   C30636862   2.642   6.900   2.912 -1.0798 -0.2865  0.4258
   39MOL   C30736863   2.602   6.850   3.050  0.2074  0.2959 -0.4774
   39MOL   C30836864   2.497   6.737   3.042  0.1526 -0.1314  0.1650
   39MOL   C30936865   2.468   6.668   3.176  0.2789 -0.8284  0.5101
   39MOL   C31036866   2.427   6.517   3.156  0.9676  0.7846 -0.3093
   39MOL   O31136867   2.338   6.494   3.074 -0.0694  0.0138  0.3397
   39MOL   H31236868   2.618   7.395   3.309 -1.2733  0.9142  1.2928
   39MOL   H31336869   2.816   7.350   3.213  2.4280 -0.1441 -1.2840
   39MOL   H31436870   2.785   7.496   3.114  1.4489 -0.2704 -0.5376
   39MOL   H31536871   2.799   7.605   3.463  0.0681  0.5884 -1.3923
   39MOL   H31636872   2.966   7.760   3.541  0.6568  0.7001  0.2506
   39MOL   H31736873   3.169   0.017   3.425  1.2653 -0.9672  0.3959
   39MOL   H31836874   3.210   7.685   3.198  0.7538 -0.9393  0.2793
   39MOL   H31936875   3.157   7.506   3.039 -0.0255 -2.0199 -0.2274
   39MOL   H32036876   2.988   7.501   3.010  0.9789  2.4631 -0.0542
   39MOL   H32136877   3.059   7.303   3.198  0.5072 -1.4169 -0.5698
   39MOL   H32236878   3.137   7.053   3.007  1.1995  2.5339  1.5305
   39MOL   H32336879   3.033   7.097   3.132 -2.7769 -0.2323 -0.5183
   39MOL   H32436880   2.927   6.938   2.970 -0.4069 -0.0250 -0.1891
   39MOL   H32536881   2.944   7.050   2.841  0.5709 -0.4420  0.1523
   39MOL   H32636882   2.776   7.206   2.991  0.3623 -0.1038 -2.2969
   39MOL   H32736883   2.760   7.077   3.095 -0.4735  2.1065  0.8120
   39MOL   H32836884   2.574   7.100   2.931  0.3332  0.1115 -0.3276
   39MOL   H32936885   2.681   7.069   2.796 -1.6462 -2.2497 -1.2400
   39MOL   H33036886   2.557   6.882   2.846 -3.5616  1.1960  3.0981
   39MOL   H33136887   2.721   6.841   2.866 -1.6967 -1.0002  0.2711
   39MOL   H33236888   2.577   6.937   3.111  1.9337  0.4669 -0.0049
   39MOL   H33336889   2.698   6.811   3.084 -0.9427 -0.1196  2.4255
   39MOL   H33436890   2.408   6.773   2.991 -0.7038 -0.0261  1.7322
   39MOL   H33536891   2.542   6.659   2.979  0.5930  1.6079 -1.7544
   39MOL   H33636892   2.561   6.671   3.232  0.4307 -2.5630  0.3644
   39MOL   H33736893   2.389   6.727   3.224 -0.7073 -0.1436 -1.8673
   39MOL   N33836894   2.478   6.427   3.236 -0.4213 -1.2408 -0.4478
   39MOL   C33936895   2.440   6.297   3.237  0.2964  0.1099 -0.0250
   39MOL   C34036896   2.543   6.201   3.299 -0.3689 -0.1512  0.2317
   39MOL   C34136897   2.670   6.211   3.235  0.3118 -0.1257  1.0116
   39MOL   C34236898   2.775   6.134   3.281  0.2636 -0.6962 -0.0224
   39MOL   C34336899   2.748   6.050   3.394  0.1459  0.1209  0.2379
   39MOL   C34436900   2.623   6.030   3.449 -0.4165 -0.4576 -0.1246
   39MOL   C34536901   2.516   6.111   3.402 -0.0985  0.6345 -1.0479
   39MOL   C34636902   2.375   6.110   3.455  0.0457  0.2668 -0.2717
   39MOL   N34736903   2.349   6.016   3.558  0.4447  0.1012  0.5611
   39MOL   C34836904   2.244   5.934   3.568  1.0001 -0.9028  0.3459
   39MOL   O34936905   2.153   5.922   3.485  0.1366 -0.6372 -0.6574
   39MOL   C35036906   2.233   5.841   3.690 -0.2181  0.3644  0.3315
   39MOL   C35136907   2.287   5.704   3.647 -0.0973  0.2713 -0.2406
   39MOL   C35236908   2.235   5.645   3.517 -0.3220 -0.2724  0.4094
   39MOL   C35336909   2.280   5.496   3.491  0.1190 -0.6878 -0.3363
   39MOL   C35436910   2.201   5.432   3.374 -0.3152  0.0257  0.3735
   39MOL   C35536911   2.258   5.296   3.328 -0.7240 -0.1905  0.6330
   39MOL   C35636912   2.197   5.245   3.190 -0.0188  0.5241 -0.2911
   39MOL   C35736913   2.052   5.210   3.204 -0.1800  0.0325 -0.4275
   39MOL   C35836914   2.034   5.080   3.278 -0.4045 -0.0378  0.0894
   39MOL   O35936915   2.113   4.986   3.277 -0.6035 -0.3732  0.2323
   39MOL   H36036916   2.551   6.450   3.303  0.1097  0.8501 -1.7138
   39MOL   H36136917   2.338   6.299   3.277  0.2462 -0.7476 -0.0885
   39MOL   H36236918   2.414   6.264   3.136  1.2938  0.0157 -0.2563
   39MOL   H36336919   2.691   6.282   3.157 -0.1156 -1.5752 -0.4577
   39MOL   H36436920   2.873   6.135   3.236 -1.5180  0.6616 -4.0528
   39MOL   H36536921   2.825   5.982   3.429 -0.1694 -0.5665 -0.3986
   39MOL   H36636922   2.613   5.948   3.518 -2.2344 -2.0901 -2.2345
   39MOL   H36736923   2.307   6.078   3.376 -0.7709  0.2521  0.4281
   39MOL   H36836924   2.340   6.209   3.483  1.1787  0.7570 -0.5795
   39MOL   H36936925   2.409   6.031   3.638 -0.7688 -0.1101  1.5313
   39MOL   H37036926   2.129   5.828   3.718 -1.4021  3.5602 -2.2816
   39MOL   H37136927   2.292   5.871   3.776  1.0380 -1.1174  0.0092
   39MOL   H37236928   2.273   5.628   3.724  0.7760 -0.4031 -0.7343
   39MOL   H37336929   2.396   5.708   3.648 -0.1084  0.9770 -1.1528
   39MOL   H37436930   2.128   5.664   3.511  0.0661  1.2191 -2.6808
   39MOL   H37536931   2.286   5.692   3.433  0.9338  1.8581  2.2840
   39MOL   H37636932   2.251   5.442   3.581 -0.3515  1.5133  0.8612
   39MOL   H37736933   2.388   5.492   3.477  0.1530 -1.3024  0.0737
   39MOL   H37836934   2.093   5.436   3.380 -0.3736  0.3832 -0.8757
   39MOL   H37936935   2.203   5.496   3.286 -0.7535 -0.1965  0.2069
   39MOL   H38036936   2.250   5.214   3.399 -0.1933  0.9338  2.0054
   39MOL   H38136937   2.366   5.311   3.319 -0.9381  2.2727  1.6459
   39MOL   H38236938   2.207   5.320   3.112 -1.9448  2.5104  1.2935
   39MOL   H38336939   2.239   5.152   3.153 -0.9851 -0.9730  2.2413
   39MOL   H38436940   2.009   5.195   3.105 -0.8483  0.5381 -0.2143
   39MOL   H38536941   1.987   5.289   3.241 -0.4490  0.0654 -0.9662
   39MOL   N38636942   1.935   5.073   3.363  0.1890  0.3343 -0.7618
   39MOL   C38736943   1.904   4.954   3.445  0.2388  1.1898  1.1994
   39MOL   C38836944   1.784   4.968   3.537  0.1507  0.4211 -0.4304
   39MOL   C38936945   1.777   5.080   3.619  0.4762 -0.5530  0.0737
   39MOL   C39036946   1.665   5.104   3.700 -0.0695  0.6054  0.3102
   39MOL   C39136947   1.561   5.014   3.705  0.4637  0.1456 -0.1067
   39MOL   C39236948   1.574   4.886   3.641  0.0235  0.4454  0.0110
   39MOL   C39336949   1.685   4.866   3.553 -0.3710 -0.7067 -0.3290
   39MOL   C39436950   1.698   4.736   3.480  0.1473  0.2620  0.2548
   39MOL   N39536951   1.649   4.619   3.562  0.2349 -0.6779  0.2351
   39MOL   C39636952   1.729   4.540   3.628  0.5699 -0.2237  0.0652
   39MOL   O39736953   1.852   4.557   3.633 -0.0539  0.2244  0.8775
   39MOL   C39836954   1.666   4.411   3.690 -0.7037 -0.1677  0.1813
   39MOL   C39936955   1.662   4.291   3.597  0.2333  0.5528 -0.1107
   39MOL   C40036956   1.789   4.224   3.574 -0.1719  0.0921 -0.3832
   39MOL   C40136957   1.853   4.179   3.706 -0.4424  0.1392 -0.5184
   39MOL   C40236958   1.956   4.063   3.686 -0.6191 -0.1495  0.2471
   39MOL   C40336959   2.009   4.020   3.823  0.4553  0.2268  0.1065
   39MOL   C40436960   2.090   3.888   3.811 -0.3216 -0.2585 -0.5283
   39MOL   C40536961   2.243   3.893   3.784  0.4073  0.8458 -0.4735
   39MOL   C40636962   2.308   3.755   3.788  0.1479  0.2808  0.0747
   39MOL   O40736963   2.290   3.679   3.692  0.0301 -0.5100  0.2879
   39MOL   H40836964   1.883   5.158   3.381  0.7364  0.8206 -1.4523
   39MOL   H40936965   1.886   4.869   3.380 -1.0980  2.3807 -0.0331
   39MOL   H41036966   1.985   4.934   3.515 -1.0709 -0.1010  2.3924
   39MOL   H41136967   1.849   5.160   3.614 -0.2289  0.4436  4.0841
   39MOL   H41236968   1.663   5.192   3.763  0.6983  0.9841 -0.1729
   39MOL   H41336969   1.479   5.044   3.769 -0.7616  0.5430 -1.8265
   39MOL   H41436970   1.498   4.811   3.656 -1.1546  1.1653 -2.0344
   39MOL   H41536971   1.796   4.706   3.443  0.4132 -0.3048  1.4126
   39MOL   H41636972   1.639   4.747   3.389  0.5675  2.5366  0.2138
   39MOL   H41736973   1.553   4.621   3.595 -0.0680  0.6938 -0.6607
   39MOL   H41836974   1.716   4.393   3.785 -0.3498 -0.6178 -0.0909
   39MOL   H41936975   1.564   4.428   3.725 -0.1412  0.7100  1.4264
   39MOL   H42036976   1.632   4.339   3.504  1.4036  0.3501 -0.6114
   39MOL   H42136977   1.586   4.217   3.623  0.2539  0.8117  0.7017
   39MOL   H42236978   1.857   4.296   3.529 -1.0689  0.8015 -0.6282
   39MOL   H42336979   1.774   4.147   3.497  0.9357  2.3894 -2.9971
   39MOL   H42436980   1.901   4.259   3.764 -0.8087 -0.2900  0.3891
   39MOL   H42536981   1.769   4.136   3.761  0.7637 -0.7607  0.6758
   39MOL   H42636982   1.912   3.975   3.639 -1.6808  1.7456 -2.4004
   39MOL   H42736983   2.039   4.096   3.624 -0.4107 -0.8029  0.1674
   39MOL   H42836984   1.932   4.007   3.899  0.7510  2.5349  0.8292
   39MOL   H42936985   2.090   4.087   3.850  0.2738  0.8003 -0.7662
   39MOL   H43036986   2.054   3.821   3.733  0.2931 -0.1412 -0.9186
   39MOL   H43136987   2.075   3.842   3.908  0.1386 -0.9183 -0.7686
   39MOL   H43236988   2.291   3.962   3.854 -1.5993  0.9414  0.8753
   39MOL   H43336989   2.259   3.934   3.684  1.6272  1.4572 -0.0309
   39MOL   N43436990   2.377   3.722   3.901 -0.1712 -0.4812  0.3254
   39MOL   C43536991   2.447   3.589   3.923  1.1340 -0.6459 -0.5057
   39MOL   C43636992   2.559   3.599   4.036  0.5727 -0.3258 -0.0175
   39MOL   C43736993   2.677   3.668   3.992 -0.4372 -0.1849  0.4925
   39MOL   C43836994   2.785   3.677   4.082 -0.0160 -0.1463 -0.8002
   39MOL   C43936995   2.771   3.630   4.215 -0.4241 -0.0255  0.1153
   39MOL   C44036996   2.652   3.576   4.257  0.3015 -1.1962  0.5929
   39MOL   C44136997   2.540   3.553   4.171 -0.1403 -0.0726 -0.0040
   39MOL   C44236998   2.411   3.497   4.229 -0.1862  0.1059  0.3486
   39MOL   N44336999   2.425   3.372   4.305 -0.3228  0.3860 -0.1800
   39MOL   C44437000   2.383   3.358   4.430 -0.4511 -0.0683 -0.3075
   39MOL   O44537001   2.362   3.455   4.506 -0.1264 -0.3166 -0.9410
   39MOL   C44637002   2.377   3.220   4.474  0.3386 -0.8294  0.4897
   39MOL   C44737003   2.499   3.129   4.460  0.1864  0.9106  0.0256
   39MOL   C44837004   2.618   3.152   4.550  0.1294 -0.4194 -0.0182
   39MOL   C44937005   2.746   3.076   4.521 -0.6338  0.5981 -0.1036
   39MOL   C45037006   2.733   2.935   4.565  0.6328 -0.5077  0.3805
   39MOL   C45137007   2.813   2.899   4.693  0.6245  0.0767  0.2913
   39MOL   C45237008   2.792   2.987   4.815 -0.0023 -0.2503  0.0614
   39MOL   C45337009   2.897   2.955   4.920 -0.6837 -0.4230  0.0006
   39MOL   C45437010   3.034   3.020   4.889 -0.5753 -0.1711  0.2811
   39MOL   O45537011   3.054   3.095   4.795  0.5610  0.6468 -0.8858
   39MOL   H45637012   2.382   3.784   3.981 -1.5949  1.7894 -1.2918
   39MOL   H45737013   2.491   3.562   3.827 -0.8326 -0.9734 -1.3253
   39MOL   H45837014   2.375   3.510   3.941  2.7046 -1.5101  2.3479
   39MOL   H45937015   2.690   3.696   3.889  0.7829  2.1722  1.2190
   39MOL   H46037016   2.881   3.717   4.051  1.5282  0.0563  3.7276
   39MOL   H46137017   2.856   3.637   4.282  0.8906  1.4588 -1.6475
   39MOL   H46237018   2.636   3.543   4.358  0.4769  1.3934  1.4746
   39MOL   H46337019   2.353   3.456   4.146 -1.9378  0.4176  1.3889
   39MOL   H46437020   2.358   3.567   4.293 -0.7024 -0.3290  0.4125
   39MOL   H46537021   2.442   3.286   4.255 -1.6718  0.1945 -0.3353
   39MOL   H46637022   2.284   3.177   4.439 -0.6022  1.6330 -0.1058
   39MOL   H46737023   2.363   3.224   4.582 -1.0271  0.2653  0.2762
   39MOL   H46837024   2.540   3.113   4.360  1.2371  1.1919  0.4057
   39MOL   H46937025   2.472   3.028   4.489  1.6489  0.3362 -0.5565
   39MOL   H47037026   2.641   3.257   4.530  0.6030 -0.2081  1.5520
   39MOL   H47137027   2.592   3.136   4.654 -0.0799 -1.2489 -0.1989
   39MOL   H47237028   2.776   3.089   4.417  1.6889  0.7202  0.5437
   39MOL   H47337029   2.836   3.114   4.569 -1.6317  0.3664  1.9952
   39MOL   H47437030   2.626   2.924   4.582  0.6109  1.6516  1.8748
   39MOL   H47537031   2.765   2.875   4.480 -3.1233 -1.4469 -0.4352
   39MOL   H47637032   2.918   2.906   4.664  0.8362  0.6757  1.1818
   39MOL   H47737033   2.790   2.796   4.723 -0.4643 -0.2052 -1.4580
   39MOL   H47837034   2.811   3.092   4.793  0.0949 -0.6445 -1.8059
   39MOL   H47937035   2.693   2.973   4.859  0.0299 -1.2594 -0.1962
   39MOL   H48037036   2.852   2.993   5.012  0.8166  1.7693 -0.1237
   39MOL   H48137037   2.923   2.850   4.934 -2.6093 -0.8818  0.3339
   39MOL   N48237038   3.133   2.994   4.976  0.4013 -0.5328  0.6366
   39MOL   C48337039   3.270   3.033   4.962 -0.3718 -0.3593  0.6343
   39MOL   C48437040   3.310   3.177   5.021  0.1399 -0.0193 -0.1225
   39MOL   C48537041   3.214   3.282   5.035  0.5450  0.6102 -0.5902
   39MOL   C48637042   3.245   3.408   5.089 -0.8070 -0.7983 -0.4159
   39MOL   C48737043   3.380   3.429   5.128  0.2091  0.6036 -0.6800
   39MOL   C48837044   3.478   3.326   5.114  0.3573  0.0406  0.4648
   39MOL   C48937045   3.446   3.199   5.063 -0.4566 -0.7908 -0.0856
   39MOL   C49037046   3.554   3.092   5.058 -0.7841  0.2784  0.8677
   39MOL   N49137047   3.584   3.062   4.921  0.6737 -0.4552  0.5084
   39MOL   C49237048   3.666   2.963   4.872 -0.1955  0.4974 -0.5828
   39MOL   O49337049   3.743   2.894   4.943  0.0333 -0.4471 -0.0002
   39MOL   C49437050   3.664   2.951   4.722  0.4431 -0.2592 -0.1353
   39MOL   C49537051   3.794   2.984   4.658  0.4303  0.1298  0.0958
   39MOL   C49637052   3.827   3.132   4.634  0.2337  0.1343 -0.0117
   39MOL   C49737053   3.870   3.209   4.760  0.0297 -0.6127 -0.0065
   39MOL   C49837054   3.907   3.353   4.711  0.0776 -0.6068 -0.3721
   39MOL   C49937055   3.953   3.438   4.826 -0.2692 -0.4249 -0.4628
   39MOL   C50037056   3.999   3.579   4.784 -1.2790 -0.1138  0.3840
   39MOL   C50137057   4.056   3.669   4.900 -0.6398  0.5318  0.6144
   39MOL   C50237058   4.021   3.816   4.877 -0.4708  0.5303  0.0060
   39MOL   O50337059   4.083   3.890   4.793 -0.2197 -0.1402  0.2191
   39MOL   H50437060   3.110   2.945   5.060 -1.3322  1.0788  1.1381
   39MOL   H50537061   3.333   2.960   5.012  1.0890  1.0617  0.8859
   39MOL   H50637062   3.300   3.048   4.858 -1.0370  2.5782  0.8284
   39MOL   H50737063   3.115   3.274   4.991  0.1145 -0.4120  0.5582
   39MOL   H50837064   3.176   3.490   5.096 -0.3692 -0.4380 -0.2930
   39MOL   H50937065   3.415   3.524   5.168  0.0277  0.2314  0.3805
   39MOL   H51037066   3.577   3.348   5.150  0.4414  0.7232 -0.1681
   39MOL   H51137067   3.511   3.010   5.115  0.7082 -0.6644  0.6662
   39MOL   H51237068   3.641   3.133   5.108  0.9779 -0.1333 -1.7830
   39MOL   H51337069   3.530   3.121   4.859  2.7720  0.0361 -0.9204
   39MOL   H51437070   3.568   2.991   4.691 -0.3411 -0.7463  1.5862
   39MOL   H51537071   3.653   2.844   4.705  0.4671 -0.4192  0.8033
   39MOL   H51637072   3.787   2.934   4.561 -0.9414 -1.1100  0.8229
   39MOL   H51737073   3.877   2.950   4.720  1.2752  1.0766 -0.4954
   39MOL   H51837074   3.909   3.145   4.564  2.5316  0.7776  2.6670
   39MOL   H51937075   3.747   3.180   4.578  0.2217 -0.1762 -0.2611
   39MOL   H52037076   3.787   3.219   4.830 -0.4717 -2.2025 -0.3661
   39MOL   H52137077   3.960   3.170   4.808  0.6428 -1.0994 -1.5279
   39MOL   H52237078   3.991   3.353   4.642 -1.0864  0.4646 -1.8020
   39MOL   H52337079   3.830   3.410   4.660  0.5598  1.5331  1.2076
   39MOL   H52437080   4.035   3.382   4.872  0.7636  1.0070 -0.5476
   39MOL   H52537081   3.874   3.454   4.900  0.7469 -1.3490  0.8435
   39MOL   H52637082   4.076   3.567   4.708 -2.7014  0.0002 -1.0899
   39MOL   H52737083   3.924   3.634   4.728  0.8123  0.8388 -1.5596
   39MOL   H52837084   4.164   3.653   4.897 -0.5675  1.0494  0.3074
   39MOL   H52937085   4.022   3.625   4.994  1.6051 -1.3711  0.5775
   39MOL   N53037086   3.935   3.865   4.963 -0.4778  0.5671  0.7660
   39MOL   C53137087   3.887   4.005   4.963 -0.5601  0.3155 -0.1180
   39MOL   C53237088   3.842   4.057   5.098  0.3522 -0.1356 -0.4679
   39MOL   C53337089   3.839   3.975   5.211 -0.7915  0.1009 -0.7343
   39MOL   C53437090   3.806   4.042   5.335 -0.0642  0.0434  0.4350
   39MOL   C53537091   3.774   4.176   5.347  0.1597  0.3607 -0.1001
   39MOL   C53637092   3.787   4.258   5.238  0.5165 -0.1570 -0.9381
   39MOL   C53737093   3.826   4.203   5.115  0.0920  0.1657  0.6362
   39MOL   C53837094   3.852   4.289   4.994  0.4103  0.2185 -0.0702
   39MOL   N53937095   3.820   4.428   5.005  0.3850 -0.0730  0.4057
   39MOL   C54037096   3.710   4.487   4.949  0.3158 -0.6225  0.3010
   39MOL   O54137097   3.617   4.430   4.895 -0.0386 -0.1971 -0.4371
   39MOL   C54237098   3.701   4.643   4.956 -0.6975 -0.2067  0.1043
   39MOL   C54337099   3.706   4.704   4.811  0.5915 -0.4927  0.4096
   39MOL   C54437100   3.848   4.748   4.779 -0.7824 -0.2764  0.4738
   39MOL   C54537101   3.853   4.791   4.631 -0.3024  0.3333  0.6666
   39MOL   C54637102   3.994   4.834   4.582  0.7382 -0.4228 -0.8562
   39MOL   C54737103   4.013   4.795   4.435 -0.1724  0.6578 -0.3154
   39MOL   C54837104   4.136   4.855   4.371  0.3815  0.3270  0.2562
   39MOL   C54937105   4.172   4.806   4.225 -0.4297 -0.8215 -0.1357
   39MOL   C55037106   4.226   4.917   4.135  0.5778 -0.0193  0.0749
   39MOL   O55137107   4.308   5.003   4.169  0.2597  0.4414 -0.1448
   39MOL   H55237108   3.912   3.800   5.037 -2.6488 -2.1274 -2.1528
   39MOL   H55337109   3.803   4.019   4.894 -0.1429  0.0997 -0.6783
   39MOL   H55437110   3.971   4.064   4.926 -0.4923  0.6790  0.6161
   39MOL   H55537111   3.860   3.869   5.211 -2.7534 -0.3398  0.9090
   39MOL   H55637112   3.810   3.994   5.431  0.0524  0.4610  0.6359
   39MOL   H55737113   3.738   4.211   5.443 -1.2180 -1.3483  0.0448
   39MOL   H55837114   3.769   4.364   5.246  0.6473 -0.2216  0.3283
   39MOL   H55937115   3.802   4.257   4.903 -0.7335 -0.2826  0.7265
   39MOL   H56037116   3.958   4.284   4.967  0.4123  0.5193 -0.1221
   39MOL   H56137117   3.891   4.492   5.037 -0.6877  0.4339  1.7874
   39MOL   H56237118   3.787   4.674   5.015 -1.6894 -0.3491  1.6794
   39MOL   H56337119   3.601   4.661   4.997 -0.6465  0.5472 -0.1017
   39MOL   H56437120   3.640   4.790   4.799 -0.0881 -1.1635 -0.7472
   39MOL   H56537121   3.668   4.627   4.744  0.9983 -0.7024  0.4186
   39MOL   H56637122   3.882   4.827   4.847  2.6284 -0.0476 -1.3822
   39MOL   H56737123   3.910   4.659   4.788 -0.4472 -0.0941  0.0195
   39MOL   H56837124   3.818   4.706   4.574  1.3348 -0.9994  1.5986
   39MOL   H56937125   3.779   4.870   4.619 -0.4628 -0.2035 -2.2081
   39MOL   H57037126   4.004   4.942   4.576  3.7316 -0.5790  0.4508
   39MOL   H57137127   4.074   4.813   4.653 -1.1132 -2.1187  0.8068
   39MOL   H57237128   3.927   4.830   4.376  2.4978  2.6029 -3.2196
   39MOL   H57337129   4.016   4.687   4.425 -3.0133  0.0627  3.8293
   39MOL   H57437130   4.117   4.962   4.381 -1.9353 -0.1558  1.4671
   39MOL   H57537131   4.227   4.839   4.428  2.2243 -0.0958 -2.7073
   39MOL   H57637132   4.091   4.744   4.187  0.4328 -1.5477 -0.8016
   39MOL   H57737133   4.248   4.732   4.251  1.3373  1.8747  2.8267
   39MOL   N57837134   4.169   4.908   4.015  0.2765 -0.1850 -0.0632
   39MOL   C57937135   4.195   5.002   3.908 -0.4419 -0.9231 -0.1071
   39MOL   C58037136   4.118   5.128   3.933 -0.0382  0.4279  0.1103
   39MOL   C58137137   4.189   5.244   3.975  0.3202  0.4385 -0.2075
   39MOL   C58237138   4.125   5.367   3.995  0.2396  0.5591  0.4290
   39MOL   C58337139   3.988   5.384   3.978  0.8670  1.0453  0.2196
   39MOL   C58437140   3.917   5.270   3.934 -0.5524 -0.0314 -0.3620
   39MOL   C58537141   3.976   5.143   3.914 -0.2067 -0.5541 -0.6479
   39MOL   C58637142   3.886   5.028   3.880 -0.3978 -0.0496 -0.0247
   39MOL   N58737143   3.824   4.955   3.992 -0.2155 -0.4089 -0.3271
   39MOL   C58837144   3.833   4.824   4.021 -0.2960  0.2951 -0.1081
   39MOL   O58937145   3.916   4.750   3.968 -0.3318  0.4553  0.1877
   39MOL   C59037146   3.737   4.772   4.138 -0.5100 -0.1858  0.2955
   39MOL   C59137147   3.640   4.654   4.094 -0.5502  1.0496  0.1871
   39MOL   C59237148   3.708   4.512   4.066 -0.0933  0.1700 -0.7199
   39MOL   C59337149   3.631   4.399   3.988 -0.7357 -0.2182  0.4263
   39MOL   C59437150   3.728   4.287   3.927 -0.3446  0.1980 -0.2754
   39MOL   C59537151   3.651   4.186   3.852  0.2397 -1.2426  0.0455
   39MOL   C59637152   3.741   4.071   3.800  0.4477  0.6285  0.5457
   39MOL   C59737153   3.677   3.978   3.690  0.5103  0.4263  0.1722
   39MOL   C59837154   3.741   3.846   3.666 -1.0569  0.5274  0.1532
   39MOL   O59937155   3.860   3.822   3.654  0.4037  0.2303  0.2288
   39MOL   H60037156   4.099   4.836   4.002 -0.0716  0.0290  0.6373
   39MOL   H60137157   4.156   4.970   3.811 -2.6759  1.8750 -0.1886
   39MOL   H60237158   4.301   5.021   3.895 -0.4844  0.0713  0.9617
   39MOL   H60337159   4.294   5.242   4.001  0.5249 -0.1232 -1.0421
   39MOL   H60437160   4.173   5.462   4.012  0.6025  0.5417 -0.4517
   39MOL   H60537161   3.943   5.482   3.977 -1.4541  0.0568  1.5610
   39MOL   H60637162   3.814   5.281   3.902 -0.1190  1.5693 -1.2752
   39MOL   H60737163   3.931   4.965   3.803 -0.0455  1.7153 -1.2763
   39MOL   H60837164   3.807   5.075   3.822 -1.2999 -0.4850  0.8374
   39MOL   H60937165   3.762   5.014   4.046  1.0447 -0.3232  1.0609
   39MOL   H61037166   3.677   4.855   4.174 -1.3781 -0.9907  0.7180
   39MOL   H61137167   3.798   4.739   4.222 -0.6991 -5.2741 -1.3953
   39MOL   H61237168   3.587   4.690   4.006  2.1345  0.9346 -1.5480
   39MOL   H61337169   3.557   4.643   4.164 -0.2203 -0.9544  0.2987
   39MOL   H61437170   3.800   4.518   4.008 -0.1166 -0.6425 -0.8346
   39MOL   H61537171   3.734   4.482   4.167  0.5655  0.1549 -0.8892
   39MOL   H61637172   3.565   4.356   4.063 -0.3668  2.7853  2.5534
   39MOL   H61737173   3.578   4.444   3.904 -0.6522 -1.2200 -0.1776
   39MOL   H61837174   3.789   4.350   3.862  0.6970  0.5046  0.9808
   39MOL   H61937175   3.795   4.252   4.006 -0.4440 -1.5510 -0.9526
   39MOL   H62037176   3.592   4.225   3.769  0.8287 -0.2333  0.0947
   39MOL   H62137177   3.572   4.145   3.916 -0.7267 -0.4205 -0.6105
   39MOL   H62237178   3.827   4.114   3.748  0.6916  0.7550  1.0515
   39MOL   H62337179   3.763   4.005   3.884 -2.4181 -0.6678  0.3262
   39MOL   H62437180   3.570   3.980   3.707  0.0842 -0.8963 -2.0759
   39MOL   H62537181   3.673   4.039   3.599 -0.7602 -2.7738 -2.0188
   39MOL   N62637182   3.651   3.750   3.649  0.2467  0.0776 -0.6981
   39MOL   C62737183   3.678   3.619   3.584 -0.9326 -0.2013  0.7072
   39MOL   C62837184   3.578   3.509   3.589  0.4615  0.5133  0.1404
   39MOL   C62937185   3.596   3.386   3.662 -0.0591 -0.1368 -0.1394
   39MOL   C63037186   3.484   3.297   3.686  0.2316 -0.5508  0.4153
   39MOL   C63137187   3.360   3.318   3.629 -0.5452  0.5306  0.3472
   39MOL   C63237188   3.343   3.437   3.547 -0.5115  0.2224 -0.7369
   39MOL   C63337189   3.446   3.529   3.526  0.8717 -0.5659 -1.1767
   39MOL   C63437190   3.408   3.658   3.438  0.0278  0.0218 -1.0020
   39MOL   N63537191   3.440   3.637   3.297  0.5378 -0.4480 -0.3925
   39MOL   C63637192   3.507   3.729   3.226  0.0160  0.1057  0.4656
   39MOL   O63737193   3.562   3.828   3.279 -0.1700  0.3152  0.0533
   39MOL   C63837194   3.521   3.700   3.074 -0.0199 -0.0593  0.0946
   39MOL   C63937195   3.493   3.812   2.977  1.0415 -0.3351 -0.5182
   39MOL   C64037196   3.496   3.768   2.833 -0.4985  0.4718 -0.1995
   39MOL   C64137197   3.636   3.725   2.790 -0.2904  0.5289  0.7851
   39MOL   C64237198   3.658   3.760   2.639  0.6048  0.3032 -0.0387
   39MOL   C64337199   3.794   3.706   2.584  0.6037  0.3773 -0.3059
   39MOL   C64437200   3.807   3.745   2.435 -0.1460  0.5480  0.1743
   39MOL   C64537201   3.950   3.755   2.386  0.4746 -0.1125 -0.5233
   39MOL   C64637202   4.038   3.630   2.379 -0.3036 -0.1367  0.1222
   39MOL   O64737203   3.996   3.515   2.414 -0.2252 -0.1750 -0.6935
   39MOL   H64837204   3.552   3.769   3.653 -0.2337 -2.0439 -1.6585
   39MOL   H64937205   3.776   3.586   3.618 -0.5579 -1.7258 -1.7197
   39MOL   H65037206   3.704   3.640   3.480 -1.2485 -2.1369  0.2165
   39MOL   H65137207   3.691   3.359   3.705 -0.1494  2.0197  1.5075
   39MOL   H65237208   3.505   3.213   3.750  1.7154 -2.6060 -2.6639
   39MOL   H65337209   3.271   3.260   3.649 -0.2109  0.6053  2.1554
   39MOL   H65437210   3.244   3.445   3.505 -0.8172  1.5811  0.2224
   39MOL   H65537211   3.466   3.739   3.485  0.4752 -1.5202  1.1846
   39MOL   H65637212   3.301   3.672   3.450  0.0468 -0.0578 -0.7303
   39MOL   H65737213   3.376   3.571   3.255 -0.1824  0.9439 -1.5186
   39MOL   H65837214   3.461   3.613   3.048  1.7810 -1.3623  0.2726
   39MOL   H65937215   3.628   3.680   3.069 -0.2164 -1.0869 -0.1233
   39MOL   H66037216   3.555   3.897   3.005 -0.2768  0.3755  0.2946
   39MOL   H66137217   3.394   3.852   2.998  0.9193 -0.8393 -0.1121
   39MOL   H66237218   3.422   3.689   2.815 -0.8734  1.1685 -1.8242
   39MOL   H66337219   3.458   3.851   2.774  0.9661  1.1375 -0.2107
   39MOL   H66437220   3.696   3.788   2.855 -0.8700  2.3521 -0.4369
   39MOL   H66537221   3.646   3.618   2.809 -0.4512  0.2076 -0.8817
   39MOL   H66637222   3.580   3.707   2.585  0.8252 -1.1884  1.0749
   39MOL   H66737223   3.649   3.867   2.621  1.0384  0.3783  0.1681
   39MOL   H66837224   3.823   3.602   2.601  2.0821  0.7820 -0.2582
   39MOL   H66937225   3.873   3.760   2.637  0.4824  0.5106 -0.2627
   39MOL   H67037226   3.765   3.667   2.372  0.3158 -0.0796  0.6407
   39MOL   H67137227   3.762   3.842   2.413 -1.3470  0.3222  1.5222
   39MOL   H67237228   3.998   3.838   2.438 -0.5190 -0.3435  0.7879
   39MOL   H67337229   3.956   3.775   2.279  1.2677 -1.6929 -0.7867
   39MOL   N67437230   4.172   3.646   2.345  0.4301 -0.1009 -0.2424
   39MOL   C67537231   4.260   3.535   2.335  0.7076  0.6212  0.3992
   39MOL   C67637232   4.414   3.562   2.342 -0.2684  0.4286  0.6544
   39MOL   C67737233   4.462   3.670   2.421  0.5249  0.3247 -0.0897
   39MOL   C67837234   4.597   3.709   2.425  0.4687 -0.3098  0.5377
   39MOL   C67937235   4.695   3.626   2.364  0.0367 -0.1792  0.0449
   39MOL   C68037236   4.654   3.509   2.292  0.4544 -0.1314 -0.0056
   39MOL   C68137237   4.513   3.482   2.288 -0.8519  0.5274  0.6101
   39MOL   C68237238   4.482   3.355   2.211  0.1353 -0.1759 -0.9903
   39MOL   N68337239   4.481   3.367   2.069 -0.4512 -0.0951 -0.3728
   39MOL   C68437240   4.545   3.284   1.991 -0.8213 -0.4698  0.4381
   39MOL   O68537241   4.605   3.184   2.031 -0.2518  0.1629  0.3345
   39MOL   C68637242   4.511   3.302   1.847 -0.4458 -0.3392  0.5070
   39MOL   C68737243   4.433   3.182   1.786 -0.3657  0.1845  0.8149
   39MOL   C68837244   4.283   3.217   1.770 -0.2154  0.9451 -0.3738
   39MOL   C68937245   4.201   3.095   1.715  0.1044 -0.0815 -0.1251
   39MOL   C69037246   4.175   2.996   1.834 -0.1809 -0.2424  0.3254
   39MOL   C69137247   4.147   2.853   1.792 -0.7747  0.1962  0.0559
   39MOL   C69237248   4.268   2.784   1.720 -0.6083  0.4487 -0.1892
   39MOL   C69337249   4.264   2.634   1.684 -0.5508  0.5003  0.1225
   39MOL   C69437250   4.149   2.596   1.586 -0.2017  0.3837 -0.3583
   39MOL   O69537251   4.171   2.631   1.466 -0.3897 -0.0052  0.1594
   39MOL   H69637252   4.215   3.738   2.343 -0.0317  0.3507  4.7016
   39MOL   H69737253   4.241   3.497   2.235  0.5038 -1.0621  1.0555
   39MOL   H69837254   4.243   3.459   2.411  1.8200  0.7732  0.8125
   39MOL   H69937255   4.387   3.729   2.472  0.9446 -1.5898  2.8758
   39MOL   H70037256   4.625   3.804   2.470  1.6166 -0.4910  0.2117
   39MOL   H70137257   4.798   3.654   2.376 -0.9727  3.3177  0.8815
   39MOL   H70237258   4.726   3.447   2.241 -0.7722 -0.4626 -1.3898
   39MOL   H70337259   4.377   3.330   2.230  0.3731 -1.3780 -1.2261
   39MOL   H70437260   4.529   3.264   2.248  1.3308  0.8274 -0.0036
   39MOL   H70537261   4.425   3.442   2.034 -0.7287 -0.1302 -0.0086
   39MOL   H70637262   4.608   3.315   1.799 -0.2011  0.4399  1.1965
   39MOL   H70737263   4.473   3.401   1.822 -0.3282 -0.6510 -0.9324
   39MOL   H70837264   4.455   3.091   1.843  1.5532 -1.1407 -1.9133
   39MOL   H70937265   4.473   3.171   1.686 -2.4023  0.3853 -0.0459
   39MOL   H71037266   4.233   3.260   1.857 -0.2119  2.1865 -0.9653
   39MOL   H71137267   4.279   3.299   1.697 -2.3129  0.3743 -0.9492
   39MOL   H71237268   4.107   3.133   1.675 -0.5628  0.3460  1.7877
   39MOL   H71337269   4.250   3.052   1.627  2.2150 -1.5585  1.7191
   39MOL   H71437270   4.256   2.989   1.907 -0.1398  0.3021  0.3346
   39MOL   H71537271   4.089   3.033   1.890  0.0401 -0.7702  1.0302
   39MOL   H71637272   4.065   2.849   1.721  1.5494  1.7255 -2.8186
   39MOL   H71737273   4.112   2.787   1.872  0.6698  0.7859  1.1944
   39MOL   H71837274   4.356   2.793   1.783 -0.8928  1.9821 -0.0069
   39MOL   H71937275   4.283   2.831   1.623 -1.3770  2.1875  0.5228
   39MOL   H72037276   4.244   2.579   1.777 -0.7462  2.6738  1.4076
   39MOL   H72137277   4.357   2.596   1.644 -1.2185  0.9948 -1.9520
   39MOL   N72237278   4.033   2.536   1.623 -0.1307 -0.2971  0.1095
   39MOL   C72337279   3.923   2.500   1.531 -0.0012  0.5721 -0.1276
   39MOL   C72437280   3.900   2.353   1.500 -0.2263  0.8212  0.0359
   39MOL   C72537281   3.924   2.301   1.369  0.2097 -0.1055 -1.0098
   39MOL   C72637282   3.883   2.167   1.336  0.6134 -0.0621 -0.1874
   39MOL   C72737283   3.826   2.079   1.431  0.6291 -0.1948  0.2005
   39MOL   C72837284   3.804   2.136   1.560  0.0954  0.5969 -0.3614
   39MOL   C72937285   3.837   2.265   1.591 -0.0912 -1.1166  0.4028
   39MOL   C73037286   3.805   2.312   1.731 -0.2859 -0.0563  0.9347
   39MOL   N73137287   3.666   2.314   1.751 -0.3157  0.1882  0.4292
   39MOL   C73237288   3.616   2.297   1.872  0.1088  0.9502 -0.1541
   39MOL   O73337289   3.690   2.289   1.973 -0.1263 -0.5220 -0.3842
   39MOL   C73437290   3.463   2.281   1.888 -0.6870 -0.5946  0.1275
   39MOL   C73537291   3.390   2.419   1.881 -0.0802  0.4078 -0.6079
   39MOL   C73637292   3.418   2.514   1.991  0.1967  0.1113  0.3328
   39MOL   C73737293   3.335   2.652   1.988  0.1745 -0.0172 -0.3145
   39MOL   C73837294   3.383   2.762   2.082  0.2925  0.0267 -0.2172
   39MOL   C73937295   3.343   2.743   2.232 -0.2976 -0.1833 -0.0743
   39MOL   C74037296   3.380   2.858   2.329  0.8309 -0.2366  0.5038
   39MOL   C74137297   3.294   2.982   2.311 -0.5893  0.3710  0.5495
   39MOL   C74237298   3.158   2.967   2.371  1.0474 -0.0157 -0.1427
   39MOL   O74337299   3.127   2.904   2.474 -0.8810 -0.8398  0.1414
   39MOL   H74437300   4.014   2.523   1.722 -1.1370 -0.5707 -0.1129
   39MOL   H74537301   3.934   2.551   1.435  0.8104  0.1476 -0.2744
   39MOL   H74637302   3.828   2.533   1.572  0.0288 -1.4954  1.6996
   39MOL   H74737303   3.958   2.370   1.293 -1.0618  2.6370  0.8270
   39MOL   H74837304   3.896   2.124   1.238  0.5309 -0.1884 -0.1432
   39MOL   H74937305   3.800   1.978   1.406 -1.3227  0.4238 -0.4114
   39MOL   H75037306   3.755   2.074   1.634 -1.1377  0.5141 -1.2348
   39MOL   H75137307   3.838   2.414   1.750 -2.0415  0.8191 -0.5484
   39MOL   H75237308   3.862   2.252   1.801  0.0745 -2.8802 -1.6828
   39MOL   H75337309   3.606   2.335   1.672 -3.0834  0.4838  2.5514
   39MOL   H75437310   3.439   2.228   1.981 -0.9140 -0.5795  0.0794
   39MOL   H75537311   3.417   2.225   1.807 -0.0912 -1.6398  0.5017
   39MOL   H75637312   3.282   2.403   1.879 -0.3098  1.8103  0.0085
   39MOL   H75737313   3.423   2.476   1.794 -0.4599  1.6197  0.0296
   39MOL   H75837314   3.393   2.464   2.085  1.9807 -1.4601 -0.0118
   39MOL   H75937315   3.518   2.556   1.991  0.7505 -1.1639 -2.0940
   39MOL   H76037316   3.338   2.695   1.888  1.7738  0.5415 -0.0396
   39MOL   H76137317   3.228   2.633   2.005 -0.1674  2.5001  0.4515
   39MOL   H76237318   3.491   2.770   2.084  0.3326 -0.5354  2.4752
   39MOL   H76337319   3.358   2.860   2.042  0.1587  0.2575  0.4101
   39MOL   H76437320   3.384   2.646   2.259  1.1833  0.4474  0.0012
   39MOL   H76537321   3.235   2.729   2.241 -0.1925 -0.3276  0.9662
   39MOL   H76637322   3.377   2.828   2.434  0.3262 -0.9314  0.2966
   39MOL   H76737323   3.487   2.870   2.317  0.6878  0.6906  0.1230
   39MOL   H76837324   3.327   3.071   2.365  0.2424  1.6457 -1.9891
   39MOL   H76937325   3.303   3.009   2.206  1.0733 -2.5829 -0.1224
   39MOL   N77037326   3.060   3.038   2.314  0.3913  0.3186 -0.5862
   39MOL   C77137327   2.934   3.067   2.380 -0.0199 -0.8886  1.1220
   39MOL   C77237328   2.833   2.961   2.345  0.6410  0.2465  0.3955
   39MOL   C77337329   2.873   2.847   2.267 -0.3743 -0.1729  0.6613
   39MOL   C77437330   2.776   2.751   2.219  0.7024  0.2594 -0.3480
   39MOL   C77537331   2.640   2.761   2.265  0.2967  0.1940  0.1138
   39MOL   C77637332   2.599   2.868   2.342  0.0729  0.1352  0.0498
   39MOL   C77737333   2.697   2.973   2.378  0.4254  0.1012  0.1465
   39MOL   C77837334   2.636   3.093   2.447 -0.3754  0.7657  0.7091
   39MOL   N77937335   2.587   3.205   2.368 -0.1674 -0.5872 -0.3731
   39MOL   C78037336   2.637   3.328   2.384 -0.2973  0.6293  0.2733
   39MOL   O78137337   2.747   3.348   2.443  0.4926  0.3233 -0.0161
   39MOL   C78237338   2.558   3.435   2.310  0.2659 -0.0266 -0.6397
   39MOL   C78337339   2.544   3.566   2.386 -0.7458  0.1323  0.2336
   39MOL   C78437340   2.665   3.646   2.353 -0.6262 -0.0683 -0.7351
   39MOL   C78537341   2.662   3.779   2.441 -1.2059  0.7498 -0.0319
   39MOL   C78637342   2.774   3.871   2.379 -0.3681 -0.5877  0.2342
   39MOL   C78737343   2.774   4.013   2.435 -0.6066  0.0127  0.0683
   39MOL   C78837344   2.850   4.122   2.364  0.1326 -0.2630 -0.1710
   39MOL   C78937345   2.909   4.232   2.448 -0.2150  0.5936 -0.1955
   39MOL   C79037346   2.801   4.311   2.531 -0.0745 -0.0256  0.2127
   39MOL   O79137347   2.688   4.354   2.485 -0.4455  0.1333  0.0298
   39MOL   H79237348   3.072   3.093   2.231  2.0770 -2.3958 -2.2216
   39MOL   H79337349   2.946   3.084   2.487  1.0065  2.2123  0.5775
   39MOL   H79437350   2.898   3.161   2.339 -2.5646 -1.6384  1.5748
   39MOL   H79537351   2.976   2.824   2.242 -0.4719 -1.9334  1.7486
   39MOL   H79637352   2.823   2.674   2.160 -1.4554 -0.8855 -0.6232
   39MOL   H79737353   2.572   2.687   2.226  0.4735  0.1703 -0.1505
   39MOL   H79837354   2.492   2.877   2.356  0.0239  0.1506 -0.3420
   39MOL   H79937355   2.710   3.113   2.525  0.8453 -2.2258  0.3948
   39MOL   H80037356   2.558   3.056   2.512 -1.1461 -0.3013 -0.7966
   39MOL   H80137357   2.509   3.201   2.305 -1.3762  0.5112  1.0446
   39MOL   H80237358   2.459   3.393   2.297  1.2642 -2.0775 -1.9494
   39MOL   H80337359   2.596   3.462   2.211  0.0824  1.3591 -0.3471
   39MOL   H80437360   2.531   3.555   2.493  0.6213  0.0944  0.3973
   39MOL   H80537361   2.459   3.624   2.347 -0.5824  0.6638  0.6662
   39MOL   H80637362   2.668   3.667   2.246 -0.6436 -1.8208 -1.0916
   39MOL   H80737363   2.760   3.597   2.372 -0.2981  1.9681  3.4629
   39MOL   H80837364   2.563   3.824   2.433 -2.6514 -2.2114  0.8112
   39MOL   H80937365   2.687   3.761   2.545 -0.1332  0.1530 -0.3825
   39MOL   H81037366   2.878   3.839   2.377 -0.1057  0.2263  0.5480
   39MOL   H81137367   2.743   3.882   2.275 -1.3560  0.3769  0.6187
   39MOL   H81237368   2.819   4.000   2.533 -3.8769 -2.6808  1.2831
   39MOL   H81337369   2.670   4.038   2.452 -0.3830 -0.5646  2.4280
   39MOL   H81437370   2.783   4.176   2.297 -1.5768 -1.2807  0.6923
   39MOL   H81537371   2.931   4.085   2.300 -1.7397 -2.6390 -1.2570
   39MOL   H81637372   2.966   4.304   2.389  1.0649 -0.3300 -0.1297
   39MOL   H81737373   2.987   4.195   2.516 -1.7346 -0.7938  0.8211
   39MOL   N81837374   2.842   4.337   2.650 -0.2587 -0.0685 -0.3599
   39MOL   C81937375   2.764   4.426   2.738  0.2932 -0.0336  0.0850
   39MOL   C82037376   2.769   4.389   2.892 -0.1566  0.0428 -0.7026
   39MOL   C82137377   2.660   4.321   2.958 -0.7592 -0.4495  0.0242
   39MOL   C82237378   2.671   4.292   3.094  0.0847  0.3470  0.6440
   39MOL   C82337379   2.787   4.326   3.165 -0.4713  0.6010 -0.6790
   39MOL   C82437380   2.895   4.390   3.102 -0.6122 -0.0569 -0.2277
   39MOL   C82537381   2.884   4.425   2.966 -0.0797  0.4895  0.5306
   39MOL   C82637382   3.000   4.512   2.911 -0.2430 -0.1886  0.7475
   39MOL   N82737383   3.130   4.443   2.922 -0.1069  0.1490  0.3519
   39MOL   C82837384   3.165   4.341   2.848 -0.8686  0.2025 -0.7763
   39MOL   O82937385   3.105   4.313   2.749 -0.2215 -0.1407  0.0128
   39MOL   C83037386   3.293   4.258   2.875 -0.5002 -0.0424 -0.2102
   39MOL   C83137387   3.305   4.221   3.021  0.1661  0.3668  1.2296
   39MOL   C83237388   3.192   4.133   3.072 -0.0091 -0.8574  0.2203
   39MOL   C83337389   3.224   4.079   3.216 -0.3658  0.0413  0.2667
   39MOL   C83437390   3.114   3.988   3.273 -0.1219 -0.1563  0.3481
   39MOL   C83537391   3.092   3.873   3.173 -0.1406 -0.1270  0.0860
   39MOL   C83637392   3.010   3.756   3.239  0.6026  0.5362 -1.3181
   39MOL   C83737393   2.981   3.632   3.152  0.4562 -0.7370 -0.1953
   39MOL   C83837394   3.104   3.562   3.100  0.3933  0.1531 -0.0916
   39MOL   O83937395   3.201   3.544   3.179  0.4701 -0.0653 -0.1127
   39MOL   H84037396   2.912   4.280   2.695 -0.7745 -2.6213 -2.6516
   39MOL   H84137397   2.786   4.532   2.736 -0.7542  0.2084  0.8829
   39MOL   H84237398   2.657   4.413   2.718 -0.1449  2.2039  0.8431
   39MOL   H84337399   2.571   4.294   2.904 -0.7754  0.8459 -0.6211
   39MOL   H84437400   2.594   4.242   3.151  2.0511 -1.8006  1.5192
   39MOL   H84537401   2.783   4.310   3.271 -1.4944  1.6971 -0.5356
   39MOL   H84637402   2.973   4.416   3.172 -0.7434 -1.7740  0.5583
   39MOL   H84737403   3.020   4.595   2.979 -1.3884  1.4702 -0.8845
   39MOL   H84837404   2.989   4.545   2.807 -1.2325  1.2477  1.2903
   39MOL   H84937405   3.192   4.480   2.993  0.2749  1.4416 -0.6487
   39MOL   H85037406   3.376   4.322   2.847 -1.0778  0.1371 -1.5400
   39MOL   H85137407   3.302   4.168   2.813 -2.2575 -0.8675  0.6975
   39MOL   H85237408   3.323   4.311   3.080 -1.8610  1.9757 -0.5265
   39MOL   H85337409   3.402   4.171   3.025 -0.5861 -1.1040  1.1801
   39MOL   H85437410   3.169   4.058   2.997  1.0172 -0.8336 -0.1259
   39MOL   H85537411   3.102   4.192   3.086  0.8508 -0.1826  3.1991
   39MOL   H85637412   3.313   4.016   3.214 -1.4469 -1.5246 -1.7421
   39MOL   H85737413   3.232   4.165   3.282  3.6997 -0.4512  0.5741
   39MOL   H85837414   3.146   3.946   3.368  2.5939  1.5681  0.2593
   39MOL   H85937415   3.017   4.034   3.289 -0.5787  0.0976 -2.8279
   39MOL   H86037416   3.190   3.835   3.142  0.2308  1.4928 -0.7689
   39MOL   H86137417   3.037   3.900   3.084 -0.8569 -1.8637 -0.0100
   39MOL   H86237418   2.917   3.793   3.282  0.3066 -3.5166  1.9080
   39MOL   H86337419   3.065   3.707   3.319 -1.6171 -0.6973 -0.4939
   39MOL   H86437420   2.939   3.563   3.225  1.0420 -1.1962 -0.2894
   39MOL   H86537421   2.903   3.651   3.078  1.0874 -0.5001 -0.7989
   39MOL   N86637422   3.099   3.527   2.972 -0.3887 -0.3837  0.5193
   39MOL   C86737423   3.212   3.459   2.899  0.2754 -0.6185  0.4759
   39MOL   C86837424   3.189   3.315   2.856 -0.8491  1.0194  0.0809
   39MOL   C86937425   3.072   3.248   2.893 -0.0546  0.2380  0.5395
   39MOL   C87037426   3.038   3.115   2.860 -0.4364 -0.1831  0.6563
   39MOL   C87137427   3.128   3.048   2.779  0.0472  0.5012  0.4735
   39MOL   C87237428   3.242   3.113   2.731 -0.3114 -0.5131  0.2767
   39MOL   C87337429   3.281   3.244   2.773  0.5047 -0.0334 -0.9865
   39MOL   C87437430   3.402   3.310   2.721 -0.9070 -0.4182 -1.2760
   39MOL   N87537431   3.492   3.217   2.656 -0.0429 -0.2076 -0.0433
   39MOL   C87637432   3.582   3.248   2.564 -0.1205 -0.0048 -0.1348
   39MOL   O87737433   3.573   3.346   2.492 -0.7138  0.6325 -0.3107
   39MOL   C87837434   3.700   3.152   2.541  1.1844 -0.6564  0.1804
   39MOL   C87937435   3.832   3.206   2.595  0.0607  0.4661 -0.0474
   39MOL   C88037436   3.833   3.223   2.751 -0.3009 -0.4823  0.0584
   39MOL   C88137437   3.963   3.282   2.811  0.0450  0.5538  0.0870
   39MOL   C88237438   4.013   3.422   2.755  0.1812  0.3682  0.4849
   39MOL   C88337439   4.084   3.501   2.863 -0.4962 -0.5652 -0.3824
   39MOL   C88437440   4.099   3.650   2.826 -0.6887 -0.2667 -0.2025
   39MOL   C88537441   4.208   3.686   2.725  0.5370  0.4989  0.1826
   39MOL   C88637442   4.345   3.701   2.783 -0.5253 -0.6699  0.1738
   39MOL   O88737443   4.418   3.608   2.794 -0.4525  0.7056 -0.2051
   39MOL   H88837444   3.015   3.529   2.917  0.3050 -1.8663 -0.6682
   39MOL   H88937445   3.234   3.515   2.808  2.8738  0.8334  1.9378
   39MOL   H89037446   3.310   3.466   2.947 -0.3144  0.8985  1.4911
   39MOL   H89137447   3.008   3.307   2.957  2.7303  2.0363  1.7502
   39MOL   H89237448   2.942   3.070   2.882  1.0135 -3.1389  1.0923
   39MOL   H89337449   3.104   2.949   2.743  2.0348  0.1533  0.0653
   39MOL   H89437450   3.299   3.054   2.660  0.0165  0.2700 -0.1177
   39MOL   H89537451   3.459   3.347   2.806 -0.4398  0.4765 -1.9620
   39MOL   H89637452   3.379   3.395   2.656  0.0599  0.3828 -0.5911
   39MOL   H89737453   3.515   3.136   2.713  1.5913  1.0418  1.1414
   39MOL   H89837454   3.711   3.140   2.433 -3.7520  0.2584 -0.5326
   39MOL   H89937455   3.671   3.060   2.592 -0.3288 -0.1261  0.2995
   39MOL   H90037456   3.841   3.299   2.539  0.8143  0.7923  0.6184
   39MOL   H90137457   3.915   3.142   2.565  0.0035  0.0159  0.7417
   39MOL   H90237458   3.739   3.266   2.787 -1.2110 -2.6017  0.2848
   39MOL   H90337459   3.821   3.123   2.794 -0.1247 -0.2290  0.6937
   39MOL   H90437460   3.954   3.286   2.920 -0.1168  3.6390 -0.0038
   39MOL   H90537461   4.040   3.209   2.785  0.6107  0.9673  0.5770
   39MOL   H90637462   4.062   3.437   2.659 -0.5075 -0.8234 -0.0649
   39MOL   H90737463   3.921   3.476   2.731  0.5853 -0.2455 -2.6930
   39MOL   H90837464   4.181   3.467   2.900 -0.9855 -0.0204  1.4554
   39MOL   H90937465   4.031   3.485   2.957  2.8945  0.4966  1.8340
   39MOL   H91037466   4.002   3.690   2.796  0.9964  3.1248 -1.4661
   39MOL   H91137467   4.115   3.711   2.915  0.2076  1.7397 -1.6961
   39MOL   H91237468   4.211   3.617   2.640 -0.3298 -2.4752  2.5016
   39MOL   H91337469   4.172   3.781   2.685  0.6119  0.8760  0.9951
   39MOL   N91437470   4.384   3.826   2.817 -0.1965 -0.2691 -0.1322
   39MOL   C91537471   4.508   3.872   2.884  0.2482  0.5119 -0.5525
   39MOL   C91637472   4.621   3.913   2.783  0.5088 -0.1935 -0.1400
   39MOL   C91737473   4.577   3.987   2.666 -0.2491  0.9856 -0.1073
   39MOL   C91837474   4.665   4.032   2.571 -0.4499 -0.2668  0.0237
   39MOL   C91937475   4.803   4.012   2.596 -0.6364 -0.6570 -0.1233
   39MOL   C92037476   4.854   3.940   2.708 -0.1999 -0.7654 -0.1251
   39MOL   C92137477   4.758   3.883   2.799 -0.2261 -0.2933 -0.2771
   39MOL   C92237478   4.807   3.797   2.918  0.2711 -0.4533 -0.3369
   39MOL   N92337479   4.937   3.735   2.901  0.0821  0.6022 -0.0566
   39MOL   C92437480   5.010   3.713   3.012 -0.3344  0.4083 -0.2620
   39MOL   O92537481   4.967   3.729   3.128  0.8052 -0.2541  0.6266
   39MOL   C92637482   5.153   3.662   2.992 -0.3771  0.8018  0.4884
   39MOL   C92737483   5.216   3.606   3.115  0.3777  0.0008  0.7117
   39MOL   C92837484   5.357   3.536   3.100  0.8420 -0.3246  0.3378
   39MOL   C92937485   5.342   3.401   3.031 -0.4999  0.5410 -0.1908
   39MOL   C93037486   5.267   3.286   3.102  0.1988 -0.1915  0.7540
   39MOL   C93137487   5.335   3.220   3.224 -0.0580 -0.0060 -0.4108
   39MOL   C93237488   5.318   3.298   3.355 -0.2033  0.2501 -0.8242
   39MOL   C93337489   5.409   3.247   3.468 -0.0464  0.2582  0.0518
   39MOL   C93437490   5.419   3.346   3.578 -0.0704  0.7106  0.2670
   39MOL   O93537491   5.326   3.386   3.642  0.8296  0.2296  0.4179
   39MOL   H93637492   4.316   3.896   2.791  0.0427 -0.0189 -0.0879
   39MOL   H93737493   4.474   3.956   2.944  0.7255 -0.3474  0.9378
   39MOL   H93837494   4.542   3.791   2.949 -1.8466 -2.9183 -3.5445
   39MOL   H93937495   4.472   3.999   2.648 -1.0047 -2.0928  1.7187
   39MOL   H94037496   4.635   4.076   2.477  2.1404  0.5324 -0.4604
   39MOL   H94137497   4.872   4.057   2.526 -0.0027 -0.9856  0.2892
   39MOL   H94237498   4.959   3.928   2.727 -0.3748 -2.7140 -0.3223
   39MOL   H94337499   4.732   3.717   2.919 -0.9111  0.5349 -3.2679
   39MOL   H94437500   4.798   3.853   3.010  1.6034  0.5799 -0.8256
   39MOL   H94537501   4.985   3.731   2.812  1.7940 -0.0041  0.8720
   39MOL   H94637502   5.227   3.733   2.955 -1.1479  1.3474 -0.0165
   39MOL   H94737503   5.147   3.576   2.926 -1.4080  0.5782  0.8507
   39MOL   H94837504   5.157   3.538   3.177  1.1947 -0.7358  0.6967
   39MOL   H94937505   5.227   3.688   3.185  0.7347  1.1653 -0.6955
   39MOL   H95037506   5.424   3.599   3.042  0.1550 -1.1621 -1.4010
   39MOL   H95137507   5.402   3.536   3.199  1.0604  2.0744  0.2671
   39MOL   H95237508   5.302   3.409   2.929  0.2848 -0.3828 -0.5714
   39MOL   H95337509   5.443   3.361   3.023 -1.1114 -1.4505  1.7313
   39MOL   H95437510   5.257   3.205   3.029 -1.3337  1.3119 -0.7340
   39MOL   H95537511   5.166   3.316   3.128 -0.4525 -0.4086 -1.3998
   39MOL   H95637512   5.285   3.126   3.247  0.4570 -0.4040 -0.9193
   39MOL   H95737513   5.436   3.194   3.193  0.4681 -2.2578  2.9604
   39MOL   H95837514   5.214   3.294   3.388 -0.3759 -2.2566 -1.6013
   39MOL   H95937515   5.336   3.405   3.342  0.4164  0.2468 -0.0815
   39MOL   H96037516   5.508   3.237   3.424  0.5716  1.8568  1.0459
   39MOL   H96137517   5.384   3.152   3.517  0.2984 -0.6540 -1.4989
   39MOL   H96237518   5.519   3.373   3.613  1.3575 -2.8642 -0.8513
   40MOL     N137519   3.810   2.624   4.673 -0.0250  0.2538  0.2085
   40MOL     C237520   3.917   2.563   4.755  0.3078  1.0251  0.4441
   40MOL     C337521   3.849   2.445   4.829 -0.1707 -0.7100 -0.0562
   40MOL     C437522   3.785   2.465   4.955 -0.2349  0.1233 -0.4018
   40MOL     C537523   3.725   2.356   5.016  0.0834  0.2161  0.2060
   40MOL     C637524   3.698   2.236   4.950 -0.1948 -0.0921 -0.2901
   40MOL     C737525   3.763   2.214   4.829  0.0210  0.2123 -0.5543
   40MOL     C837526   3.843   2.315   4.770  0.4521 -0.8576 -1.2459
   40MOL     C937527   3.907   2.294   4.637  0.4422  0.6306  0.0122
   40MOL    N1037528   3.906   2.159   4.576  0.0957 -0.5617  0.1234
   40MOL    C1137529   4.015   2.078   4.578  0.2831  0.2263 -0.3242
   40MOL    O1237530   4.119   2.114   4.629  0.7642 -0.0123 -0.8675
   40MOL    C1337531   4.003   1.933   4.512 -0.3487 -0.5953  0.1459
   40MOL    C1437532   4.119   1.895   4.416  0.0347 -0.7605  0.2249
   40MOL    C1537533   4.237   1.826   4.479  0.4709  0.0254 -0.0413
   40MOL    C1637534   4.335   1.751   4.375  0.1834  0.7961  0.0152
   40MOL    C1737535   4.468   1.695   4.428 -0.4100 -0.2564 -0.7342
   40MOL    C1837536   4.556   1.805   4.495  0.2098 -0.4225 -0.1591
   40MOL    C1937537   4.641   1.905   4.405  0.9572  0.2763 -0.7267
   40MOL    C2037538   4.692   2.022   4.491 -0.4956  0.6802  0.7067
   40MOL    C2137539   4.809   2.098   4.417  0.5374  0.3689  0.4354
   40MOL    O2237540   4.827   2.075   4.297 -0.0030  0.6772  0.3281
   40MOL    H2337541   3.794   2.719   4.704  2.3717  0.8802 -0.3204
   40MOL    H2437542   3.997   2.528   4.690  1.2731  1.8045  1.1899
   40MOL    H2537543   3.964   2.634   4.824  0.4090  0.0577  1.3886
   40MOL    H2637544   3.788   2.559   5.008  0.8356  0.1502 -0.5023
   40MOL    H2737545   3.681   2.372   5.113 -0.3920 -1.6307  0.3231
   40MOL    H2837546   3.652   2.154   5.003 -2.3055  0.5517 -1.0701
   40MOL    H2937547   3.758   2.115   4.786  4.2222 -0.4538  0.2399
   40MOL    H3037548   4.011   2.327   4.646  0.5840  0.0391  0.5820
   40MOL    H3137549   3.854   2.367   4.575 -2.6263 -1.6296 -0.0992
   40MOL    H3237550   3.820   2.132   4.530 -0.7063  2.5111 -0.3080
   40MOL    H3337551   3.905   1.918   4.466  0.7662  1.4769 -3.0427
   40MOL    H3437552   4.003   1.862   4.595 -2.5218 -1.9785 -0.9868
   40MOL    H3537553   4.157   1.980   4.359 -1.8214 -0.7301 -1.0181
   40MOL    H3637554   4.071   1.827   4.346 -3.1856  1.6852 -0.0416
   40MOL    H3737555   4.292   1.914   4.513  3.5683 -1.0857 -1.9387
   40MOL    H3837556   4.201   1.770   4.565  2.5015  1.7185  1.9876
   40MOL    H3937557   4.291   1.675   4.310 -0.6062  1.3010 -0.0445
   40MOL    H4037558   4.367   1.821   4.298  0.0457 -0.2194 -0.9779
   40MOL    H4137559   4.440   1.610   4.491 -0.8078  1.2304  1.1513
   40MOL    H4237560   4.532   1.651   4.353  1.7842 -1.6935  1.8833
   40MOL    H4337561   4.628   1.753   4.559  0.4296  0.2391  0.1280
   40MOL    H4437562   4.494   1.864   4.562  1.2191  0.4332  0.0351
   40MOL    H4537563   4.715   1.842   4.355  1.1143  2.5332 -3.4841
   40MOL    H4637564   4.570   1.943   4.332 -2.0021  2.7637  3.2513
   40MOL    H4737565   4.728   1.980   4.585  0.6038  1.5710  0.6878
   40MOL    H4837566   4.610   2.091   4.513 -1.4629 -0.4129  0.5507
   40MOL    H4937567   3.734   2.565   4.704  0.7714 -0.9608 -0.0947
   40MOL    N5037568   4.885   2.181   4.484 -0.0614  0.3824  0.3794
   40MOL    C5137569   4.995   2.247   4.420 -0.0081 -0.5312 -0.0560
   40MOL    C5237570   5.119   2.166   4.416  0.5826  0.6963  0.5012
   40MOL    C5337571   5.173   2.128   4.540  0.1131 -0.7546 -0.1369
   40MOL    C5437572   5.299   2.077   4.545 -0.8671 -0.1317  0.5498
   40MOL    C5537573   5.371   2.048   4.424 -0.1457  0.2685  0.2406
   40MOL    C5637574   5.316   2.083   4.302 -0.1625 -0.0491 -0.7408
   40MOL    C5737575   5.190   2.146   4.296  0.8286 -0.0931  0.2895
   40MOL    C5837576   5.139   2.182   4.159 -0.3713 -0.0529 -0.2088
   40MOL    N5937577   5.043   2.080   4.123 -0.0734  0.0463 -0.3297
   40MOL    C6037578   5.029   2.026   4.004  0.1310  0.0703  0.5456
   40MOL    O6137579   5.104   2.052   3.910  0.1487 -0.2680 -0.1913
   40MOL    C6237580   4.900   1.942   3.983  0.0959 -0.0639 -0.0685
   40MOL    C6337581   4.818   1.992   3.863  0.3656  0.3445  0.5406
   40MOL    C6437582   4.678   1.926   3.854 -0.9199 -0.3584  0.2968
   40MOL    C6537583   4.589   1.960   3.740 -0.2288 -0.0722  0.0684
   40MOL    C6637584   4.545   2.105   3.745  0.0395  0.2633  0.0262
   40MOL    C6737585   4.414   2.121   3.662  0.0963  0.1410  0.3283
   40MOL    C6837586   4.420   2.105   3.511  0.0802  0.2750 -0.4316
   40MOL    C6937587   4.285   2.119   3.443 -0.2754 -0.7244 -0.3666
   40MOL    C7037588   4.186   2.010   3.478 -0.1873  0.1996  0.6468
   40MOL    O7137589   4.173   1.910   3.416  0.1334  0.1911 -0.2483
   40MOL    H7237590   4.860   2.212   4.577  0.3296  1.2353  0.2061
   40MOL    H7337591   5.020   2.332   4.483 -1.8176 -0.7791  1.0369
   40MOL    H7437592   4.969   2.292   4.324  1.3936  3.1357  1.2130
   40MOL    H7537593   5.128   2.149   4.635 -1.3065 -0.2268 -0.9067
   40MOL    H7637594   5.350   2.046   4.636 -1.9976 -1.3906  0.7744
   40MOL    H7737595   5.472   2.010   4.431 -0.7557 -1.5095 -0.2293
   40MOL    H7837596   5.382   2.074   4.217  2.9284  0.6620  1.5101
   40MOL    H7937597   5.228   2.180   4.096 -0.7896 -0.4938 -0.7964
   40MOL    H8037598   5.096   2.282   4.150 -0.9028 -0.2687 -0.0912
   40MOL    H8137599   4.973   2.064   4.194 -0.4159 -0.5272 -0.7997
   40MOL    H8237600   4.849   1.936   4.079 -3.4769  0.2589 -1.8734
   40MOL    H8337601   4.928   1.838   3.966 -1.1029 -0.3325 -0.4200
   40MOL    H8437602   4.876   1.966   3.774  1.5034  1.9250  0.8011
   40MOL    H8537603   4.826   2.101   3.861  1.4184  0.2807  0.5933
   40MOL    H8637604   4.684   1.817   3.852  1.9467 -0.2514  0.6519
   40MOL    H8737605   4.624   1.949   3.945 -0.6522 -1.5528  0.7670
   40MOL    H8837606   4.645   1.936   3.650  0.2589  0.6311  0.1789
   40MOL    H8937607   4.504   1.894   3.757  0.1055 -0.1870  1.4064
   40MOL    H9037608   4.514   2.144   3.842  1.4241  0.3455  0.4366
   40MOL    H9137609   4.619   2.171   3.699 -1.3688  1.5510 -0.4478
   40MOL    H9237610   4.381   2.222   3.687 -0.1659  0.3179 -0.7076
   40MOL    H9337611   4.341   2.050   3.702  0.6932 -0.5101  0.2705
   40MOL    H9437612   4.469   2.012   3.480  0.9463  1.0902 -1.5490
   40MOL    H9537613   4.497   2.173   3.475  0.6172 -0.4838 -0.7461
   40MOL    H9637614   4.299   2.114   3.335 -1.2180  1.1622 -0.6009
   40MOL    H9737615   4.242   2.216   3.467 -1.6197 -1.3418 -0.2039
   40MOL    N9837616   4.105   2.044   3.578  0.4263 -0.0208  0.1234
   40MOL    C9937617   4.017   1.951   3.648 -0.3949  0.0215 -0.3392
   40MOL   C10037618   4.080   1.929   3.785 -0.8920  0.0590 -0.1416
   40MOL   C10137619   4.183   1.831   3.795  0.2125 -0.1773  0.3267
   40MOL   C10237620   4.261   1.815   3.914  0.3821 -0.6577 -0.1868
   40MOL   C10337621   4.238   1.896   4.025  0.6340  0.3010  0.3400
   40MOL   C10437622   4.132   1.993   4.014 -0.4463  0.3217 -0.0528
   40MOL   C10537623   4.058   2.014   3.898 -0.0577 -0.8928  0.0638
   40MOL   C10637624   3.959   2.130   3.892 -0.2195  0.4891  0.7719
   40MOL   N10737625   4.031   2.249   3.912 -0.0634 -1.0649 -0.6825
   40MOL   C10837626   4.071   2.329   3.811 -0.0519  0.6373  0.0425
   40MOL   O10937627   4.059   2.298   3.686 -0.1757  1.0501 -1.2156
   40MOL   C11037628   4.138   2.463   3.856 -0.2078  0.6294 -0.2512
   40MOL   C11137629   4.184   2.562   3.743  0.1324 -0.0968  0.2575
   40MOL   C11237630   4.072   2.622   3.649 -0.4070  0.5435 -0.1645
   40MOL   C11337631   4.118   2.704   3.521 -0.2982 -0.0325 -0.5154
   40MOL   C11437632   4.192   2.828   3.557  0.0703 -0.3290  0.3034
   40MOL   C11537633   4.317   2.838   3.477  0.0758  0.8685  0.3952
   40MOL   C11637634   4.403   2.958   3.505 -0.1275 -0.3709 -0.1401
   40MOL   C11737635   4.528   2.929   3.597 -0.4126  0.1322 -0.2344
   40MOL   C11837636   4.583   3.046   3.681 -0.0302  0.4310  0.3511
   40MOL   O11937637   4.553   3.162   3.647  0.2917  0.5494 -0.2179
   40MOL   H12037638   4.124   2.131   3.626 -3.7081  0.7887  0.4228
   40MOL   H12137639   3.914   1.986   3.657 -0.2404  0.5433 -0.5814
   40MOL   H12237640   4.013   1.852   3.602  1.0897 -0.2185  0.0231
   40MOL   H12337641   4.205   1.768   3.709  2.9448  1.3521 -0.1656
   40MOL   H12437642   4.345   1.747   3.915 -0.8795 -2.2444  0.2210
   40MOL   H12537643   4.295   1.891   4.116  0.1062  1.0027  0.7151
   40MOL   H12637644   4.111   2.057   4.098 -0.6507 -0.6500  0.6489
   40MOL   H12737645   3.906   2.111   3.985  0.0452 -2.3037  0.3985
   40MOL   H12837646   3.893   2.128   3.805  1.9422  0.0592 -0.8962
   40MOL   H12937647   4.064   2.273   4.004 -2.5465 -0.3506  0.0798
   40MOL   H13037648   4.225   2.433   3.914  0.1656 -0.6730 -1.4480
   40MOL   H13137649   4.071   2.510   3.928  1.7092  1.1524  1.2319
   40MOL   H13237650   4.259   2.516   3.680  1.4807  0.1760  1.6354
   40MOL   H13337651   4.221   2.647   3.801  0.5751 -0.9665  1.2545
   40MOL   H13437652   4.014   2.537   3.614 -0.7834 -0.3841  2.6252
   40MOL   H13537653   4.006   2.694   3.698 -2.3997 -0.2043 -1.6694
   40MOL   H13637654   4.184   2.637   3.465  0.6171  1.5585 -1.3629
   40MOL   H13737655   4.041   2.715   3.444  0.3215  2.6036 -0.8099
   40MOL   H13837656   4.126   2.913   3.537  0.4041  0.3001  1.7595
   40MOL   H13937657   4.219   2.832   3.663  1.1148 -0.4818  0.0560
   40MOL   H14037658   4.278   2.834   3.376 -1.8403 -1.7306  1.1874
   40MOL   H14137659   4.388   2.757   3.493  0.4292  1.4628  2.0389
   40MOL   H14237660   4.439   2.992   3.408 -0.3797 -0.0836 -0.1354
   40MOL   H14337661   4.344   3.043   3.540 -0.2028 -0.5357  0.1355
   40MOL   H14437662   4.615   2.900   3.538 -1.0493  0.5745 -1.4156
   40MOL   H14537663   4.500   2.840   3.652 -2.2028  0.1794 -1.0380
   40MOL   N14637664   4.639   3.016   3.799  0.1738  0.4322  0.8543
   40MOL   C14737665   4.696   3.113   3.894  0.5161  0.5779 -0.2278
   40MOL   C14837666   4.766   3.047   4.003  0.1891  0.3811 -0.3696
   40MOL   C14937667   4.794   2.903   4.001 -0.7204  0.1810 -1.0339
   40MOL   C15037668   4.850   2.841   4.107  0.2498  0.2360  0.3324
   40MOL   C15137669   4.870   2.920   4.226 -0.6035  0.1444  0.0941
   40MOL   C15237670   4.849   3.056   4.230 -0.2201 -0.0750 -0.6899
   40MOL   C15337671   4.796   3.122   4.117  0.7818 -0.2464 -1.0377
   40MOL   C15437672   4.783   3.277   4.133  0.8107  0.4130 -0.5095
   40MOL   N15537673   4.652   3.328   4.176  0.1795  0.0645 -0.0333
   40MOL   C15637674   4.598   3.327   4.304 -0.5024 -0.2536 -0.4436
   40MOL   O15737675   4.628   3.257   4.401  0.3665  0.3910 -0.0988
   40MOL   C15837676   4.489   3.432   4.328 -0.0226  0.2883 -0.1161
   40MOL   C15937677   4.339   3.391   4.338 -0.0204  0.2786  0.4407
   40MOL   C16037678   4.237   3.507   4.341 -0.7075 -0.2104 -0.3971
   40MOL   C16137679   4.092   3.462   4.314  0.4378 -0.2129 -0.8302
   40MOL   C16237680   3.997   3.572   4.349  0.3603 -0.2076 -0.2921
   40MOL   C16337681   3.851   3.512   4.353  0.4070 -0.4256  0.4938
   40MOL   C16437682   3.794   3.473   4.211 -0.5366 -0.4926  0.4132
   40MOL   C16537683   3.647   3.473   4.215  0.0243 -0.3631  0.2927
   40MOL   C16637684   3.578   3.431   4.084 -0.3306 -0.0536  0.1803
   40MOL   O16737685   3.639   3.377   3.991  0.0157 -0.1651 -0.7610
   40MOL   H16837686   4.636   2.920   3.831  0.7701  0.8087  2.0866
   40MOL   H16937687   4.612   3.176   3.924  0.7930  1.6861 -1.7329
   40MOL   H17037688   4.763   3.176   3.835  0.1393  0.0986 -1.1706
   40MOL   H17137689   4.788   2.840   3.913  2.0007 -1.1168 -0.3274
   40MOL   H17237690   4.870   2.735   4.111  1.4500  0.4484  0.1859
   40MOL   H17337691   4.899   2.864   4.313  0.7368  0.6852  0.0145
   40MOL   H17437692   4.863   3.110   4.322  1.4740 -1.7594  0.0847
   40MOL   H17537693   4.805   3.313   4.033 -0.7714  0.7649 -0.7399
   40MOL   H17637694   4.864   3.315   4.195  0.7895  1.5155 -1.1454
   40MOL   H17737695   4.594   3.359   4.099 -1.3397 -1.8559  0.3008
   40MOL   H17837696   4.491   3.512   4.254 -3.7211  0.6213  0.0499
   40MOL   H17937697   4.524   3.474   4.423 -0.2705  1.0232 -0.3442
   40MOL   H18037698   4.321   3.326   4.423  0.7071  1.9808  1.9352
   40MOL   H18137699   4.312   3.327   4.254  1.5186 -1.6683  1.3829
   40MOL   H18237700   4.253   3.554   4.438  2.1760  1.8398 -1.7741
   40MOL   H18337701   4.273   3.585   4.273 -1.0691 -0.8772 -1.3703
   40MOL   H18437702   4.079   3.422   4.214  1.3201 -1.7449 -0.3564
   40MOL   H18537703   4.077   3.377   4.381 -3.0865  1.1748  0.2515
   40MOL   H18637704   4.022   3.616   4.446 -0.1532 -0.3075 -0.1140
   40MOL   H18737705   4.000   3.651   4.274  2.3407  0.3997  0.3913
   40MOL   H18837706   3.794   3.596   4.393  1.5745  0.8346 -0.4822
   40MOL   H18937707   3.832   3.429   4.422  1.8760  0.2741  1.7738
   40MOL   H19037708   3.824   3.555   4.145 -0.0537 -1.8031 -1.0215
   40MOL   H19137709   3.846   3.382   4.180  1.9404  0.1317  2.6000
   40MOL   H19237710   3.594   3.567   4.229  1.4253  0.3697  0.7429
   40MOL   H19337711   3.606   3.409   4.293  1.6546  0.2479  1.6856
   40MOL   N19437712   3.442   3.450   4.087  0.1191 -0.4916  0.5272
   40MOL   C19537713   3.355   3.402   3.979  0.7842 -0.2337  0.0630
   40MOL   C19637714   3.211   3.391   4.023 -0.2385 -0.7443 -0.2006
   40MOL   C19737715   3.113   3.438   3.927 -0.5283  0.1615  0.9843
   40MOL   C19837716   2.977   3.435   3.967 -0.2223  0.6716 -0.1779
   40MOL   C19937717   2.938   3.385   4.097  0.3286  0.4638  0.9842
   40MOL   C20037718   3.038   3.333   4.178  0.0603 -0.3313  0.2572
   40MOL   C20137719   3.175   3.330   4.142  0.4148  0.0288  0.1092
   40MOL   C20237720   3.275   3.265   4.237  0.3033  0.5730  0.6554
   40MOL   N20337721   3.224   3.168   4.334 -1.0188  0.4176  0.7451
   40MOL   C20437722   3.202   3.041   4.307 -0.8339  0.2224  0.6570
   40MOL   O20537723   3.232   2.990   4.203  0.3662 -0.0111  0.2102
   40MOL   C20637724   3.125   2.964   4.414 -0.7064 -0.1470 -0.0103
   40MOL   C20737725   3.194   2.834   4.465 -0.1764 -0.2108 -0.5529
   40MOL   C20837726   3.307   2.859   4.566 -0.5962  0.1998 -0.0857
   40MOL   C20937727   3.340   2.739   4.656  0.4136 -0.4532 -0.1591
   40MOL   C21037728   3.415   2.624   4.589  0.7434  0.2999 -0.3014
   40MOL   C21137729   3.434   2.495   4.676 -0.1243  0.3991 -0.6699
   40MOL   C21237730   3.520   2.389   4.603  0.2422 -0.0256  0.0851
   40MOL   C21337731   3.464   2.348   4.465  0.1221 -0.4191  0.2445
   40MOL   C21437732   3.521   2.217   4.405  0.1029 -0.7427  0.2546
   40MOL   O21537733   3.635   2.179   4.441  0.1339  0.3311 -0.1898
   40MOL   H21637734   3.393   3.502   4.159 -2.8789  0.0697 -1.8488
   40MOL   H21737735   3.369   3.472   3.898 -2.2743  1.8453  1.2399
   40MOL   H21837736   3.379   3.302   3.942 -0.2672 -1.4265  2.4426
   40MOL   H21937737   3.150   3.486   3.838  1.0042 -0.2031  1.4002
   40MOL   H22037738   2.902   3.472   3.898 -1.1923 -1.9133 -0.5470
   40MOL   H22137739   2.833   3.381   4.122  0.1304 -1.8437 -0.0552
   40MOL   H22237740   3.008   3.287   4.271 -0.7641  1.5716  0.9666
   40MOL   H22337741   3.320   3.340   4.302 -2.7346  1.6532  1.5871
   40MOL   H22437742   3.355   3.215   4.183 -0.8284 -1.4847  0.8380
   40MOL   H22537743   3.197   3.209   4.421 -1.7163 -0.3593  0.8955
   40MOL   H22637744   3.032   2.938   4.362 -1.4312 -0.8391  1.5911
   40MOL   H22737745   3.094   3.023   4.500 -1.2622 -3.1113  1.8942
   40MOL   H22837746   3.114   2.777   4.512 -0.0236 -0.3758 -0.4893
   40MOL   H22937747   3.241   2.769   4.391 -0.8448 -0.6687 -0.5779
   40MOL   H23037748   3.398   2.905   4.526  1.0806 -0.2549  3.0524
   40MOL   H23137749   3.263   2.934   4.631 -0.4950 -0.3005  0.5645
   40MOL   H23237750   3.401   2.763   4.743  0.2435  1.1893 -0.4906
   40MOL   H23337751   3.246   2.706   4.700 -0.1097 -0.5398 -1.3201
   40MOL   H23437752   3.362   2.589   4.500 -1.8032 -1.5914  1.8766
   40MOL   H23537753   3.506   2.675   4.555 -0.1296  1.0258 -1.5934
   40MOL   H23637754   3.338   2.456   4.709 -0.4267  0.2302 -1.7282
   40MOL   H23737755   3.483   2.510   4.772 -0.6331 -0.5576 -0.2526
   40MOL   H23837756   3.542   2.306   4.670  1.7219  1.5603  1.6200
   40MOL   H23937757   3.614   2.439   4.581 -0.7176  1.7342 -0.1169
   40MOL   H24037758   3.357   2.330   4.475  0.1380 -0.1933  0.8716
   40MOL   H24137759   3.463   2.426   4.389 -0.6735 -0.9186 -0.2657
   40MOL   N24237760   3.446   2.152   4.317  0.1273  0.0290 -0.3558
   40MOL   C24337761   3.475   2.018   4.259 -0.4907  0.9175  0.7403
   40MOL   C24437762   3.505   2.025   4.106 -0.2146 -0.3525  0.9938
   40MOL   C24537763   3.515   2.153   4.043  1.2370 -0.1416 -0.6030
   40MOL   C24637764   3.544   2.162   3.904  1.1111  0.4766  0.1826
   40MOL   C24737765   3.550   2.043   3.828 -0.3091 -0.3377  0.2197
   40MOL   C24837766   3.542   1.914   3.888 -0.0091 -0.0769 -0.4580
   40MOL   C24937767   3.510   1.908   4.027 -0.8527 -0.1081 -0.1973
   40MOL   C25037768   3.478   1.772   4.090 -0.7749  0.3637 -0.1945
   40MOL   N25137769   3.587   1.724   4.167  0.1659  0.6670  0.1655
   40MOL   C25237770   3.582   1.701   4.300  0.1783 -0.0748  0.2778
   40MOL   O25337771   3.480   1.720   4.367 -0.6313 -0.2551  0.2441
   40MOL   C25437772   3.718   1.655   4.369  0.4994 -0.3302  0.3209
   40MOL   C25537773   3.838   1.640   4.289 -0.5945 -0.4354  0.9810
   40MOL   C25637774   3.858   1.510   4.211 -0.4178 -0.2071  0.0469
   40MOL   C25737775   3.990   1.510   4.126  0.1248 -0.0044  0.6111
   40MOL   C25837776   3.991   1.602   4.003 -0.3870  0.0953 -0.1091
   40MOL   C25937777   3.903   1.546   3.885  0.1076 -0.1997 -0.3580
   40MOL   C26037778   3.897   1.629   3.756 -0.5937 -0.0666  0.3439
   40MOL   C26137779   3.819   1.561   3.642  0.0262  0.3348  0.0715
   40MOL   C26237780   3.680   1.518   3.697 -0.6934 -0.5426  0.7386
   40MOL   O26337781   3.605   1.601   3.730 -0.2593 -0.2376  0.1606
   40MOL   H26437782   3.366   2.196   4.272 -1.4499 -1.4264  0.9853
   40MOL   H26537783   3.567   1.979   4.302 -1.0531  2.5599  3.5523
   40MOL   H26637784   3.398   1.943   4.275  0.5721 -0.4778 -0.5503
   40MOL   H26737785   3.505   2.243   4.103 -0.8534 -0.7748  0.0158
   40MOL   H26837786   3.547   2.253   3.845 -1.5756 -0.2574 -1.2057
   40MOL   H26937787   3.551   2.060   3.721 -2.1753 -1.1027  0.0633
   40MOL   H27037788   3.552   1.824   3.829 -0.0100 -1.3477  1.4500
   40MOL   H27137789   3.466   1.705   4.004  1.2437  0.6534 -0.7334
   40MOL   H27237790   3.384   1.777   4.145  0.1892 -0.6394  1.5542
   40MOL   H27337791   3.673   1.704   4.118 -0.0124  1.5558 -0.5366
   40MOL   H27437792   3.695   1.556   4.409 -0.8192  0.0700  0.5786
   40MOL   H27537793   3.743   1.717   4.456  1.2648 -1.6964  1.0887
   40MOL   H27637794   3.923   1.646   4.356  0.8413  0.7502 -0.8707
   40MOL   H27737795   3.843   1.724   4.219  1.6961 -1.5919 -0.3094
   40MOL   H27837796   3.773   1.484   4.147 -0.4734  1.3672 -0.5497
   40MOL   H27937797   3.863   1.432   4.287 -0.1013 -0.4064 -0.1790
   40MOL   H28037798   4.065   1.535   4.200  0.8307  1.1398 -0.4817
   40MOL   H28137799   4.026   1.412   4.094 -1.6664 -0.4505 -0.1016
   40MOL   H28237800   3.961   1.706   4.016  0.5294  0.5154 -1.2872
   40MOL   H28337801   4.094   1.592   3.968 -0.5685 -1.2718 -0.2791
   40MOL   H28437802   3.806   1.534   3.935  0.6946 -0.4204  0.7335
   40MOL   H28537803   3.940   1.449   3.853  0.2292 -0.2208 -0.1532
   40MOL   H28637804   3.860   1.729   3.779  0.7930  0.7693 -0.9542
   40MOL   H28737805   3.998   1.639   3.714  0.0863  1.2899  2.2441
   40MOL   H28837806   3.809   1.617   3.549 -0.3303  0.2466  0.0548
   40MOL   H28937807   3.878   1.472   3.616 -1.0715 -0.7088  1.0994
   40MOL   N29037808   3.652   1.391   3.707  0.0893 -0.0303  0.4222
   40MOL   C29137809   3.537   1.338   3.773 -0.5572 -0.1513  0.0215
   40MOL   C29237810   3.540   1.348   3.925  0.1312  1.2172 -0.7416
   40MOL   C29337811   3.443   1.425   3.997 -0.3281 -0.0828 -0.4886
   40MOL   C29437812   3.442   1.427   4.135 -0.4332  0.5184 -1.2538
   40MOL   C29537813   3.541   1.360   4.208 -0.4036  0.0757  0.4104
   40MOL   C29637814   3.636   1.276   4.143 -0.8881  0.1647  0.3078
   40MOL   C29737815   3.636   1.271   3.996 -0.1740  0.1282  0.4208
   40MOL   C29837816   3.742   1.190   3.929  0.1479 -0.7936 -0.1025
   40MOL   N29937817   3.835   1.116   4.020 -0.0441  0.5691  0.2432
   40MOL   C30037818   3.965   1.128   4.010  0.1541  1.0774  0.1950
   40MOL   O30137819   4.018   1.204   3.938  0.7183 -0.1485  0.3923
   40MOL   C30237820   4.043   1.022   4.087  0.4348  0.2073  0.2805
   40MOL   C30337821   4.164   1.071   4.156 -0.2331 -0.0964  0.1227
   40MOL   C30437822   4.125   1.162   4.276 -0.2235  0.4663 -0.2003
   40MOL   C30537823   4.253   1.216   4.352 -0.1985 -0.4444 -0.0208
   40MOL   C30637824   4.218   1.277   4.485  0.5711 -0.3406 -1.0527
   40MOL   C30737825   4.116   1.395   4.476  0.3999  0.7222  0.0544
   40MOL   C30837826   4.087   1.449   4.612 -0.6238  0.6574  0.3606
   40MOL   C30937827   3.980   1.561   4.636 -0.3344 -0.0086 -0.1438
   40MOL   C31037828   3.975   1.602   4.784 -0.3752 -0.3241 -0.5407
   40MOL   O31137829   4.072   1.631   4.849  0.7674 -0.1716  0.0889
   40MOL   H31237830   3.713   1.323   3.665 -0.5902 -0.3339 -0.0956
   40MOL   H31337831   3.441   1.382   3.748  1.5096  4.8221  0.3616
   40MOL   H31437832   3.544   1.230   3.756 -0.7535  0.1392 -2.0102
   40MOL   H31537833   3.375   1.490   3.943 -1.3961 -0.2211  0.6454
   40MOL   H31637834   3.376   1.493   4.189  1.1140  0.3633  0.8826
   40MOL   H31737835   3.538   1.354   4.316 -0.7838  1.0040  0.4585
   40MOL   H31837836   3.701   1.221   4.210 -0.8579 -0.2205 -0.0392
   40MOL   H31937837   3.805   1.249   3.861  0.6418 -1.6232 -0.3717
   40MOL   H32037838   3.689   1.117   3.869 -3.6100  0.9737  0.9493
   40MOL   H32137839   3.802   1.038   4.075  3.4116  0.1190  1.7951
   40MOL   H32237840   3.977   0.963   4.152 -0.6158  0.4725 -0.5353
   40MOL   H32337841   4.076   0.952   4.011 -0.1343  1.0483 -0.7400
   40MOL   H32437842   4.213   1.145   4.093  0.8817  1.1044  2.3329
   40MOL   H32537843   4.235   0.991   4.175 -1.7827 -0.8985  2.9291
   40MOL   H32637844   4.051   1.109   4.336  0.4004 -1.7078 -1.2948
   40MOL   H32737845   4.074   1.251   4.241 -0.3297  1.2786  1.9574
   40MOL   H32837846   4.324   1.135   4.367 -0.6639 -0.5280  1.8213
   40MOL   H32937847   4.312   1.290   4.297  1.1653 -0.5389  1.2766
   40MOL   H33037848   4.172   1.205   4.553  0.9091  0.4353  0.0177
   40MOL   H33137849   4.308   1.326   4.524 -0.4530  3.0006 -2.7299
   40MOL   H33237850   4.023   1.354   4.438  2.2138 -1.1852 -2.5682
   40MOL   H33337851   4.151   1.467   4.401 -0.4346  1.0144 -0.0549
   40MOL   H33437852   4.069   1.373   4.688 -1.4807 -0.2992 -0.8008
   40MOL   H33537853   4.184   1.487   4.645  0.3784  0.1174 -1.9227
   40MOL   H33637854   4.009   1.655   4.588 -0.4706  1.2670  2.2205
   40MOL   H33737855   3.880   1.532   4.603  0.2980 -0.1260 -2.0225
   40MOL   N33837856   3.855   1.631   4.837  0.6224 -0.6267  0.0800
   40MOL   C33937857   3.825   1.671   4.974 -0.7114 -0.6303  1.1377
   40MOL   C34037858   3.863   1.816   5.009 -1.2744  0.7672 -0.6961
   40MOL   C34137859   3.923   1.902   4.916 -0.2441 -0.2872  0.1337
   40MOL   C34237860   3.971   2.025   4.969 -0.0186  0.0258  0.6733
   40MOL   C34337861   3.946   2.073   5.097 -0.0119  0.0931  0.1642
   40MOL   C34437862   3.879   1.992   5.186 -0.1922 -0.1957  0.3973
   40MOL   C34537863   3.831   1.867   5.139  0.1246  0.1095 -0.1713
   40MOL   C34637864   3.766   1.777   5.241 -0.6109  0.1983 -0.1468
   40MOL   N34737865   3.857   1.664   5.275 -0.4754 -0.3175  1.3267
   40MOL   C34837866   3.816   1.540   5.305 -0.1735  0.7890  0.6205
   40MOL   O34937867   3.698   1.502   5.308 -0.0844 -0.0423 -0.6689
   40MOL   C35037868   3.928   1.440   5.342  0.4053  0.8341 -0.0737
   40MOL   C35137869   3.913   1.303   5.266 -0.3401  0.2818  0.6695
   40MOL   C35237870   3.899   1.320   5.114  0.2069 -0.5590 -0.5955
   40MOL   C35337871   3.888   1.179   5.058 -0.2978  0.4518 -0.2339
   40MOL   C35437872   3.896   1.177   4.906  0.0464 -0.2161 -0.4861
   40MOL   C35537873   3.780   1.257   4.839 -0.1805 -0.2500  0.1725
   40MOL   C35637874   3.790   1.247   4.677 -0.4799 -0.0984  0.0988
   40MOL   C35737875   3.654   1.271   4.601 -0.1418 -1.1944  0.7923
   40MOL   C35837876   3.573   1.393   4.643 -0.1120 -0.0354 -0.3590
   40MOL   O35937877   3.627   1.490   4.698 -0.5191 -0.1162  0.0692
   40MOL   H36037878   3.772   1.608   4.785 -0.8830 -1.6101  2.7959
   40MOL   H36137879   3.719   1.653   4.993 -1.6455 -0.6085 -3.3047
   40MOL   H36237880   3.872   1.592   5.032 -1.7087 -3.0719 -1.2482
   40MOL   H36337881   3.939   1.875   4.812 -0.9210  0.0904 -0.0722
   40MOL   H36437882   4.025   2.098   4.911 -1.8489  1.0528  0.2054
   40MOL   H36537883   3.987   2.166   5.136  1.2885 -0.6376  0.5616
   40MOL   H36637884   3.861   2.031   5.285  1.2098 -0.4894  0.7727
   40MOL   H36737885   3.666   1.743   5.213 -0.5544 -0.7319  0.7654
   40MOL   H36837886   3.750   1.819   5.340  0.2156  2.8293 -1.0675
   40MOL   H36937887   3.951   1.691   5.300 -0.9367  1.0619  1.6665
   40MOL   H37037888   3.935   1.417   5.448 -2.2380 -1.2115 -0.2930
   40MOL   H37137889   4.022   1.482   5.306  1.1145 -1.7806 -1.4026
   40MOL   H37237890   3.822   1.256   5.305  1.3006 -3.7156 -0.1209
   40MOL   H37337891   3.999   1.245   5.297 -1.5456 -2.2508 -0.5494
   40MOL   H37437892   3.804   1.371   5.097 -0.4668 -1.7645 -0.4394
   40MOL   H37537893   3.984   1.375   5.073  0.6502  0.2519  1.3313
   40MOL   H37637894   3.790   1.135   5.077  0.2786 -0.5117  0.5161
   40MOL   H37737895   3.966   1.116   5.100  0.9604  1.8600 -0.3886
   40MOL   H37837896   3.987   1.226   4.871  0.3802  0.1703  0.8673
   40MOL   H37937897   3.904   1.072   4.879  0.3461  0.2557 -2.2970
   40MOL   H38037898   3.775   1.359   4.875  1.8707 -1.1108  3.0173
   40MOL   H38137899   3.680   1.220   4.865  0.0241 -0.7162  0.3061
   40MOL   H38237900   3.862   1.320   4.642  1.8710 -2.1831  0.4311
   40MOL   H38337901   3.815   1.141   4.663 -0.3561 -0.2968  1.6600
   40MOL   H38437902   3.591   1.183   4.614 -2.9913  0.3623 -1.9429
   40MOL   H38537903   3.668   1.297   4.496 -0.3568 -0.3903  0.9625
   40MOL   N38637904   3.447   1.399   4.604  0.3507  0.1415 -0.1578
   40MOL   C38737905   3.351   1.509   4.630 -1.0482  0.4355 -0.0169
   40MOL   C38837906   3.200   1.480   4.609  0.1299  0.4006  0.4524
   40MOL   C38937907   3.125   1.580   4.548  0.1041 -0.3183 -0.6795
   40MOL   C39037908   2.989   1.561   4.539  0.3863 -0.6659  0.7585
   40MOL   C39137909   2.918   1.450   4.602  0.1909  0.5409 -0.0392
   40MOL   C39237910   2.995   1.354   4.673  0.4933  0.2131  0.3027
   40MOL   C39337911   3.135   1.367   4.662 -0.5492  0.4517 -1.0820
   40MOL   C39437912   3.219   1.258   4.741  0.4522 -0.0081  0.0909
   40MOL   N39537913   3.203   1.132   4.670  0.3237  0.1922 -0.0102
   40MOL   C39637914   3.262   1.111   4.551  0.8333  0.2058 -0.6682
   40MOL   O39737915   3.356   1.179   4.508 -0.6724 -0.5698 -0.2232
   40MOL   C39837916   3.219   0.985   4.480  0.2662  0.1653  0.2525
   40MOL   C39937917   3.193   0.991   4.327  0.2566  0.0382 -0.0653
   40MOL   C40037918   3.130   0.860   4.262 -0.2926 -0.8112  0.1140
   40MOL   C40137919   3.205   0.724   4.290 -0.3771 -0.9899  0.2728
   40MOL   C40237920   3.354   0.719   4.253  0.2971  0.0716 -0.1938
   40MOL   C40337921   3.394   0.569   4.274 -0.2926  0.2763 -0.5234
   40MOL   C40437922   3.540   0.551   4.265 -0.0181 -0.1281  0.1145
   40MOL   C40537923   3.592   0.406   4.291 -0.9526  0.5425 -0.4565
   40MOL   C40637924   3.625   0.368   4.435  0.3139 -0.2128 -0.0418
   40MOL   O40737925   3.733   0.313   4.475 -0.4237  0.5394  0.5461
   40MOL   H40837926   3.409   1.315   4.563  1.7467 -0.8628  0.5468
   40MOL   H40937927   3.358   1.526   4.738 -0.5397 -1.4554  0.2636
   40MOL   H41037928   3.378   1.595   4.569 -1.2203 -0.3032 -1.1595
   40MOL   H41137929   3.173   1.669   4.511  2.2002 -0.7937  0.8069
   40MOL   H41237930   2.922   1.629   4.488  1.4471 -0.4942 -0.4341
   40MOL   H41337931   2.811   1.438   4.592  0.1499  2.3675 -2.2682
   40MOL   H41437932   2.948   1.267   4.716  0.1081 -0.6335 -1.7624
   40MOL   H41537933   3.179   1.234   4.840  0.3835 -1.0562 -0.1899
   40MOL   H41637934   3.324   1.282   4.761  0.6146 -0.9214  0.3275
   40MOL   H41737935   3.132   1.068   4.701 -1.4009 -0.4512 -4.8942
   40MOL   H41837936   3.298   0.911   4.490  0.8948  0.7646 -0.2423
   40MOL   H41937937   3.130   0.932   4.515 -1.8272  1.8630 -2.2814
   40MOL   H42037938   3.281   1.031   4.277  0.4449 -0.1905  0.0816
   40MOL   H42137939   3.120   1.071   4.313  1.8817  1.7259  0.7860
   40MOL   H42237940   3.130   0.874   4.154  2.3861 -0.6297  0.1098
   40MOL   H42337941   3.029   0.856   4.304 -0.7495  0.8505 -0.7389
   40MOL   H42437942   3.196   0.702   4.396  1.4513  1.9040  1.0830
   40MOL   H42537943   3.145   0.647   4.242 -1.6539  0.8486 -1.1831
   40MOL   H42637944   3.375   0.740   4.148  3.0654 -0.6258  0.1814
   40MOL   H42737945   3.400   0.794   4.316 -1.0021 -0.5702  1.5574
   40MOL   H42837946   3.348   0.503   4.201 -0.6653  0.8884 -0.8435
   40MOL   H42937947   3.355   0.524   4.366 -1.3664  1.1632 -0.5439
   40MOL   H43037948   3.580   0.626   4.334  1.1563 -0.5838 -0.0659
   40MOL   H43137949   3.574   0.581   4.167  0.5895 -1.9737 -0.2588
   40MOL   H43237950   3.686   0.383   4.239 -1.7986 -1.7636 -1.0366
   40MOL   H43337951   3.523   0.332   4.251  0.7694 -1.4443  0.1667
   40MOL   N43437952   3.525   0.409   4.518 -0.2315  0.3841  0.4898
   40MOL   C43537953   3.548   0.426   4.663  0.3003 -0.3111  0.1264
   40MOL   C43637954   3.528   0.571   4.702  0.9132  0.4727  0.6117
   40MOL   C43737955   3.401   0.629   4.683  0.0969 -0.0875 -0.4123
   40MOL   C43837956   3.377   0.765   4.713  0.1203 -0.1298  0.3518
   40MOL   C43937957   3.479   0.847   4.761  0.2291 -0.4327 -0.9052
   40MOL   C44037958   3.605   0.790   4.776 -0.8339  0.3269 -0.2347
   40MOL   C44137959   3.630   0.653   4.760 -0.5649 -0.0699 -0.0525
   40MOL   C44237960   3.767   0.587   4.788  0.1906  0.1944 -0.0658
   40MOL   N44337961   3.852   0.671   4.876 -0.3744  0.0758  0.2193
   40MOL   C44437962   3.975   0.714   4.853  0.1370 -0.0747 -0.7194
   40MOL   O44537963   4.033   0.707   4.752 -0.4551  0.0910  0.2938
   40MOL   C44637964   4.043   0.792   4.972 -0.6508 -0.1048 -0.2623
   40MOL   C44737965   4.179   0.854   4.933  0.2584  0.2700 -0.2461
   40MOL   C44837966   4.181   0.961   4.814  0.4560  0.3111  0.2995
   40MOL   C44937967   4.309   1.035   4.821  0.2567 -0.3398  0.0183
   40MOL   C45037968   4.300   1.155   4.919  0.2562  0.6280  0.3428
   40MOL   C45137969   4.380   1.282   4.875 -0.3440  0.4241 -0.0109
   40MOL   C45237970   4.411   1.370   4.997  0.1037 -0.3056 -0.0062
   40MOL   C45337971   4.283   1.432   5.059 -0.5366 -0.2348  0.1951
   40MOL   C45437972   4.307   1.560   5.136 -0.3451  1.2361  0.0800
   40MOL   O45537973   4.395   1.571   5.223 -0.1126 -0.2019  0.4785
   40MOL   H45637974   3.455   0.465   4.473  0.8167 -0.6485 -2.5685
   40MOL   H45737975   3.647   0.388   4.687  0.5030 -0.0166 -0.2216
   40MOL   H45837976   3.490   0.359   4.725 -2.7165  0.8346 -1.3396
   40MOL   H45937977   3.316   0.579   4.639  0.5415 -0.4393 -0.8788
   40MOL   H46037978   3.276   0.803   4.701 -0.6820 -2.0850  0.6877
   40MOL   H46137979   3.462   0.951   4.781 -1.6006 -0.9059  0.1158
   40MOL   H46237980   3.680   0.848   4.828 -3.2194  0.5709  3.0988
   40MOL   H46337981   3.804   0.578   4.686  1.2336  0.2938  0.2976
   40MOL   H46437982   3.759   0.489   4.834  0.0650  0.5404  0.6661
   40MOL   H46537983   3.816   0.686   4.969  0.6085 -1.7807  0.9096
   40MOL   H46637984   4.052   0.716   5.050  0.4533 -0.1758 -0.4470
   40MOL   H46737985   3.980   0.875   5.004  0.6858  0.7937  0.1131
   40MOL   H46837986   4.253   0.777   4.911  0.0926  0.2524 -0.7496
   40MOL   H46937987   4.223   0.905   5.020 -0.6465 -0.9261  0.9288
   40MOL   H47037988   4.177   0.909   4.719  0.6086  1.2054 -0.2034
   40MOL   H47137989   4.093   1.026   4.813 -1.4218 -2.1737 -1.1728
   40MOL   H47237990   4.391   0.967   4.839  0.4418 -0.4882 -1.3383
   40MOL   H47337991   4.318   1.077   4.721  0.2486  2.3294  1.0868
   40MOL   H47437992   4.199   1.191   4.940 -0.2526  0.6814 -2.1386
   40MOL   H47537993   4.346   1.121   5.012  0.3828 -2.5122 -0.8144
   40MOL   H47637994   4.333   1.344   4.799 -0.1837  1.0971  0.4313
   40MOL   H47737995   4.470   1.256   4.818 -1.4969 -1.7491 -0.9084
   40MOL   H47837996   4.462   1.318   5.078 -1.7605 -0.0763  1.3493
   40MOL   H47937997   4.474   1.454   4.968  0.5763 -1.4424 -2.3788
   40MOL   H48037998   4.208   1.442   4.981  0.2907 -2.3210 -0.8939
   40MOL   H48137999   4.239   1.356   5.125  0.1021 -0.4486  0.3767
   40MOL   N48238000   4.224   1.659   5.100 -0.4041 -0.1756 -0.0189
   40MOL   C48338001   4.248   1.799   5.154  0.3916  0.2898 -0.1979
   40MOL   C48438002   4.331   1.876   5.059 -0.6158 -0.4739 -0.4234
   40MOL   C48538003   4.282   1.896   4.928 -0.1581  0.0936 -1.0400
   40MOL   C48638004   4.356   1.964   4.833 -0.3801 -0.6874  0.1324
   40MOL   C48738005   4.485   2.017   4.861  0.4856  0.6411 -0.7173
   40MOL   C48838006   4.530   1.999   4.991  0.4283 -0.4037 -0.5121
   40MOL   C48938007   4.455   1.932   5.088 -0.0102 -0.2549  0.5532
   40MOL   C49038008   4.519   1.920   5.229  0.4597 -0.1479 -0.5494
   40MOL   N49138009   4.580   1.786   5.257  0.1051  0.3344  0.5302
   40MOL   C49238010   4.711   1.764   5.238 -0.2464 -0.5412 -0.5032
   40MOL   O49338011   4.781   1.841   5.177 -0.4559  0.1842 -0.4333
   40MOL   C49438012   4.763   1.634   5.307 -0.2184  0.2413 -0.2578
   40MOL   C49538013   4.833   1.539   5.214 -0.8147  0.7827  0.2383
   40MOL   C49638014   4.743   1.457   5.120  0.4662  0.2199 -0.2001
   40MOL   C49738015   4.827   1.361   5.031  1.0684  0.1479  0.2167
   40MOL   C49838016   4.910   1.434   4.923 -0.3822  0.2430  0.5049
   40MOL   C49938017   4.992   1.331   4.836 -0.0288  0.2897 -0.4143
   40MOL   C50038018   5.096   1.412   4.750  0.6337  0.6091  0.2573
   40MOL   C50138019   5.032   1.485   4.631  0.3167 -0.2131 -0.2381
   40MOL   C50238020   5.122   1.578   4.555 -0.0928 -0.8252 -0.1390
   40MOL   O50338021   5.235   1.602   4.598  0.7007 -0.1844 -0.1961
   40MOL   H50438022   4.155   1.649   5.027  0.2409 -0.5962 -0.5725
   40MOL   H50538023   4.152   1.849   5.165  0.1411 -0.3896  0.8370
   40MOL   H50638024   4.290   1.805   5.255  0.2344 -0.9572 -0.0410
   40MOL   H50738025   4.184   1.863   4.897 -0.4754  1.1052 -1.1274
   40MOL   H50838026   4.308   1.980   4.738 -0.9056  2.5610  0.9005
   40MOL   H50938027   4.545   2.057   4.780  1.2072  1.5391  0.2476
   40MOL   H51038028   4.627   2.043   5.010  0.3023 -0.2636 -0.1868
   40MOL   H51138029   4.439   1.935   5.301 -0.6357  0.6297 -1.9091
   40MOL   H51238030   4.593   2.000   5.237  0.7663 -0.6040  1.5305
   40MOL   H51338031   4.531   1.700   5.277 -0.4453  0.5718  0.2080
   40MOL   H51438032   4.676   1.591   5.357 -1.6914  0.3974 -2.5758
   40MOL   H51538033   4.838   1.678   5.371 -1.3646 -1.8210  2.5931
   40MOL   H51638034   4.890   1.471   5.277  0.9011  1.8314 -0.1502
   40MOL   H51738035   4.906   1.596   5.157  0.0709 -0.3019  0.2905
   40MOL   H51838036   4.684   1.391   5.183  2.8332 -1.2687  0.4961
   40MOL   H51938037   4.682   1.519   5.054  1.6202 -0.0852 -1.5765
   40MOL   H52038038   4.891   1.297   5.092  0.4841  0.7857  1.5209
   40MOL   H52138039   4.751   1.305   4.976 -0.2126 -2.1646  4.0839
   40MOL   H52238040   4.838   1.501   4.877  0.3518 -0.0329 -1.0550
   40MOL   H52338041   4.974   1.497   4.985  0.9035  3.0236 -3.4588
   40MOL   H52438042   4.931   1.278   4.763 -1.8387  2.2026 -0.3384
   40MOL   H52538043   5.040   1.266   4.910  0.0424  1.6921  0.8009
   40MOL   H52638044   5.157   1.471   4.818  0.3589  2.5313 -1.1356
   40MOL   H52738045   5.162   1.340   4.702 -0.6590 -0.0627 -0.5572
   40MOL   H52838046   4.953   1.550   4.668  1.1075  1.0378 -0.7040
   40MOL   H52938047   4.994   1.417   4.554 -1.2139 -0.7296  0.9498
   40MOL   N53038048   5.061   1.658   4.467 -0.6518  0.2313  0.8304
   40MOL   C53138049   5.120   1.754   4.368  0.1383 -0.1041  0.3621
   40MOL   C53238050   5.145   1.699   4.227 -0.4713 -0.0982 -0.6242
   40MOL   C53338051   5.274   1.709   4.169  0.3940  0.6039 -0.6994
   40MOL   C53438052   5.308   1.636   4.059  0.4708  1.3501 -0.2017
   40MOL   C53538053   5.216   1.539   4.009  0.2949 -0.5212  0.2847
   40MOL   C53638054   5.086   1.539   4.055 -0.4681  0.4293 -0.4340
   40MOL   C53738055   5.046   1.626   4.160 -0.1027 -0.5948  0.1034
   40MOL   C53838056   4.899   1.649   4.189 -0.4362 -0.1737 -0.4440
   40MOL   N53938057   4.834   1.531   4.227 -0.1149  0.0187  0.2622
   40MOL   C54038058   4.785   1.499   4.348  0.2172  0.3974 -0.9691
   40MOL   O54138059   4.815   1.555   4.450 -0.1353  0.1444  0.1555
   40MOL   C54238060   4.689   1.376   4.356 -0.4093  0.3574 -0.6762
   40MOL   C54338061   4.717   1.283   4.480 -0.4537 -0.3085 -0.8258
   40MOL   C54438062   4.688   1.138   4.457  0.1200  0.9413 -0.1819
   40MOL   C54538063   4.729   1.042   4.570  0.1946  0.1376 -0.2653
   40MOL   C54638064   4.678   0.901   4.528  0.5162  0.2188 -0.6410
   40MOL   C54738065   4.531   0.881   4.565  1.0797  0.1058  0.1809
   40MOL   C54838066   4.452   0.791   4.468 -0.2532  0.2211  0.0070
   40MOL   C54938067   4.309   0.788   4.517 -0.3750 -0.2204  0.4233
   40MOL   C55038068   4.210   0.716   4.423 -0.2965  0.1334 -0.3847
   40MOL   O55138069   4.237   0.724   4.304 -0.2728 -0.4944  0.4131
   40MOL   H55238070   4.962   1.649   4.452 -0.7774  2.3059  0.3725
   40MOL   H55338071   5.221   1.779   4.401 -0.9511  0.5629  3.3358
   40MOL   H55438072   5.072   1.852   4.372 -1.3313 -0.8599  1.7675
   40MOL   H55538073   5.344   1.780   4.210  0.7982 -0.3865  0.3537
   40MOL   H55638074   5.412   1.645   4.028  0.6768 -0.0052  0.0543
   40MOL   H55738075   5.242   1.467   3.932  0.2195 -0.0631 -0.1706
   40MOL   H55838076   5.016   1.484   3.994 -0.7292  1.1269 -0.7734
   40MOL   H55938077   4.857   1.683   4.093  1.0911  1.2662 -0.6238
   40MOL   H56038078   4.885   1.732   4.258  1.2813 -0.6231  0.4469
   40MOL   H56138079   4.836   1.456   4.160 -0.2703 -1.0605  1.4566
   40MOL   H56238080   4.707   1.315   4.268  1.2569  0.5488 -0.5006
   40MOL   H56338081   4.587   1.414   4.357 -0.3274  0.6074 -1.7854
   40MOL   H56438082   4.667   1.316   4.571  0.0038 -1.1494 -0.2671
   40MOL   H56538083   4.821   1.303   4.504 -1.0791  2.3746 -0.1086
   40MOL   H56638084   4.585   1.122   4.426 -0.0449  0.3989  0.6349
   40MOL   H56738085   4.751   1.105   4.374 -2.3376 -0.3344 -1.5758
   40MOL   H56838086   4.834   1.052   4.599 -0.0954  0.8374  0.5854
   40MOL   H56938087   4.685   1.064   4.668 -0.0570 -1.8468  0.0992
   40MOL   H57038088   4.710   0.885   4.425  0.9986 -3.3098 -0.0101
   40MOL   H57138089   4.733   0.817   4.571 -0.5632  0.4986  1.3088
   40MOL   H57238090   4.490   0.982   4.571  1.1359  0.0525  1.4937
   40MOL   H57338091   4.527   0.832   4.662  1.7093 -0.5731 -0.1386
   40MOL   H57438092   4.459   0.829   4.367 -2.1233  1.1389  0.2031
   40MOL   H57538093   4.495   0.691   4.468 -0.9802 -0.1187 -2.6869
   40MOL   H57638094   4.265   0.886   4.534  0.8496  0.4621 -0.3287
   40MOL   H57738095   4.316   0.734   4.612  3.2843  0.1897  0.4558
   40MOL   N57838096   4.106   0.650   4.479 -0.3114  0.0662 -0.1626
   40MOL   C57938097   3.998   0.583   4.411 -0.5551 -0.1232 -0.1746
   40MOL   C58038098   3.894   0.688   4.362  0.1705  0.6978  0.0162
   40MOL   C58138099   3.832   0.772   4.462  0.0806  0.1098  0.4746
   40MOL   C58238100   3.740   0.872   4.425 -0.3964 -0.6200  0.9925
   40MOL   C58338101   3.712   0.885   4.290 -0.7662  0.0049 -1.1332
   40MOL   C58438102   3.769   0.799   4.191  0.3417 -0.1056  0.2181
   40MOL   C58538103   3.863   0.704   4.229  0.6728 -0.3798  0.1090
   40MOL   C58638104   3.916   0.621   4.117  0.0463 -0.0108 -0.4542
   40MOL   N58738105   4.046   0.661   4.074 -0.0081 -0.5181  0.0135
   40MOL   C58838106   4.103   0.656   3.954  0.3300 -0.5838 -0.1953
   40MOL   O58938107   4.043   0.617   3.852  0.5581 -0.3166 -0.2444
   40MOL   C59038108   4.241   0.720   3.954  0.6627 -0.0600 -0.5229
   40MOL   C59138109   4.254   0.798   3.821 -0.2001  0.3032 -0.2248
   40MOL   C59238110   4.389   0.864   3.801  0.2868 -0.0680  0.5205
   40MOL   C59338111   4.375   0.972   3.689  0.5392 -0.1598  0.0816
   40MOL   C59438112   4.514   1.037   3.653 -0.2868  0.1375  0.0786
   40MOL   C59538113   4.518   1.086   3.508 -0.1226 -0.8660 -0.3340
   40MOL   C59638114   4.645   1.164   3.471  0.4705  0.6691 -0.4048
   40MOL   C59738115   4.631   1.242   3.342  0.8627  1.0872 -0.0375
   40MOL   C59838116   4.747   1.328   3.299  0.9847 -0.1551 -0.1700
   40MOL   O59938117   4.867   1.297   3.321  0.3980 -0.0466  0.3587
   40MOL   H60038118   4.087   0.654   4.578  0.4474 -0.0750 -0.0034
   40MOL   H60138119   3.942   0.514   4.473 -0.2262  0.7400  1.0947
   40MOL   H60238120   4.033   0.535   4.319  0.8471 -0.6376  0.5990
   40MOL   H60338121   3.857   0.768   4.567  0.8957 -0.8913  0.2521
   40MOL   H60438122   3.703   0.944   4.496  1.7143 -0.7351  2.2523
   40MOL   H60538123   3.630   0.949   4.260 -1.3603 -1.3330 -2.4440
   40MOL   H60638124   3.745   0.818   4.088  1.8655  1.4888  0.1315
   40MOL   H60738125   3.847   0.631   4.033 -0.0883 -1.6075 -0.5572
   40MOL   H60838126   3.908   0.516   4.147 -0.8924 -0.3763 -1.8922
   40MOL   H60938127   4.106   0.692   4.150 -2.1497  0.9855  1.1266
   40MOL   H61038128   4.320   0.645   3.943  0.4128 -0.0487 -2.5962
   40MOL   H61138129   4.269   0.771   4.046  3.7109 -1.0268 -0.8490
   40MOL   H61238130   4.175   0.871   3.836 -1.2745 -0.8171 -0.4229
   40MOL   H61338131   4.235   0.734   3.735 -0.3033 -0.6073  0.4657
   40MOL   H61438132   4.409   0.927   3.887  1.5141  0.5592 -0.1976
   40MOL   H61538133   4.469   0.795   3.775  0.4817  1.4704 -3.5240
   40MOL   H61638134   4.343   0.917   3.600  1.3969 -0.0974 -0.2818
   40MOL   H61738135   4.301   1.048   3.714  0.7905  1.1975 -3.0219
   40MOL   H61838136   4.522   1.111   3.733 -0.9580  1.9871 -1.5257
   40MOL   H61938137   4.600   0.974   3.677  0.3179  1.2927  1.0285
   40MOL   H62038138   4.430   1.140   3.472 -0.0248 -0.2985  0.2676
   40MOL   H62138139   4.530   0.995   3.449 -0.8371 -3.1726  2.9824
   40MOL   H62238140   4.658   1.235   3.552  2.2297 -0.2240  0.1213
   40MOL   H62338141   4.734   1.103   3.469  0.6770  0.7286  3.6261
   40MOL   H62438142   4.607   1.175   3.260 -2.5170 -0.8043  2.3632
   40MOL   H62538143   4.545   1.306   3.362 -0.8443 -1.6225  1.6745
   40MOL   N62638144   4.715   1.440   3.230  0.0638 -0.2701 -0.2936
   40MOL   C62738145   4.817   1.537   3.185 -0.0280  0.0110  0.8595
   40MOL   C62838146   4.821   1.577   3.040 -0.4536  0.3684  0.2334
   40MOL   C62938147   4.747   1.495   2.950  0.4507  0.2695 -0.1973
   40MOL   C63038148   4.750   1.515   2.814 -0.0917 -0.1109 -0.3866
   40MOL   C63138149   4.829   1.613   2.753 -0.0508  0.0197  0.0451
   40MOL   C63238150   4.901   1.696   2.841 -0.1873  0.3646  0.6150
   40MOL   C63338151   4.896   1.679   2.981 -0.5013  0.7591 -0.1207
   40MOL   C63438152   4.968   1.782   3.056 -0.3694  0.7984  0.3060
   40MOL   N63538153   4.882   1.884   3.117  0.1326 -0.2960 -0.8409
   40MOL   C63638154   4.882   1.906   3.249  0.4064 -0.6833  0.0803
   40MOL   O63738155   4.965   1.854   3.320  0.3685 -0.1286  0.4233
   40MOL   C63838156   4.780   2.004   3.308 -0.3224 -0.3806 -0.4539
   40MOL   C63938157   4.813   2.071   3.443  0.2692  0.3765 -0.3023
   40MOL   C64038158   4.944   2.163   3.442  0.5686  0.0901  0.4469
   40MOL   C64138159   4.973   2.219   3.581  0.4845  0.1591  0.6322
   40MOL   C64238160   5.114   2.271   3.609 -0.2329  1.0196  0.6956
   40MOL   C64338161   5.149   2.386   3.516  0.0850 -0.5932 -0.4776
   40MOL   C64438162   5.301   2.431   3.522  0.1637  0.3835  0.3645
   40MOL   C64538163   5.399   2.340   3.462  0.2814 -0.0421  0.0748
   40MOL   C64638164   5.532   2.412   3.431 -0.1493  0.3615 -0.2702
   40MOL   O64738165   5.620   2.425   3.515 -0.4743 -0.0357  0.2559
   40MOL   H64838166   4.617   1.463   3.240  0.7316  2.0871  1.1589
   40MOL   H64938167   4.917   1.508   3.215  0.8824  2.9823  0.8574
   40MOL   H65038168   4.792   1.638   3.220  0.0285  0.0385  0.8196
   40MOL   H65138169   4.687   1.410   2.981 -1.8729  1.8012 -0.3041
   40MOL   H65238170   4.691   1.454   2.747 -1.9952 -0.3114  1.4370
   40MOL   H65338171   4.825   1.634   2.647 -0.8563  0.7188  0.2058
   40MOL   H65438172   4.960   1.770   2.788 -0.2401  0.7816  1.1296
   40MOL   H65538173   5.041   1.830   2.991 -0.5203  1.2188  0.4406
   40MOL   H65638174   5.032   1.734   3.130 -1.0456 -0.5688  0.0102
   40MOL   H65738175   4.804   1.926   3.069  0.9083 -1.0960 -2.8544
   40MOL   H65838176   4.686   1.949   3.316 -0.1179 -0.6356  0.2356
   40MOL   H65938177   4.758   2.068   3.223  2.7558 -0.8596 -1.6831
   40MOL   H66038178   4.835   1.990   3.513  3.7115  1.1182 -0.4390
   40MOL   H66138179   4.721   2.128   3.459 -1.4951 -1.5949 -2.9607
   40MOL   H66238180   5.037   2.110   3.417  0.2498 -0.2776  0.0267
   40MOL   H66338181   4.945   2.244   3.368 -0.5405  0.9014  1.3241
   40MOL   H66438182   4.913   2.308   3.602  0.5686  0.5810 -0.8052
   40MOL   H66538183   4.931   2.157   3.660  0.3725  1.4217  1.5732
   40MOL   H66638184   5.109   2.314   3.708 -0.0631  0.1014  1.1086
   40MOL   H66738185   5.191   2.193   3.607 -0.6838  0.5693  0.8510
   40MOL   H66838186   5.085   2.470   3.544  1.1001  0.3225 -0.8292
   40MOL   H66938187   5.123   2.366   3.412  0.4460 -0.5415 -0.5812
   40MOL   H67038188   5.311   2.528   3.473  4.1291  0.7708  1.7489
   40MOL   H67138189   5.333   2.440   3.626  0.0861  0.6389  0.3688
   40MOL   H67238190   5.353   2.296   3.373  0.0064 -1.0822  0.7290
   40MOL   H67338191   5.434   2.252   3.516  1.6432 -0.5628 -1.5641
   40MOL   N67438192   5.547   2.456   3.304 -0.1116 -0.0009 -0.1496
   40MOL   C67538193   5.659   2.539   3.257 -0.5515  0.2728 -0.1600
   40MOL   C67638194   5.671   2.534   3.108 -0.4539  0.2561 -0.0205
   40MOL   C67738195   5.625   2.640   3.030 -0.1475  0.0934 -0.2234
   40MOL   C67838196   5.649   2.641   2.894 -0.6091 -0.7335  0.0222
   40MOL   C67938197   5.706   2.532   2.826 -0.3183 -0.0031  0.2313
   40MOL   C68038198   5.748   2.419   2.901  0.4260  0.3660  0.2377
   40MOL   C68138199   5.735   2.424   3.046 -0.2011  0.3004  0.2920
   40MOL   C68238200   5.782   2.304   3.127  0.1022 -0.0173  0.9842
   40MOL   N68338201   5.835   2.190   3.049 -0.0796  0.1014 -0.7809
   40MOL   C68438202   5.952   2.128   3.072 -0.0440 -0.1868  0.5921
   40MOL   O68538203   6.028   2.161   3.155  0.0904 -0.0102 -0.2166
   40MOL   C68638204   5.991   2.011   2.982  0.2335  0.2943 -0.2926
   40MOL   C68738205   6.137   1.963   3.012  0.7211  0.0005 -0.6493
   40MOL   C68838206   6.180   1.836   2.945 -0.5473  0.2830  0.8039
   40MOL   C68938207   6.201   1.816   2.790  0.2474 -0.3621  0.3837
   40MOL   C69038208   6.074   1.801   2.709 -0.0392 -1.2693 -0.0246
   40MOL   C69138209   6.091   1.788   2.562  0.0436 -0.3104 -0.1233
   40MOL   C69238210   6.110   1.929   2.495  0.4244 -0.5088 -0.1140
   40MOL   C69338211   6.116   1.923   2.348  0.0528 -0.3800 -0.4166
   40MOL   C69438212   6.182   2.045   2.279 -0.2139  0.7919 -0.0994
   40MOL   O69538213   6.157   2.156   2.321 -0.3462 -0.1584 -0.1949
   40MOL   H69638214   5.463   2.444   3.249 -0.7025 -0.8996  0.9232
   40MOL   H69738215   5.746   2.493   3.304 -0.2446  3.5280  2.6008
   40MOL   H69838216   5.661   2.639   3.300 -2.0030 -0.1262  0.8642
   40MOL   H69938217   5.572   2.721   3.079  0.0880 -0.0689  0.3113
   40MOL   H70038218   5.619   2.726   2.835 -0.9003 -0.9960 -0.2140
   40MOL   H70138219   5.713   2.527   2.718 -1.3564  1.5367  0.0868
   40MOL   H70238220   5.771   2.329   2.847 -0.3124 -0.0660  0.6388
   40MOL   H70338221   5.707   2.270   3.198  1.1477 -0.0766  2.0761
   40MOL   H70438222   5.868   2.336   3.187 -0.0400 -0.3482  1.3637
   40MOL   H70538223   5.772   2.153   2.979 -0.3848 -0.1933 -0.3568
   40MOL   H70638224   5.983   2.050   2.881  1.1173  4.8048  1.2674
   40MOL   H70738225   5.917   1.933   3.003  0.6055  0.8103  3.3409
   40MOL   H70838226   6.159   1.962   3.119 -0.0053 -0.6512 -0.5022
   40MOL   H70938227   6.208   2.041   2.985 -0.5410  2.7751  3.5654
   40MOL   H71038228   6.273   1.811   2.995 -1.3017 -0.3544  1.9167
   40MOL   H71138229   6.108   1.762   2.980  0.4841 -0.9695  0.3087
   40MOL   H71238230   6.263   1.890   2.739  1.6890 -2.1216 -0.4453
   40MOL   H71338231   6.269   1.731   2.792 -0.4034 -0.8968 -0.4355
   40MOL   H71438232   6.024   1.707   2.733 -1.0432 -1.4824 -2.7187
   40MOL   H71538233   6.003   1.882   2.726  0.5715 -0.5341 -0.9955
   40MOL   H71638234   6.013   1.727   2.517 -1.4295  0.1842  1.6645
   40MOL   H71738235   6.186   1.741   2.538  0.1215 -0.3280  0.2144
   40MOL   H71838236   6.210   1.960   2.526 -0.9160 -0.1958  4.2561
   40MOL   H71938237   6.041   2.006   2.529  2.0862  0.1048  2.0230
   40MOL   H72038238   6.016   1.925   2.303  1.0505 -0.2403 -2.7193
   40MOL   H72138239   6.157   1.835   2.300 -2.1461 -2.1075  0.7832
   40MOL   N72238240   6.271   2.015   2.182 -0.4753 -0.2437 -0.1588
   40MOL   C72338241   6.351   2.102   2.093 -0.3957  0.8833 -0.5732
   40MOL   C72438242   6.489   2.046   2.087 -0.8411  0.1281 -0.3270
   40MOL   C72538243   6.589   2.104   2.175 -0.1695 -0.1337 -0.4474
   40MOL   C72638244   6.722   2.055   2.161 -0.0446 -0.2976 -0.0325
   40MOL   C72738245   6.759   1.953   2.075 -0.5058 -0.1283  0.3547
   40MOL   C72838246   6.661   1.901   1.988 -0.5635  0.0361  1.0446
   40MOL   C72938247   6.530   1.944   1.995 -0.0812 -0.3454  0.4771
   40MOL   C73038248   6.421   1.874   1.908 -0.0442 -0.2718  0.4010
   40MOL   N73138249   6.395   1.734   1.951 -0.0760 -0.6380  0.2807
   40MOL   C73238250   6.288   1.685   2.024 -0.5375 -0.0647  0.4739
   40MOL   O73338251   6.201   1.763   2.059 -0.0894  0.1263 -0.3050
   40MOL   C73438252   6.290   1.545   2.068  0.2252  0.2342  0.8703
   40MOL   C73538253   6.149   1.485   2.040 -0.5279  0.3022  0.0955
   40MOL   C73638254   6.094   1.489   1.894 -0.3917  0.5011 -0.5397
   40MOL   C73738255   5.947   1.447   1.892  0.7293  0.0694  0.8975
   40MOL   C73838256   5.878   1.488   1.757  0.4199 -0.5397  0.0510
   40MOL   C73938257   5.735   1.438   1.739 -0.1371 -0.7078  0.6511
   40MOL   C74038258   5.655   1.509   1.629 -0.3891 -0.0167  0.0216
   40MOL   C74138259   5.716   1.492   1.489  0.0007 -0.1907 -0.0903
   40MOL   C74238260   5.730   1.351   1.440 -0.2537 -0.2590  0.3072
   40MOL   O74338261   5.823   1.283   1.491 -0.2859  0.1464 -0.0118
   40MOL   H74438262   6.265   1.917   2.158 -1.0619 -0.1567 -0.3668
   40MOL   H74538263   6.351   2.202   2.135 -0.3976 -0.6248  3.2444
   40MOL   H74638264   6.308   2.109   1.994 -4.8246  0.1691  1.1839
   40MOL   H74738265   6.563   2.180   2.248 -0.6787 -0.9383  0.2150
   40MOL   H74838266   6.801   2.092   2.225  0.2502  1.7394 -1.5264
   40MOL   H74938267   6.856   1.906   2.082 -1.5072 -2.2347  0.4454
   40MOL   H75038268   6.687   1.819   1.922  0.2791  0.5728  0.6888
   40MOL   H75138269   6.463   1.872   1.808  0.4707  0.3441  0.6023
   40MOL   H75238270   6.323   1.922   1.902  0.1170 -0.1692 -1.5930
   40MOL   H75338271   6.456   1.663   1.912  2.0554  0.7397  1.0043
   40MOL   H75438272   6.318   1.531   2.172  0.2779  1.8550  1.0845
   40MOL   H75538273   6.367   1.495   2.010  0.6301  0.1047  1.5229
   40MOL   H75638274   6.073   1.522   2.110 -0.5405  0.9789 -0.2732
   40MOL   H75738275   6.138   1.379   2.062  0.2956  0.3840  0.8827
   40MOL   H75838276   6.103   1.592   1.860  4.5888  0.3629  0.0892
   40MOL   H75938277   6.155   1.422   1.834  0.5990  0.0670  0.9134
   40MOL   H76038278   5.926   1.340   1.903 -0.6666  0.4196  1.8009
   40MOL   H76138279   5.889   1.488   1.974 -1.1291 -0.3247 -0.2087
   40MOL   H76238280   5.869   1.595   1.742  0.0095 -0.6995 -0.9498
   40MOL   H76338281   5.940   1.449   1.676  2.6225  0.6085  1.1807
   40MOL   H76438282   5.686   1.449   1.836 -0.1556  1.2012  0.4455
   40MOL   H76538283   5.739   1.331   1.719  1.1742 -0.4443 -0.5715
   40MOL   H76638284   5.553   1.471   1.641  0.2909 -1.3966  1.7100
   40MOL   H76738285   5.658   1.614   1.658 -0.8291  0.3039 -1.0868
   40MOL   H76838286   5.652   1.550   1.423 -0.3380  0.3788  0.7426
   40MOL   H76938287   5.812   1.542   1.477 -0.1624  0.0351 -0.4787
   40MOL   N77038288   5.657   1.302   1.340  0.2499 -0.2212  0.0115
   40MOL   C77138289   5.689   1.176   1.272  0.0292  0.1702  0.4551
   40MOL   C77238290   5.576   1.133   1.180  0.3535  0.6319  0.1987
   40MOL   C77338291   5.488   1.035   1.230  0.3693  0.5281  0.4615
   40MOL   C77438292   5.388   0.979   1.149 -0.8143  0.9321  0.4476
   40MOL   C77538293   5.373   1.014   1.012  0.1441  0.1441 -0.6427
   40MOL   C77638294   5.459   1.122   0.969  0.1253 -0.5324 -0.1051
   40MOL   C77738295   5.566   1.177   1.046 -0.2647  0.2806  0.5544
   40MOL   C77838296   5.676   1.269   0.982 -0.2379 -0.2935  0.0634
   40MOL   N77938297   5.788   1.192   0.938  0.4936  0.5020  0.0490
   40MOL   C78038298   5.796   1.139   0.819  0.4968  0.2299  0.8208
   40MOL   O78138299   5.702   1.120   0.737 -0.1196  0.7067  0.1551
   40MOL   C78238300   5.940   1.106   0.772  0.2237  0.5009 -0.0592
   40MOL   C78338301   5.959   1.047   0.637 -0.1007  0.1503 -0.0817
   40MOL   C78438302   6.106   1.034   0.582  0.0389 -0.2506  0.1645
   40MOL   C78538303   6.122   1.065   0.430  0.2451  0.1705 -0.0889
   40MOL   C78638304   6.136   1.220   0.397 -0.0798 -0.4402 -0.8012
   40MOL   C78738305   6.092   1.248   0.254  0.8446 -0.1374 -0.2025
   40MOL   C78838306   6.104   1.405   0.220  0.2045 -0.8012 -0.2028
   40MOL   C78938307   6.058   1.447   0.076  0.3144  0.4189  0.2019
   40MOL   C79038308   6.106   1.586   0.034 -0.2673 -0.1923 -0.8429
   40MOL   O79138309   6.119   1.675   0.113  0.2661 -0.5599 -0.1634
   40MOL   H79238310   5.588   1.366   1.302  2.0840  1.6806 -0.2388
   40MOL   H79338311   5.784   1.181   1.219 -0.7144  0.2656 -0.8717
   40MOL   H79438312   5.712   1.101   1.348 -0.8584  0.7545  1.3140
   40MOL   H79538313   5.495   1.003   1.332 -0.1351  2.2006  1.0393
   40MOL   H79638314   5.320   0.905   1.189 -0.8352  1.1847  0.8766
   40MOL   H79738315   5.300   0.971   0.946 -2.2933 -0.4348  2.2987
   40MOL   H79838316   5.447   1.151   0.865 -0.6713  2.5093  0.7969
   40MOL   H79938317   5.706   1.337   1.061  2.0226  0.5168 -1.4547
   40MOL   H80038318   5.640   1.329   0.898  0.6854 -0.6048 -0.5602
   40MOL   H80138319   5.875   1.203   0.987 -0.0774  0.9604  0.9747
   40MOL   H80238320   5.996   1.063   0.855 -1.8623  1.0661  1.7136
   40MOL   H80338321   5.980   1.207   0.759 -0.7618  0.7799 -1.0008
   40MOL   H80438322   5.904   1.113   0.569  0.3669 -0.5074 -1.1012
   40MOL   H80538323   5.913   0.951   0.614  0.0838  0.5895 -2.3995
   40MOL   H80638324   6.146   0.935   0.603 -2.0231 -1.1609 -0.0449
   40MOL   H80738325   6.173   1.101   0.635  2.0863 -2.6247  0.6941
   40MOL   H80838326   6.216   1.020   0.399 -0.0031 -0.4447  0.0477
   40MOL   H80938327   6.036   1.030   0.374 -0.0694  0.2949  0.3123
   40MOL   H81038328   6.077   1.277   0.468 -0.8979 -0.5761 -1.3572
   40MOL   H81138329   6.242   1.242   0.401 -0.2185  0.0761 -0.0028
   40MOL   H81238330   5.988   1.223   0.233  0.3034  0.4101  1.7764
   40MOL   H81338331   6.150   1.200   0.175 -0.5643  0.1908 -1.4579
   40MOL   H81438332   6.208   1.437   0.227 -0.0826  0.5888 -1.9136
   40MOL   H81538333   6.047   1.461   0.294 -0.8024  2.2792 -3.1884
   40MOL   H81638334   5.949   1.443   0.067  0.3085  1.1326 -0.1067
   40MOL   H81738335   6.096   1.372   0.007 -0.8691  1.1093 -1.2304
   40MOL   N81838336   6.158   1.593   7.697  0.1445  0.0307 -0.9732
   40MOL   C81938337   6.220   1.714   7.633 -0.3321 -0.3850 -0.2741
   40MOL   C82038338   6.347   1.674   7.557  0.2451  0.3886 -0.8902
   40MOL   C82138339   6.337   1.596   7.440  0.2577  0.4087  0.5473
   40MOL   C82238340   6.452   1.562   7.361  0.3746 -0.3262 -1.2107
   40MOL   C82338341   6.579   1.596   7.409  0.7066 -0.3811 -0.7189
   40MOL   C82438342   6.594   1.671   7.529 -0.2975  0.4641  0.5929
   40MOL   C82538343   6.476   1.715   7.604  0.1400 -0.4773  0.3719
   40MOL   C82638344   6.500   1.794   7.731 -0.4156 -0.0302 -0.4133
   40MOL   N82738345   6.457   1.722   0.064 -0.8400 -0.4622 -0.1109
   40MOL   C82838346   6.508   1.737   0.184 -0.1012 -0.7703 -0.2269
   40MOL   O82938347   6.605   1.809   0.211 -0.1297  0.0293 -0.4114
   40MOL   C83038348   6.433   1.656   0.287 -0.8970  0.1624  0.0072
   40MOL   C83138349   6.338   1.756   0.359 -0.3334 -0.6999  0.0151
   40MOL   C83238350   6.246   1.701   0.465  0.5024  0.2065 -0.5563
   40MOL   C83338351   6.306   1.588   0.550  0.4108 -0.1168 -0.2729
   40MOL   C83438352   6.199   1.543   0.657 -0.1823 -0.9881  0.2464
   40MOL   C83538353   6.187   1.632   0.783 -0.2115 -1.0670  0.0031
   40MOL   C83638354   6.294   1.588   0.887  0.2182 -0.2020 -0.0272
   40MOL   C83738355   6.297   1.677   1.015  0.2651  0.3211 -0.0061
   40MOL   C83838356   6.382   1.632   1.136 -0.8449 -0.1350  0.3351
   40MOL   O83938357   6.426   1.515   1.144 -0.5975  0.0350  0.0878
   40MOL   H84038358   6.130   1.518   7.636 -0.5574 -0.7639  0.3102
   40MOL   H84138359   6.160   1.760   7.554  1.0987  0.0261 -1.1371
   40MOL   H84238360   6.234   1.790   7.710  0.0638  1.3308 -2.0093
   40MOL   H84338361   6.237   1.570   7.405  0.2698  0.5345  0.4173
   40MOL   H84438362   6.438   1.510   7.268 -1.7659 -0.6252 -0.7429
   40MOL   H84538363   6.668   1.561   7.359  0.9885  2.0133 -1.9598
   40MOL   H84638364   6.692   1.703   7.560  0.8091 -0.6665 -1.6480
   40MOL   H84738365   6.436   1.880   7.709 -3.2559 -2.0580 -0.3721
   40MOL   H84838366   6.603   1.826   7.720 -1.2199  3.3542  1.2145
   40MOL   H84938367   6.374   1.665   0.055 -1.7603  0.8399 -0.0741
   40MOL   H85038368   6.499   1.601   0.355  0.2162  1.2245 -0.1899
   40MOL   H85138369   6.374   1.580   0.237  1.4686  0.2632 -3.1144
   40MOL   H85238370   6.269   1.805   0.291 -1.4585 -0.4008  1.3567
   40MOL   H85338371   6.385   1.844   0.404  1.7317 -1.0311 -1.4306
   40MOL   H85438372   6.161   1.666   0.406  0.7126 -0.9055 -0.2096
   40MOL   H85538373   6.215   1.782   0.530  2.8872 -1.7606  3.2022
   40MOL   H85638374   6.322   1.502   0.485 -1.4885 -1.1511  0.5769
   40MOL   H85738375   6.402   1.622   0.588 -0.8617  3.5668 -0.1656
   40MOL   H85838376   6.099   1.533   0.614  0.5303  2.1048 -2.2941
   40MOL   H85938377   6.221   1.439   0.681 -0.2982 -0.6178  1.9918
   40MOL   H86038378   6.090   1.614   0.831  0.5777  0.3733  2.1725
   40MOL   H86138379   6.208   1.737   0.768 -0.0255 -0.7691  2.1745
   40MOL   H86238380   6.396   1.588   0.849  0.2601  1.2672  0.0539
   40MOL   H86338381   6.273   1.485   0.916  0.3099  0.1064  1.1629
   40MOL   H86438382   6.331   1.774   0.978  2.5905 -0.9241 -1.2751
   40MOL   H86538383   6.195   1.695   1.048 -0.5866 -1.2649 -1.7041
   40MOL   N86638384   6.424   1.727   1.220  0.2426  0.1877  0.1751
   40MOL   C86738385   6.524   1.712   1.331  0.2173  0.1739 -0.2044
   40MOL   C86838386   6.656   1.793   1.320  0.5762  0.6228 -0.4229
   40MOL   C86938387   6.706   1.840   1.197 -0.7445  1.0868  0.8062
   40MOL   C87038388   6.825   1.915   1.187 -0.3061 -0.5421 -0.1636
   40MOL   C87138389   6.894   1.953   1.308  0.4689 -0.1566  1.3022
   40MOL   C87238390   6.843   1.911   1.432  0.8239 -0.5535  0.9685
   40MOL   C87338391   6.727   1.826   1.440  0.1805  0.3549 -0.2729
   40MOL   C87438392   6.679   1.793   1.583 -0.9127  0.0219  0.3358
   40MOL   N87538393   6.707   1.649   1.610  0.0843  0.3034 -0.0295
   40MOL   C87638394   6.637   1.568   1.692  0.0693  0.6653  0.7505
   40MOL   O87738395   6.531   1.600   1.742  0.5102 -0.0003 -0.1361
   40MOL   C87838396   6.689   1.424   1.714  0.5893 -0.2114 -0.9420
   40MOL   C87938397   6.792   1.409   1.829  0.1194 -0.8974  0.3539
   40MOL   C88038398   6.733   1.457   1.963 -0.1382  0.1284  0.2658
   40MOL   C88138399   6.834   1.455   2.077 -0.0834  0.4141 -0.4137
   40MOL   C88238400   6.817   1.564   2.181  0.0675 -0.0202  0.8212
   40MOL   C88338401   6.671   1.580   2.233  1.0918 -0.0720 -0.6980
   40MOL   C88438402   6.665   1.686   2.334  0.4261 -0.2735 -0.5483
   40MOL   C88538403   6.528   1.756   2.331 -0.6003  0.5026 -0.0555
   40MOL   C88638404   6.493   1.832   2.464 -1.0408 -0.5335 -0.6494
   40MOL   O88738405   6.473   1.778   2.573 -0.4887  0.3385  0.5631
   40MOL   H88838406   6.393   1.819   1.191 -1.2154 -0.3598 -0.0338
   40MOL   H88938407   6.470   1.756   1.415  1.3284  0.8551  0.1749
   40MOL   H89038408   6.538   1.606   1.350  1.2785 -0.2657 -3.1680
   40MOL   H89138409   6.652   1.836   1.104 -1.7880 -0.7559  1.4708
   40MOL   H89238410   6.860   1.936   1.087 -0.8370 -0.8300 -0.4101
   40MOL   H89338411   6.983   2.014   1.309 -1.3001  2.5825 -0.5284
   40MOL   H89438412   6.894   1.948   1.519 -1.5910  0.9407  1.7993
   40MOL   H89538413   6.574   1.824   1.588 -0.4041  1.9913 -0.6172
   40MOL   H89638414   6.742   1.847   1.653 -0.5790 -1.8068  1.4776
   40MOL   H89738415   6.791   1.624   1.560 -1.0209  0.1698 -1.8594
   40MOL   H89838416   6.741   1.388   1.625  1.1268 -0.4475 -0.5344
   40MOL   H89938417   6.601   1.361   1.724 -0.4364  1.3750  0.1511
   40MOL   H90038418   6.886   1.462   1.815  0.6780 -2.1350 -0.7073
   40MOL   H90138419   6.822   1.306   1.847  1.9601 -0.4284  0.0454
   40MOL   H90238420   6.703   1.561   1.954 -3.2285 -0.6766  0.8251
   40MOL   H90338421   6.646   1.396   1.988 -0.3756  0.0028 -0.8462
   40MOL   H90438422   6.818   1.356   2.118 -0.7499  0.8579  0.4125
   40MOL   H90538423   6.934   1.466   2.036  0.0806  0.9786  0.1289
   40MOL   H90638424   6.878   1.529   2.265  0.6383 -1.4423 -0.1648
   40MOL   H90738425   6.858   1.660   2.152 -2.0012  0.5622 -0.2323
   40MOL   H90838426   6.630   1.488   2.274  1.7267  0.3062  0.8098
   40MOL   H90938427   6.611   1.619   2.150  0.4611  0.8996  0.1960
   40MOL   H91038428   6.692   1.642   2.430 -2.2042  1.1712  0.8942
   40MOL   H91138429   6.742   1.762   2.322 -0.2443  0.2767 -1.4630
   40MOL   H91238430   6.520   1.830   2.252 -0.6764  0.4988 -0.0518
   40MOL   H91338431   6.451   1.680   2.319 -0.3386  0.0845  0.8158
   40MOL   N91438432   6.501   1.969   2.446 -0.5267 -0.2157  0.3038
   40MOL   C91538433   6.479   2.055   2.562  0.2603  0.3314  0.1228
   40MOL   C91638434   6.557   2.186   2.539 -1.1665  0.2270 -0.3773
   40MOL   C91738435   6.498   2.291   2.465 -0.3718 -0.1934  0.2955
   40MOL   C91838436   6.570   2.401   2.430 -0.6075  0.0086  0.9187
   40MOL   C91938437   6.705   2.417   2.467  0.7062  0.0792 -0.1086
   40MOL   C92038438   6.774   2.309   2.520 -0.2157 -0.0774 -0.2175
   40MOL   C92138439   6.695   2.199   2.566 -0.2076  0.0713  0.1913
   40MOL   C92238440   6.770   2.074   2.616  0.0411  0.0434  0.0280
   40MOL   N92338441   6.918   2.079   2.582  0.4062  0.8189  0.5076
   40MOL   C92438442   6.988   2.034   2.475  0.0102 -0.6314 -0.4850
   40MOL   O92538443   6.938   1.962   2.389  0.4742 -0.4458 -0.0401
   40MOL   C92638444   7.132   2.096   2.453  0.0664  0.0966  0.3552
   40MOL   C92738445   7.154   2.129   2.305 -0.2470  0.6144  0.0026
   40MOL   C92838446   7.100   2.261   2.257  1.0890  0.4989  0.8263
   40MOL   C92938447   7.132   2.294   2.112  0.7274  0.6327  0.7199
   40MOL   C93038448   7.024   2.229   2.016 -0.1243 -0.7472  0.0994
   40MOL   C93138449   7.059   2.246   1.873  0.2526  0.0406  0.1201
   40MOL   C93238450   6.946   2.174   1.789 -0.2139 -0.3846 -0.3666
   40MOL   C93338451   6.954   2.215   1.641 -0.3070 -0.0739  0.6755
   40MOL   C93438452   6.917   2.355   1.596  0.5296  0.3045  0.8605
   40MOL   O93538453   6.846   2.430   1.655  0.1829 -0.2701 -0.4466
   40MOL   H93638454   6.526   2.008   2.357 -2.6649 -0.1376 -0.2894
   40MOL   H93738455   6.375   2.084   2.579  0.4625  3.8585 -3.7721
   40MOL   H93838456   6.508   2.006   2.655 -0.7982 -0.6215 -0.0433
   40MOL   H93938457   6.397   2.280   2.430  0.0367  1.0144 -1.2986
   40MOL   H94038458   6.524   2.478   2.370  0.2448  0.6772  1.1185
   40MOL   H94138459   6.759   2.502   2.426 -2.5278  2.1960 -0.1710
   40MOL   H94238460   6.882   2.306   2.524 -0.1963  1.3276  0.3658
   40MOL   H94338461   6.732   1.981   2.574 -0.0130 -0.1403  0.4707
   40MOL   H94438462   6.770   2.072   2.725 -0.7562  1.1061  0.0568
   40MOL   H94538463   6.964   2.157   2.626 -0.4947  1.5690  0.1527
   40MOL   H94638464   7.209   2.031   2.497 -0.9787 -1.4598 -0.0749
   40MOL   H94738465   7.129   2.190   2.509 -3.0465 -0.3640  1.0254
   40MOL   H94838466   7.109   2.059   2.235 -1.5383 -0.0205  1.4480
   40MOL   H94938467   7.258   2.112   2.279 -0.5987 -4.3363  1.3648
   40MOL   H95038468   6.993   2.266   2.277  0.8552 -0.0254 -0.2529
   40MOL   H95138469   7.134   2.347   2.315  2.1186  0.5647  0.1650
   40MOL   H95238470   7.130   2.401   2.092  1.8676  0.4501 -0.4726
   40MOL   H95338471   7.235   2.265   2.089  0.8100  0.7481  0.9481
   40MOL   H95438472   6.928   2.277   2.037  0.5728  0.8347 -0.3033
   40MOL   H95538473   7.011   2.126   2.050 -0.8370 -0.4241  0.8634
   40MOL   H95638474   7.041   2.351   1.849  0.8791 -0.4930 -2.9753
   40MOL   H95738475   7.163   2.225   1.848  0.4427  1.9358 -0.8338
   40MOL   H95838476   6.844   2.205   1.814 -0.9734 -0.1284 -3.6017
   40MOL   H95938477   6.962   2.066   1.797 -1.5791 -0.5738  0.0313
   40MOL   H96038478   6.888   2.154   1.578 -0.8726 -0.0328  1.2208
   40MOL   H96138479   7.055   2.194   1.606 -0.2398  1.4194 -0.0492
   40MOL   H96238480   6.955   2.377   1.496  0.6941 -0.4294  0.7586
   41MOL     N138481   0.189   3.195   1.614 -1.1776  0.3676  0.4600
   41MOL     C238482   0.210   3.074   1.686  0.4267  0.5068  0.0314
   41MOL     C338483   0.242   3.095   1.837  0.5594 -0.6569  0.2586
   41MOL     C438484   0.129   3.103   1.916 -0.3994 -0.4351  0.3737
   41MOL     C538485   0.141   3.135   2.048 -0.5295 -0.4004  0.3546
   41MOL     C638486   0.267   3.152   2.105  0.1486 -0.2800 -0.6884
   41MOL     C738487   0.385   3.136   2.027  1.5351  0.1158 -0.6169
   41MOL     C838488   0.373   3.113   1.888  0.3416  0.3874 -0.3041
   41MOL     C938489   0.501   3.100   1.803  0.2280 -0.2570 -0.5583
   41MOL    N1038490   0.622   3.133   1.885 -0.3043 -0.6503  0.3867
   41MOL    C1138491   0.717   3.222   1.852  0.1984 -0.6164  0.8929
   41MOL    O1238492   0.734   3.274   1.741  0.8722 -0.0821 -0.3882
   41MOL    C1338493   0.812   3.270   1.962  0.5151  0.4496  0.0748
   41MOL    C1438494   0.815   3.423   1.980 -0.2241  0.1120  0.3395
   41MOL    C1538495   0.687   3.497   2.011  0.3931  0.6681 -0.1468
   41MOL    C1638496   0.687   3.641   2.062 -0.4544 -0.5393 -0.4342
   41MOL    C1738497   0.550   3.697   2.087  0.0192 -0.1677  0.0465
   41MOL    C1838498   0.571   3.835   2.152  0.4018  0.1315 -0.1229
   41MOL    C1938499   0.596   3.850   2.308  0.7945  0.0117 -0.3962
   41MOL    C2038500   0.562   3.986   2.380 -0.0267  0.7658 -0.3192
   41MOL    C2138501   0.654   4.102   2.343 -0.2822 -0.4101 -0.8942
   41MOL    O2238502   0.769   4.078   2.296  0.0726  0.7466 -0.0844
   41MOL    H2338503   0.120   3.163   1.547  0.6465 -2.0640 -0.3489
   41MOL    H2438504   0.117   3.016   1.681  0.4483  0.3688  1.0801
   41MOL    H2538505   0.291   3.019   1.637 -0.9407  0.7772 -2.6219
   41MOL    H2638506   0.032   3.087   1.870  0.3812 -0.8400 -1.1837
   41MOL    H2738507   0.046   3.147   2.097 -0.4072  1.0270  0.2526
   41MOL    H2838508   0.279   3.174   2.210 -1.8259 -2.2164 -0.0243
   41MOL    H2938509   0.470   3.159   2.090 -0.9137  2.6392  1.9274
   41MOL    H3038510   0.491   3.149   1.706 -1.5618 -0.3463 -0.4402
   41MOL    H3138511   0.501   2.994   1.777  1.5423 -0.3814 -0.0822
   41MOL    H3238512   0.632   3.094   1.978 -1.8664  0.3900  1.0144
   41MOL    H3338513   0.908   3.229   1.932  0.7430 -0.1794  1.6237
   41MOL    H3438514   0.791   3.209   2.050 -0.0805  0.4986 -0.0306
   41MOL    H3538515   0.876   3.467   1.901 -1.2280 -0.0508 -0.5273
   41MOL    H3638516   0.871   3.429   2.074 -1.7290 -0.6901  1.3112
   41MOL    H3738517   0.616   3.499   1.929 -1.1938  1.8078  1.2172
   41MOL    H3838518   0.623   3.452   2.087 -0.4026  1.9904 -0.0088
   41MOL    H3938519   0.750   3.638   2.151 -0.3848 -1.1075 -0.5008
   41MOL    H4038520   0.728   3.700   1.980  0.3947 -0.7855 -0.2018
   41MOL    H4138521   0.491   3.695   1.995 -1.3075 -0.8030  0.8974
   41MOL    H4238522   0.499   3.636   2.162  1.7246  0.3970  1.7045
   41MOL    H4338523   0.483   3.888   2.116 -0.5689 -0.2518  1.6268
   41MOL    H4438524   0.653   3.885   2.101  1.4068  0.4051  1.6880
   41MOL    H4538525   0.540   3.773   2.361 -0.6062  0.7702 -0.7399
   41MOL    H4638526   0.701   3.825   2.324  0.8116 -0.9716 -1.8589
   41MOL    H4738527   0.574   3.985   2.489  3.0357  4.9873 -0.4720
   41MOL    H4838528   0.459   4.015   2.359 -0.5630  1.1333  2.5172
   41MOL    H4938529   0.277   3.204   1.565 -0.9533 -0.9085  0.5946
   41MOL    N5038530   0.609   4.230   2.343 -0.7712  0.1410  0.2023
   41MOL    C5138531   0.676   4.350   2.297  0.1942  0.5156 -0.9926
   41MOL    C5238532   0.647   4.455   2.399  0.0048  0.4607 -0.1624
   41MOL    C5338533   0.525   4.527   2.376 -1.0112  0.4323 -0.3835
   41MOL    C5438534   0.496   4.637   2.464  0.2627 -0.1970 -0.4662
   41MOL    C5538535   0.577   4.664   2.576 -0.2906  0.1288  0.6976
   41MOL    C5638536   0.693   4.594   2.592 -0.3734 -0.5474  0.0064
   41MOL    C5738537   0.736   4.492   2.508 -0.4826 -0.3608 -0.5133
   41MOL    C5838538   0.866   4.420   2.534  1.0312  0.0427  0.3814
   41MOL    N5938539   0.965   4.506   2.597 -0.2892 -0.1337  0.7139
   41MOL    C6038540   1.059   4.583   2.540 -0.5141 -0.0434  0.1513
   41MOL    O6138541   1.087   4.593   2.417 -0.0197  0.1356  0.2152
   41MOL    C6238542   1.132   4.666   2.649 -0.4304  0.3062  0.4901
   41MOL    C6338543   1.227   4.771   2.596 -0.0504 -0.4096  0.1653
   41MOL    C6438544   1.285   4.864   2.695 -0.2212 -0.5318  0.1558
   41MOL    C6538545   1.197   4.978   2.749 -0.2629 -0.0790 -0.1482
   41MOL    C6638546   1.258   5.064   2.861 -0.5325  0.1123 -0.3384
   41MOL    C6738547   1.284   4.998   2.999  0.3340 -0.3053  0.1441
   41MOL    C6838548   1.166   4.936   3.067  0.2985  0.5001 -0.3715
   41MOL    C6938549   1.068   5.038   3.121  0.1491 -0.0744  0.4304
   41MOL    C7038550   0.956   4.973   3.198  0.3544  0.0471 -0.9212
   41MOL    O7138551   0.928   4.851   3.189 -0.5294 -0.6874  1.0910
   41MOL    H7238552   0.523   4.247   2.394 -0.9303 -1.4943  0.4994
   41MOL    H7338553   0.629   4.388   2.207 -0.2129 -0.2171 -1.0883
   41MOL    H7438554   0.782   4.328   2.282  0.4252 -1.3125  2.7733
   41MOL    H7538555   0.472   4.503   2.285  0.1982 -3.1465 -0.2124
   41MOL    H7638556   0.404   4.692   2.449  0.8720  0.6753 -1.0640
   41MOL    H7738557   0.548   4.740   2.646 -1.6623  0.1601  0.1042
   41MOL    H7838558   0.762   4.623   2.670  0.6770 -0.9450 -0.7633
   41MOL    H7938559   0.912   4.391   2.440  1.6553  0.0619  0.6807
   41MOL    H8038560   0.844   4.332   2.595 -0.6590  0.1755 -0.0085
   41MOL    H8138561   0.956   4.510   2.697  0.5159  0.2534  0.7789
   41MOL    H8238562   1.191   4.595   2.707 -0.5845  1.0825  1.6172
   41MOL    H8338563   1.058   4.696   2.723  0.2321  0.8645  0.9359
   41MOL    H8438564   1.169   4.827   2.524 -1.0455  0.3930  1.5762
   41MOL    H8538565   1.305   4.726   2.535  0.2175 -1.9498  1.5871
   41MOL    H8638566   1.333   4.818   2.781  1.2309  0.8917  0.1371
   41MOL    H8738567   1.368   4.912   2.643  0.5429 -2.2962 -0.2906
   41MOL    H8838568   1.176   5.040   2.662 -0.7205 -2.8440 -2.0891
   41MOL    H8938569   1.103   4.937   2.786 -1.3507  0.9910 -1.6091
   41MOL    H9038570   1.352   5.105   2.825 -0.9473  2.1278  0.7847
   41MOL    H9138571   1.196   5.154   2.859 -3.0803 -1.5912 -1.5859
   41MOL    H9238572   1.313   5.077   3.069 -2.7732  2.2083 -1.2628
   41MOL    H9338573   1.359   4.920   2.985  0.2697 -0.3804  0.2151
   41MOL    H9438574   1.207   4.873   3.146 -0.0114 -1.2663 -1.5846
   41MOL    H9538575   1.111   4.874   2.997 -0.4855 -1.6753  2.1148
   41MOL    H9638576   1.020   5.079   3.032 -0.3788 -0.3681  0.5738
   41MOL    H9738577   1.117   5.121   3.172  1.0024  1.2717 -2.4489
   41MOL    N9838578   0.897   5.049   3.281  0.7272  0.2545  0.0510
   41MOL    C9938579   0.805   4.998   3.382  0.3191 -0.6036 -0.1814
   41MOL   C10038580   0.721   5.109   3.429  0.5415 -0.0456  0.4491
   41MOL   C10138581   0.702   5.231   3.360  0.0431 -0.6756 -0.0263
   41MOL   C10238582   0.613   5.329   3.406  0.1036  0.5030 -0.3335
   41MOL   C10338583   0.537   5.310   3.522  0.8103  0.2592 -0.0079
   41MOL   C10438584   0.541   5.186   3.583  0.4754  0.1512  0.1285
   41MOL   C10538585   0.631   5.085   3.542  0.0207 -0.2221 -0.3629
   41MOL   C10638586   0.628   4.951   3.622  1.1019  0.2963 -0.2988
   41MOL   N10738587   0.731   4.935   3.712 -0.0231 -0.0161 -0.0351
   41MOL   C10838588   0.729   4.844   3.804  0.0159 -0.0747 -0.0206
   41MOL   O10938589   0.633   4.776   3.820  0.4258 -0.5907 -0.7033
   41MOL   C11038590   0.851   4.837   3.892 -0.4088  0.1158 -0.1089
   41MOL   C11138591   0.877   4.713   3.971  0.5957 -0.0590  0.9689
   41MOL   C11238592   1.004   4.702   4.052  0.3511 -0.0533  0.1590
   41MOL   C11338593   1.008   4.794   4.175 -0.0049  0.0029 -0.3187
   41MOL   C11438594   1.143   4.774   4.248  0.2240 -0.2690  0.1280
   41MOL   C11538595   1.145   4.818   4.393 -0.3906  0.1488  0.7319
   41MOL   C11638596   1.269   4.772   4.480 -0.1489 -0.3241  0.5216
   41MOL   C11738597   1.401   4.822   4.426  0.2327 -0.4133  0.2766
   41MOL   C11838598   1.534   4.750   4.466  0.3475 -0.4936  0.3978
   41MOL   O11938599   1.537   4.632   4.471 -0.4918 -0.0324 -0.0337
   41MOL   H12038600   0.919   5.146   3.295  1.4486 -0.0254  0.9458
   41MOL   H12138601   0.742   4.915   3.349 -0.5386 -0.3345  0.7577
   41MOL   H12238602   0.864   4.940   3.453  2.0241  1.0350 -0.2365
   41MOL   H12338603   0.753   5.270   3.273 -1.2949 -0.9198 -0.9346
   41MOL   H12438604   0.602   5.424   3.357 -1.0172 -0.1072 -1.3082
   41MOL   H12538605   0.465   5.384   3.553  1.5969  0.5590  1.1476
   41MOL   H12638606   0.475   5.157   3.663  0.3456 -1.7176 -0.6264
   41MOL   H12738607   0.631   4.870   3.550  0.3744 -0.8064  0.8930
   41MOL   H12838608   0.534   4.942   3.677  1.1613 -0.9781 -0.3913
   41MOL   H12938609   0.810   4.998   3.710 -0.7476  0.9020 -0.4461
   41MOL   H13038610   0.859   4.922   3.960 -3.4003 -0.8890  1.6009
   41MOL   H13138611   0.934   4.833   3.822 -1.2758 -3.0147 -1.0275
   41MOL   H13238612   0.871   4.617   3.919 -0.5669 -0.6315  2.1180
   41MOL   H13338613   0.792   4.705   4.038  1.9091 -3.1130  2.3808
   41MOL   H13438614   1.015   4.601   4.090  0.3685  0.4368  1.5047
   41MOL   H13538615   1.087   4.712   3.982  2.1098  2.1130  2.4106
   41MOL   H13638616   1.003   4.898   4.143 -1.8462  0.3473  1.0465
   41MOL   H13738617   0.923   4.774   4.240  2.7057 -1.7585  2.8666
   41MOL   H13838618   1.162   4.666   4.244  1.4386 -0.1040  1.0500
   41MOL   H13938619   1.221   4.822   4.189  0.7236 -0.7186  0.4150
   41MOL   H14038620   1.052   4.786   4.441 -1.0637 -1.1441 -1.3908
   41MOL   H14138621   1.136   4.927   4.393 -0.8178  0.1261 -1.2712
   41MOL   H14238622   1.255   4.799   4.585 -2.5299  0.3076  0.0745
   41MOL   H14338623   1.267   4.664   4.474 -0.8728 -0.4181  1.9992
   41MOL   H14438624   1.413   4.924   4.462  1.2106 -0.3258 -0.2906
   41MOL   H14538625   1.396   4.827   4.318 -1.8978 -0.5543  0.3385
   41MOL   N14638626   1.640   4.824   4.502 -0.1031  0.0521  0.2999
   41MOL   C14738627   1.752   4.761   4.570  0.1957  0.2738  0.5317
   41MOL   C14838628   1.851   4.872   4.583 -0.0633  0.0531  0.2159
   41MOL   C14938629   1.898   4.898   4.715 -0.3223  0.4446  0.8307
   41MOL   C15038630   1.978   5.014   4.738 -0.8954 -0.4513  0.2282
   41MOL   C15138631   2.010   5.098   4.634  0.2995  0.6709  0.0972
   41MOL   C15238632   1.967   5.073   4.506  0.3035 -0.0796 -0.1241
   41MOL   C15338633   1.888   4.959   4.472  0.6161 -0.0645 -0.7711
   41MOL   C15438634   1.857   4.925   4.328  0.3337 -0.3291  0.0509
   41MOL   N15538635   1.766   5.020   4.270 -0.3208  0.0754 -0.1551
   41MOL   C15638636   1.787   5.080   4.149 -0.1654 -0.1745  0.2210
   41MOL   O15738637   1.867   5.036   4.067  0.3433 -0.1769  0.3599
   41MOL   C15838638   1.700   5.201   4.119  0.2135 -0.4773  0.6754
   41MOL   C15938639   1.567   5.159   4.062 -0.2174 -0.1749 -0.0038
   41MOL   C16038640   1.475   5.120   4.187 -0.0018 -0.4067  0.5722
   41MOL   C16138641   1.321   5.107   4.152  0.1950 -0.7738 -0.2618
   41MOL   C16238642   1.248   5.241   4.140  0.0401  0.1190  0.1403
   41MOL   C16338643   1.098   5.230   4.122  0.0811  0.1993 -0.2771
   41MOL   C16438644   1.054   5.235   3.976 -0.3803 -0.8235  0.2810
   41MOL   C16538645   1.119   5.130   3.882 -0.0936 -0.4232  0.2136
   41MOL   C16638646   1.068   5.114   3.736  0.1760  0.1598 -0.7766
   41MOL   O16738647   0.946   5.105   3.707  0.2383  0.7491 -0.1550
   41MOL   H16838648   1.619   4.922   4.514 -1.0925 -0.3249  1.6759
   41MOL   H16938649   1.797   4.686   4.505 -0.0604  1.8706 -1.5443
   41MOL   H17038650   1.715   4.714   4.661  1.0709 -0.0844  0.7035
   41MOL   H17138651   1.874   4.839   4.801  0.1024 -1.4343 -0.3079
   41MOL   H17238652   2.009   5.046   4.837  1.9091 -2.8810  0.2104
   41MOL   H17338653   2.070   5.184   4.659 -1.2409  1.4533  1.1261
   41MOL   H17438654   2.005   5.135   4.426  0.0199 -0.5839 -0.6522
   41MOL   H17538655   1.820   4.823   4.314 -0.6106  0.4619 -3.6826
   41MOL   H17638656   1.945   4.935   4.265  0.2277  1.0583  0.1104
   41MOL   H17738657   1.697   5.064   4.328 -0.5511  1.8155 -1.6907
   41MOL   H17838658   1.739   5.263   4.038  0.3378 -3.5521 -1.6887
   41MOL   H17938659   1.692   5.264   4.208  1.1068 -1.2096  1.2869
   41MOL   H18038660   1.569   5.073   3.996 -2.8501 -1.2154  1.1958
   41MOL   H18138661   1.527   5.247   4.011  1.6417 -0.1931 -1.5599
   41MOL   H18238662   1.513   5.028   4.230  2.0966  0.2722  0.2350
   41MOL   H18338663   1.477   5.193   4.269 -1.7080  0.2452  0.0668
   41MOL   H18438664   1.315   5.054   4.057 -1.2223 -2.5229  0.7764
   41MOL   H18538665   1.268   5.032   4.210  0.1229 -0.4517  0.0880
   41MOL   H18638666   1.271   5.291   4.234 -1.0385  0.2344  0.3443
   41MOL   H18738667   1.286   5.305   4.060  1.0558 -0.7496 -0.0895
   41MOL   H18838668   1.056   5.319   4.169  0.7431 -0.7809  2.2958
   41MOL   H18938669   1.058   5.152   4.186 -0.3042  1.4283  1.0059
   41MOL   H19038670   0.947   5.216   3.970 -0.3004 -1.9556  1.9892
   41MOL   H19138671   1.066   5.331   3.927 -1.5460 -1.2170 -0.7955
   41MOL   H19238672   1.131   5.030   3.925  0.7938  0.2425  1.5272
   41MOL   H19338673   1.217   5.167   3.853 -1.4007  1.7660 -1.5293
   41MOL   N19438674   1.158   5.113   3.640  0.0754 -0.0568 -0.3167
   41MOL   C19538675   1.145   5.083   3.495  0.2492 -0.3335  0.3207
   41MOL   C19638676   1.277   5.088   3.431 -0.0174  0.5563 -0.3269
   41MOL   C19738677   1.327   5.212   3.393 -0.8738  0.5414  0.6330
   41MOL   C19838678   1.453   5.215   3.319  0.3779  0.0926 -0.4665
   41MOL   C19938679   1.528   5.104   3.279 -0.0671  0.7807  0.3258
   41MOL   C20038680   1.467   4.982   3.315 -0.3370  0.0636  0.3671
   41MOL   C20138681   1.340   4.973   3.384 -0.3255  0.6691 -0.0555
   41MOL   C20238682   1.288   4.836   3.421 -0.3301  0.5270 -0.3266
   41MOL   N20338683   1.355   4.720   3.354 -0.5274 -0.5437 -0.1439
   41MOL   C20438684   1.352   4.594   3.392  0.2311  0.2435  0.0223
   41MOL   O20538685   1.309   4.567   3.501  0.4643 -0.4338  1.1076
   41MOL   C20638686   1.410   4.482   3.294 -0.0166 -0.4554 -0.3876
   41MOL   C20738687   1.354   4.342   3.334  0.0583  1.0468 -0.3231
   41MOL   C20838688   1.213   4.316   3.275  0.0894 -0.7516  0.3937
   41MOL   C20938689   1.157   4.177   3.297 -0.8472 -0.2410  0.1340
   41MOL   C21038690   1.233   4.081   3.213  0.2453  0.3556 -0.5761
   41MOL   C21138691   1.165   3.942   3.216  0.7029 -0.5254  0.0872
   41MOL   C21238692   1.249   3.832   3.136 -0.4388  0.2629 -0.4586
   41MOL   C21338693   1.207   3.688   3.171 -0.7470  0.3889  0.1556
   41MOL   C21438694   1.314   3.596   3.102 -0.5124 -0.6053 -0.2638
   41MOL   O21538695   1.419   3.589   3.160  0.2367  0.9999  0.2515
   41MOL   H21638696   1.254   5.105   3.671 -0.5773 -1.2149  1.4903
   41MOL   H21738697   1.080   4.998   3.474  0.6758 -0.3110 -1.1309
   41MOL   H21838698   1.089   5.163   3.446  0.4951 -1.0036 -1.0642
   41MOL   H21938699   1.289   5.300   3.443 -1.3182  0.8578 -0.2675
   41MOL   H22038700   1.484   5.317   3.297 -1.3524  0.3882 -1.6205
   41MOL   H22138701   1.628   5.108   3.239 -0.6453  1.4829 -1.1056
   41MOL   H22238702   1.512   4.887   3.288  0.4666  0.5254  0.0627
   41MOL   H22338703   1.180   4.834   3.406 -0.2833  0.4810 -0.6541
   41MOL   H22438704   1.315   4.826   3.526 -1.0811 -1.9389 -0.3374
   41MOL   H22538705   1.394   4.728   3.261 -0.4200 -0.5623 -0.1004
   41MOL   H22638706   1.518   4.477   3.309 -0.1141 -0.0836  0.4557
   41MOL   H22738707   1.397   4.506   3.188  1.5920 -0.3809 -0.5827
   41MOL   H22838708   1.427   4.268   3.301  0.5170  1.9009 -1.2202
   41MOL   H22938709   1.350   4.344   3.443 -2.3012  1.7491 -0.3871
   41MOL   H23038710   1.147   4.393   3.315  0.8633 -0.5289  1.2551
   41MOL   H23138711   1.222   4.321   3.167  0.7457 -2.4939  0.3641
   41MOL   H23238712   1.170   4.157   3.403  1.2384 -0.6390 -0.1745
   41MOL   H23338713   1.050   4.188   3.276 -0.8198 -0.5334 -0.1649
   41MOL   H23438714   1.242   4.112   3.109 -1.1340  2.0249 -0.2292
   41MOL   H23538715   1.338   4.072   3.243 -0.1266  0.2740  0.7552
   41MOL   H23638716   1.067   3.945   3.169  1.5225  0.4175 -1.6019
   41MOL   H23738717   1.158   3.906   3.318  1.6051  0.6431  0.5685
   41MOL   H23838718   1.347   3.824   3.183 -0.5691 -1.3877 -0.4389
   41MOL   H23938719   1.252   3.859   3.030  0.3992  1.3968 -0.1440
   41MOL   H24038720   1.222   3.675   3.279  0.5957 -0.1659 -0.0858
   41MOL   H24138721   1.107   3.668   3.133 -0.1611  0.9719 -1.7071
   41MOL   N24238722   1.285   3.528   2.992  0.5222 -0.2226 -0.0692
   41MOL   C24338723   1.375   3.433   2.924 -0.7271  0.9373 -0.1402
   41MOL   C24438724   1.320   3.363   2.799  0.7388  0.0395 -0.5419
   41MOL   C24538725   1.194   3.404   2.742 -0.3031  0.4658  0.0345
   41MOL   C24638726   1.144   3.345   2.621  0.8815 -0.4093  0.2947
   41MOL   C24738727   1.230   3.258   2.549  0.0552 -1.2052 -0.4323
   41MOL   C24838728   1.355   3.222   2.605 -0.2860  0.6990  0.6958
   41MOL   C24938729   1.395   3.264   2.732 -0.6188  0.1089 -0.1694
   41MOL   C25038730   1.527   3.207   2.794 -0.2806 -0.1460 -0.0854
   41MOL   N25138731   1.631   3.189   2.688  0.1349  0.6436  0.5872
   41MOL   C25238732   1.713   3.081   2.672  0.7587  0.1954 -0.1537
   41MOL   O25338733   1.724   2.987   2.761 -0.3820  0.5907  0.1512
   41MOL   C25438734   1.806   3.082   2.542  0.4637  0.1499 -0.3922
   41MOL   C25538735   1.883   2.951   2.507 -0.2945 -0.4334  0.6565
   41MOL   C25638736   1.936   2.962   2.364  0.0070 -0.0051  0.6906
   41MOL   C25738737   2.047   2.857   2.332  0.9076  1.1083 -0.6144
   41MOL   C25838738   2.038   2.711   2.390 -0.0962  0.3064  0.1977
   41MOL   C25938739   2.125   2.616   2.307  0.0120 -0.2042  0.0037
   41MOL   C26038740   2.128   2.475   2.367  0.5759 -0.3669 -0.8041
   41MOL   C26138741   1.993   2.397   2.377  1.1796  0.2290 -0.4815
   41MOL   C26238742   1.951   2.334   2.241 -0.2916 -0.3681 -0.2314
   41MOL   O26338743   1.837   2.358   2.206 -0.0130  0.4181  0.3665
   41MOL   H26438744   1.195   3.523   2.946 -1.4205 -1.2807  3.6639
   41MOL   H26538745   1.467   3.483   2.894  2.2047 -1.5473  4.0921
   41MOL   H26638746   1.404   3.360   3.000  0.7112  2.5854  0.9321
   41MOL   H26738747   1.135   3.483   2.785  0.4634  1.5575 -0.8749
   41MOL   H26838748   1.046   3.369   2.583  1.6603  0.7439 -0.9912
   41MOL   H26938749   1.213   3.237   2.444 -2.0714  2.1488 -0.8010
   41MOL   H27038750   1.416   3.149   2.556 -0.1177 -0.9141  3.2225
   41MOL   H27138751   1.495   3.113   2.839 -1.7190 -0.6490 -2.0500
   41MOL   H27238752   1.575   3.261   2.876  0.5359  2.4013 -2.1493
   41MOL   H27338753   1.641   3.268   2.625 -2.5812  1.4058  1.0439
   41MOL   H27438754   1.876   3.166   2.545  1.6800 -0.8401 -0.8171
   41MOL   H27538755   1.737   3.115   2.465  0.9841 -0.8360 -1.3007
   41MOL   H27638756   1.819   2.863   2.516 -1.7771  0.5550 -0.0565
   41MOL   H27738757   1.969   2.938   2.573  0.9082  1.0114 -0.6021
   41MOL   H27838758   1.962   3.063   2.333  1.4681 -0.8855 -1.0834
   41MOL   H27938759   1.849   2.938   2.302  0.9867 -0.8112 -0.3844
   41MOL   H28038760   2.049   2.846   2.224  0.6058  0.0652 -0.5234
   41MOL   H28138761   2.148   2.893   2.347  0.8621  1.2418 -0.6361
   41MOL   H28238762   2.066   2.712   2.495 -0.3964  1.3289  0.2778
   41MOL   H28338763   1.932   2.686   2.388  0.1564 -0.8020  0.5868
   41MOL   H28438764   2.229   2.647   2.308 -0.3780  1.1620  1.1632
   41MOL   H28538765   2.087   2.605   2.205 -0.4019  0.7624  0.0475
   41MOL   H28638766   2.212   2.422   2.320  1.7958  0.4428  0.4381
   41MOL   H28738767   2.167   2.482   2.469  0.1308  1.7173 -0.7531
   41MOL   H28838768   2.006   2.318   2.451 -0.3031  0.1829 -0.2474
   41MOL   H28938769   1.915   2.463   2.417  0.3231 -1.4977  0.7780
   41MOL   N29038770   2.037   2.253   2.180 -0.2762  0.5857  0.0226
   41MOL   C29138771   2.005   2.184   2.060  0.0299  0.8639 -0.0678
   41MOL   C29238772   2.083   2.235   1.931 -0.4100  0.1560 -0.3724
   41MOL   C29338773   2.214   2.192   1.921  0.5191  0.2533  0.4512
   41MOL   C29438774   2.296   2.225   1.810  0.6220 -0.4605 -0.1984
   41MOL   C29538775   2.240   2.305   1.709  0.0638  0.5240  0.0412
   41MOL   C29638776   2.104   2.335   1.710 -0.1806 -0.2469  0.1416
   41MOL   C29738777   2.026   2.308   1.823 -0.0951 -1.0215  0.5456
   41MOL   C29838778   1.882   2.347   1.819 -0.1471 -0.5802 -0.1218
   41MOL   N29938779   1.840   2.423   1.935 -0.0028  0.5995  0.4624
   41MOL   C30038780   1.819   2.555   1.934 -0.3183 -0.0784  0.1698
   41MOL   O30138781   1.846   2.629   1.836 -0.8573 -0.4495 -0.1271
   41MOL   C30238782   1.767   2.626   2.060  0.1792  0.1052 -0.4071
   41MOL   C30338783   1.698   2.760   2.028 -0.2242  0.0616 -0.5415
   41MOL   C30438784   1.614   2.816   2.137 -0.0910 -0.5201 -0.1443
   41MOL   C30538785   1.592   2.965   2.109  0.3584  0.4787  0.4052
   41MOL   C30638786   1.505   3.040   2.206 -0.4710 -0.6533 -0.1847
   41MOL   C30738787   1.487   3.189   2.187 -0.1205 -0.7232 -0.2316
   41MOL   C30838788   1.394   3.232   2.069  0.0292 -0.0389 -0.6216
   41MOL   C30938789   1.258   3.166   2.064 -0.3550  0.2301 -0.0573
   41MOL   C31038790   1.158   3.187   2.185  0.7583  1.4005  0.1340
   41MOL   O31138791   1.103   3.293   2.204  0.5188 -0.1343  0.3680
   41MOL   H31238792   2.123   2.223   2.222 -1.8532 -0.1269  2.8784
   41MOL   H31338793   2.032   2.081   2.083  1.7635  1.6096  1.3859
   41MOL   H31438794   1.898   2.181   2.040  0.2356 -1.6530 -0.9651
   41MOL   H31538795   2.258   2.133   1.999  1.8020  1.0850  0.3697
   41MOL   H31638796   2.397   2.189   1.804  0.2664 -1.5494  0.3640
   41MOL   H31738797   2.295   2.340   1.623  1.5660 -1.2985  0.2197
   41MOL   H31838798   2.065   2.394   1.628  0.5460 -1.0263 -0.7828
   41MOL   H31938799   1.814   2.262   1.815  0.6067 -1.1760 -0.4830
   41MOL   H32038800   1.870   2.397   1.723  0.3375 -1.2922 -0.5623
   41MOL   H32138801   1.834   2.371   2.021 -0.2275  0.6771  0.4926
   41MOL   H32238802   1.692   2.570   2.115 -0.7544  1.0867 -0.6821
   41MOL   H32338803   1.851   2.635   2.130 -1.2235 -0.4113  1.3824
   41MOL   H32438804   1.628   2.747   1.945 -2.0437 -1.7062  1.2241
   41MOL   H32538805   1.770   2.830   1.985 -1.2246  0.1345 -2.1435
   41MOL   H32638806   1.672   2.812   2.229 -0.7528 -0.1520  0.2918
   41MOL   H32738807   1.526   2.754   2.156 -0.8633  0.4920 -0.3719
   41MOL   H32838808   1.688   3.016   2.114 -0.0115  0.9439  3.0350
   41MOL   H32938809   1.553   2.974   2.007 -1.8389 -0.1454  1.1588
   41MOL   H33038810   1.403   3.002   2.209 -0.2198 -1.3787 -0.6647
   41MOL   H33138811   1.548   3.023   2.305 -1.0207 -2.3336 -0.2130
   41MOL   H33238812   1.577   3.250   2.186  0.3263 -1.3706  0.3878
   41MOL   H33338813   1.440   3.229   2.277  0.5981 -0.3966 -0.0005
   41MOL   H33438814   1.360   3.334   2.084  0.0773  0.0677 -1.2320
   41MOL   H33538815   1.454   3.233   1.978  1.3679 -0.6570  0.2482
   41MOL   H33638816   1.200   3.211   1.984 -1.2423  1.9134  1.4821
   41MOL   H33738817   1.267   3.059   2.044  0.6987  0.0566  1.2544
   41MOL   N33838818   1.107   3.077   2.250  0.2722 -0.1515 -0.4685
   41MOL   C33938819   0.993   3.066   2.334 -0.9753 -0.6775 -0.5224
   41MOL   C34038820   0.874   3.005   2.264  0.3640 -0.0653  0.2727
   41MOL   C34138821   0.874   2.982   2.123  0.0031  0.3486 -0.3955
   41MOL   C34238822   0.772   2.920   2.057  0.7926 -0.1385 -0.0179
   41MOL   C34338823   0.655   2.903   2.134  0.4235 -0.7100 -0.3198
   41MOL   C34438824   0.644   2.938   2.264 -0.2658 -0.2766  0.1182
   41MOL   C34538825   0.754   2.987   2.331 -0.2859 -0.1161 -0.9016
   41MOL   C34638826   0.736   3.029   2.478  0.2411  0.0496 -0.1225
   41MOL   N34738827   0.607   3.088   2.509  0.0632  0.3709  0.3860
   41MOL   C34838828   0.495   3.027   2.544  0.6315  0.7004  0.0868
   41MOL   O34938829   0.491   2.902   2.550 -0.1807  0.3220  0.4417
   41MOL   C35038830   0.369   3.114   2.569  0.5260  0.7055  0.1609
   41MOL   C35138831   0.239   3.057   2.508  0.7085  0.7062 -0.0276
   41MOL   C35238832   0.174   2.938   2.588 -0.1418  1.0884 -0.2492
   41MOL   C35338833   0.049   2.883   2.510 -1.2962 -0.2932  0.1470
   41MOL   C35438834   7.770   2.786   2.602  0.2130  1.2972  0.0757
   41MOL   C35538835   7.666   2.717   2.516  0.0146 -0.3698  0.2925
   41MOL   C35638836   7.575   2.627   2.601 -0.2928  0.3187 -0.2232
   41MOL   C35738837   7.460   2.568   2.506 -0.3856  0.0781 -0.3560
   41MOL   C35838838   7.369   2.667   2.427 -0.2386  0.1715 -0.1659
   41MOL   O35938839   7.306   2.749   2.488  0.5748  0.2944 -0.5957
   41MOL   H36038840   1.156   2.990   2.240  0.4765 -0.1203  0.2383
   41MOL   H36138841   1.027   3.003   2.416  0.5997  0.2519 -0.4249
   41MOL   H36238842   0.977   3.168   2.369  1.4193 -0.5108  0.2350
   41MOL   H36338843   0.954   3.005   2.054 -0.2575 -1.3529 -1.2920
   41MOL   H36438844   0.771   2.902   1.950  1.6594 -2.8366  0.3834
   41MOL   H36538845   0.569   2.866   2.081 -0.2616 -1.1008  1.0405
   41MOL   H36638846   0.552   2.929   2.320 -1.2840 -1.4117 -1.7040
   41MOL   H36738847   0.820   3.089   2.511  0.6353 -0.7299  0.3183
   41MOL   H36838848   0.746   2.939   2.538  1.4747  1.9325  2.5685
   41MOL   H36938849   0.619   3.188   2.502  0.2067  0.4381  1.4668
   41MOL   H37038850   0.382   3.217   2.534 -1.2231  0.8595 -0.0624
   41MOL   H37138851   0.368   3.126   2.677 -0.3467  0.7567  0.1542
   41MOL   H37238852   0.241   3.014   2.408 -2.2781  0.0468  0.1587
   41MOL   H37338853   0.170   3.140   2.496 -1.3015 -0.9454 -0.1543
   41MOL   H37438854   0.246   2.857   2.604  0.2015  1.5963  0.8476
   41MOL   H37538855   0.147   2.971   2.689 -4.3719 -1.4141 -0.4517
   41MOL   H37638856   0.076   2.846   2.411  2.4653 -0.1346  1.0612
   41MOL   H37738857   7.779   2.972   2.492  0.3707  0.5781 -1.1086
   41MOL   H37838858   0.057   2.714   2.629 -1.3295  0.1591  1.5677
   41MOL   H37938859   7.731   2.839   2.689  1.0865  0.1185  1.1916
   41MOL   H38038860   7.691   2.663   2.424  2.1123  0.7351  0.2111
   41MOL   H38138861   7.601   2.795   2.477 -0.5800  0.6438  3.1760
   41MOL   H38238862   7.630   2.552   2.657 -0.8533 -0.1267 -0.2692
   41MOL   H38338863   7.524   2.692   2.673  0.0965  0.2851  0.0874
   41MOL   H38438864   7.387   2.513   2.565  0.9318  0.5453  1.7867
   41MOL   H38538865   7.509   2.488   2.451  0.0262 -0.2956  0.5453
   41MOL   N38638866   7.368   2.646   2.293 -0.1244 -0.1980 -0.4570
   41MOL   C38738867   7.286   2.712   2.197  0.3749 -0.2824 -0.2539
   41MOL   C38838868   7.373   2.777   2.096  0.1370 -0.2197  0.5337
   41MOL   C38938869   7.450   2.887   2.138 -0.3492  0.2808  0.4957
   41MOL   C39038870   7.545   2.951   2.056 -0.3415  0.0905  0.8821
   41MOL   C39138871   7.559   2.907   1.921 -0.5444  0.1514 -0.0707
   41MOL   C39238872   7.480   2.798   1.877  0.3863 -0.1637 -0.4651
   41MOL   C39338873   7.393   2.730   1.964  0.0897  1.0006  0.8515
   41MOL   C39438874   7.327   2.608   1.902 -0.3459 -0.4413 -1.1929
   41MOL   N39538875   7.425   2.518   1.840 -0.2393 -0.5382  0.1337
   41MOL   C39638876   7.399   2.427   1.740 -0.3987 -0.5509 -0.0635
   41MOL   O39738877   7.286   2.417   1.695 -0.1258 -0.1464 -0.3661
   41MOL   C39838878   7.510   2.328   1.703  0.0104 -0.3373  0.2643
   41MOL   C39938879   7.470   2.176   1.674 -0.0628 -0.4474  0.5495
   41MOL   C40038880   7.476   2.091   1.805  0.4004  0.3159 -0.6958
   41MOL   C40138881   7.615   2.095   1.872 -1.2662  0.1387  0.6127
   41MOL   C40238882   7.640   1.970   1.956 -0.5872 -0.8909 -0.0714
   41MOL   C40338883   7.777   1.970   2.006  0.7661 -0.4460  0.3113
   41MOL   C40438884   0.037   1.850   2.081  0.1293 -0.5316 -0.1704
   41MOL   C40538885   0.167   1.878   2.168 -0.5782 -0.7672  0.4518
   41MOL   C40638886   0.209   1.759   2.257  0.2150  0.1448 -0.5723
   41MOL   O40738887   0.153   1.746   2.367  0.0942 -0.0415 -0.2212
   41MOL   H40838888   7.423   2.573   2.249 -0.0389 -0.1235 -0.4749
   41MOL   H40938889   7.213   2.636   2.168 -1.8129  0.7106  2.4256
   41MOL   H41038890   7.236   2.794   2.248  0.3151 -0.7169  0.4079
   41MOL   H41138891   7.447   2.912   2.243 -0.9084  3.5893 -0.2390
   41MOL   H41238892   7.599   3.038   2.091  0.6762  1.2279 -3.2477
   41MOL   H41338893   7.638   2.944   1.857  0.2814 -3.0175 -0.9808
   41MOL   H41438894   7.490   2.755   1.778 -0.1125 -0.6078 -0.3262
   41MOL   H41538895   7.272   2.649   1.818  0.4606  0.5796 -1.2410
   41MOL   H41638896   7.270   2.544   1.969 -1.9388  0.9948 -1.1498
   41MOL   H41738897   7.521   2.526   1.869 -0.6003  2.4178  0.6469
   41MOL   H41838898   7.555   2.377   1.617  0.3818 -0.7957  0.1942
   41MOL   H41938899   7.588   2.334   1.779 -0.1542 -1.1564  0.4976
   41MOL   H42038900   7.526   2.138   1.589 -2.7838 -0.3401 -1.3588
   41MOL   H42138901   7.364   2.167   1.650 -0.0762  1.2813 -0.1537
   41MOL   H42238902   7.453   1.988   1.776  2.4070 -0.9621  1.9781
   41MOL   H42338903   7.397   2.125   1.871 -1.5150  0.7396 -3.1532
   41MOL   H42438904   7.697   2.101   1.800 -2.1406  0.3398 -0.3673
   41MOL   H42538905   7.629   2.188   1.928  1.3523 -0.4319  0.9975
   41MOL   H42638906   7.564   1.958   2.033 -0.5774 -2.1282 -0.2467
   41MOL   H42738907   7.623   1.885   1.889  4.0928 -1.9708 -0.0856
   41MOL   H42838908   7.789   2.055   2.073  1.8889 -1.5024  1.4593
   41MOL   H42938909   0.050   1.980   1.917  0.4754  1.2282  0.2841
   41MOL   H43038910   0.054   1.767   2.012  1.5178 -0.3469 -0.0693
   41MOL   H43138911   7.745   1.817   2.146  1.6116  0.9452  2.5520
   41MOL   H43238912   0.154   1.959   2.241  2.2655 -1.7269  2.1011
   41MOL   H43338913   0.240   1.914   2.096 -2.1319  0.1271 -0.7143
   41MOL   N43438914   0.312   1.692   2.215  0.1622  0.1581  0.0293
   41MOL   C43538915   0.385   1.597   2.296  0.0027  0.0907  0.5401
   41MOL   C43638916   0.483   1.659   2.385 -0.0355 -0.5530  0.5488
   41MOL   C43738917   0.592   1.729   2.333  0.0410 -0.7554  0.5278
   41MOL   C43838918   0.679   1.807   2.416 -0.0407  0.0052 -1.0401
   41MOL   C43938919   0.677   1.786   2.554 -0.2917 -0.3357  0.5058
   41MOL   C44038920   0.573   1.706   2.603  0.7098  0.0967 -0.1322
   41MOL   C44138921   0.472   1.644   2.526 -0.0268  1.2822  0.1606
   41MOL   C44238922   0.380   1.536   2.589 -0.1733  0.2233 -0.1738
   41MOL   N44338923   0.240   1.571   2.577  0.0909  0.1085 -0.3753
   41MOL   C44438924   0.145   1.539   2.663  0.3069  0.1909  0.0887
   41MOL   O44538925   0.168   1.487   2.774  0.2775  0.4096  0.3785
   41MOL   C44638926   0.004   1.563   2.608 -0.5474  0.4054  0.2045
   41MOL   C44738927   7.717   1.682   2.678  0.0269 -0.4752 -0.5430
   41MOL   C44838928   7.718   1.821   2.600  0.0834  0.5359  0.1008
   41MOL   C44938929   7.624   1.818   2.472  0.6315 -0.6919  0.0942
   41MOL   C45038930   7.635   1.942   2.384  0.2749 -0.2020  0.3367
   41MOL   C45138931   7.600   2.073   2.445  0.3534 -0.4155 -0.5587
   41MOL   C45238932   7.648   2.200   2.371  0.2890  0.3541  0.0326
   41MOL   C45338933   7.576   2.221   2.238 -0.0808  0.4885  0.1284
   41MOL   C45438934   7.608   2.361   2.191 -0.7229  0.1779 -0.1970
   41MOL   O45538935   7.517   2.448   2.177  0.2069 -0.2354  0.2165
   41MOL   H45638936   0.335   1.705   2.117  2.4098  4.0449  0.9877
   41MOL   H45738937   0.441   1.527   2.234  0.2357  0.8968 -0.1738
   41MOL   H45838938   0.311   1.533   2.344  0.3215 -0.1646  0.6963
   41MOL   H45938939   0.586   1.725   2.226 -0.6119 -1.8480  0.5970
   41MOL   H46038940   0.746   1.877   2.368  0.7291 -0.4000 -0.5653
   41MOL   H46138941   0.747   1.830   2.624 -0.1957  0.1865  0.0879
   41MOL   H46238942   0.568   1.685   2.709 -1.4077  0.6600 -0.0856
   41MOL   H46338943   0.409   1.521   2.693  1.7233 -1.3386 -0.8924
   41MOL   H46438944   0.403   1.439   2.546  0.0777  0.7219 -1.1712
   41MOL   H46538945   0.214   1.644   2.512 -1.5058  0.4781  0.6480
   41MOL   H46638946   7.740   1.471   2.632 -2.1789  1.0011 -1.0512
   41MOL   H46738947   0.003   1.576   2.500 -0.0590 -0.0301  0.1487
   41MOL   H46838948   7.751   1.695   2.781 -1.8523 -0.5956  0.1107
   41MOL   H46938949   7.615   1.648   2.699 -0.1357  0.1564 -0.2660
   41MOL   H47038950   7.673   1.901   2.659 -1.7865  2.9009 -4.3170
   41MOL   H47138951   0.031   1.844   2.572 -0.2794 -0.5746 -2.2442
   41MOL   H47238952   7.631   1.725   2.416 -1.8082 -0.7250 -0.2209
   41MOL   H47338953   7.521   1.814   2.507  0.0627  1.8830 -1.1793
   41MOL   H47438954   7.733   1.946   2.335 -0.0550  1.1905 -0.2180
   41MOL   H47538955   7.578   1.924   2.293  1.9852 -1.0050 -0.6075
   41MOL   H47638956   7.651   2.081   2.540 -0.2278 -1.1575 -0.1803
   41MOL   H47738957   7.491   2.074   2.456  0.0028  0.3391 -3.5922
   41MOL   H47838958   7.629   2.289   2.431 -1.4782 -0.0399  0.0748
   41MOL   H47938959   7.756   2.194   2.352  0.3094 -3.3434  1.0128
   41MOL   H48038960   7.592   2.144   2.163 -0.3309  1.0851 -0.5398
   41MOL   H48138961   7.467   2.217   2.248 -0.0655 -1.1472 -0.3444
   41MOL   N48238962   7.734   2.380   2.138 -0.5490 -0.1666 -0.4439
   41MOL   C48338963   7.782   2.506   2.076 -1.2517 -0.6623  0.2333
   41MOL   C48438964   0.129   2.551   2.131  0.6088 -0.2020  0.0829
   41MOL   C48538965   0.194   2.490   2.243 -0.1172  0.3444 -1.1761
   41MOL   C48638966   0.309   2.539   2.311 -0.0984  0.6734 -0.0332
   41MOL   C48738967   0.358   2.663   2.267 -0.2431  0.4088 -0.2439
   41MOL   C48838968   0.293   2.730   2.159 -0.6615  0.2433  0.1300
   41MOL   C48938969   0.181   2.676   2.097  0.9416 -0.4533 -0.3084
   41MOL   C49038970   0.125   2.756   1.980  0.4301  0.2822 -0.0947
   41MOL   N49138971   0.174   2.711   1.855 -0.3460 -0.4167 -0.1833
   41MOL   C49238972   0.117   2.672   1.741  0.0647 -0.5496 -0.0491
   41MOL   O49338973   7.783   2.666   1.729 -0.3624  0.1631  0.4782
   41MOL   C49438974   0.201   2.637   1.617 -0.3218 -0.1460  0.0141
   41MOL   C49538975   0.145   2.526   1.526 -0.3331 -0.8980  0.0318
   41MOL   C49638976   0.126   2.388   1.603 -0.1030 -0.4023  0.8316
   41MOL   C49738977   0.055   2.283   1.514  0.7327  0.7501  0.0986
   41MOL   C49838978   0.144   2.176   1.460 -0.2037 -0.7462  0.0231
   41MOL   C49938979   0.059   2.081   1.373 -0.5388  0.3786  0.2712
   41MOL   C50038980   0.150   2.001   1.279  0.2724  0.1246  0.1287
   41MOL   C50138981   0.072   1.915   1.180  0.3461  0.4185  0.3720
   41MOL   C50238982   7.750   1.981   1.096 -0.2891  0.3244 -0.6646
   41MOL   O50338983   7.761   2.099   1.065  0.3407 -0.6855  0.1376
   41MOL   H50438984   0.011   2.304   2.148 -1.7991 -1.1450  0.6927
   41MOL   H50538985   7.785   2.490   1.969 -0.5498 -0.5541  0.2368
   41MOL   H50638986   7.716   2.591   2.093 -1.4190 -0.6050 -0.7005
   41MOL   H50738987   0.163   2.389   2.265 -1.5741  0.7951 -1.1164
   41MOL   H50838988   0.342   2.489   2.401  1.9103 -1.2960 -1.7961
   41MOL   H50938989   0.435   2.709   2.326 -0.6571  0.4502  0.2678
   41MOL   H51038990   0.331   2.828   2.133 -1.4708  0.0681 -1.7446
   41MOL   H51138991   0.146   2.860   2.006  2.7749  0.1183 -1.1584
   41MOL   H51238992   0.016   2.755   1.983  0.4386 -0.7823  0.0248
   41MOL   H51338993   0.273   2.703   1.842  0.0285  0.3680  2.0087
   41MOL   H51438994   0.300   2.610   1.653 -0.3248 -1.5990 -0.9880
   41MOL   H51538995   0.211   2.730   1.562  0.4367  0.5131  1.2470
   41MOL   H51638996   0.212   2.507   1.443 -1.5302  1.9644 -1.6525
   41MOL   H51738997   0.044   2.560   1.501  0.3116  1.8868  1.0551
   41MOL   H51838998   0.226   2.361   1.636  1.2192  0.7804 -2.0355
   41MOL   H51938999   0.078   2.406   1.699 -0.1929  1.6164  0.4340
   41MOL   H52039000   7.771   2.220   1.563  1.8664 -0.6994 -0.0432
   41MOL   H52139001   0.010   2.332   1.427 -1.5789 -1.3973  0.0282
   41MOL   H52239002   0.232   2.220   1.415 -0.5830 -0.1212 -0.1202
   41MOL   H52339003   0.175   2.127   1.552 -0.1994  0.0163  0.4304
   41MOL   H52439004   7.770   2.137   1.321 -0.7010  2.1460  2.3622
   41MOL   H52539005   0.002   2.005   1.427  0.3448  0.5448  1.4451
   41MOL   H52639006   0.209   2.077   1.227  2.9560 -1.6314  0.4943
   41MOL   H52739007   0.219   1.943   1.340 -0.6202 -1.6786 -0.5368
   41MOL   H52839008   0.023   1.832   1.232  0.0458  0.9967  1.0079
   41MOL   H52939009   0.136   1.870   1.104 -1.0684 -1.4113  0.2247
   41MOL   N53039010   7.661   1.901   1.037  0.4213  0.0427  0.2179
   41MOL   C53139011   7.565   1.929   0.930 -0.1287 -0.6062  0.1794
   41MOL   C53239012   7.429   1.878   0.973  0.0912 -0.3394 -0.3689
   41MOL   C53339013   7.344   1.982   1.016  0.1955 -0.0265  0.3558
   41MOL   C53439014   7.216   1.947   1.065  0.1749  0.2544  0.2038
   41MOL   C53539015   7.173   1.812   1.069 -0.0528 -0.0167  0.1451
   41MOL   C53639016   7.258   1.708   1.022 -0.1846  0.5705  0.3841
   41MOL   C53739017   7.387   1.744   0.985  0.1022 -0.3641 -0.5637
   41MOL   C53839018   7.475   1.624   0.945  0.5162  0.2185  0.0146
   41MOL   N53939019   7.499   1.535   1.059 -0.6445  0.0728  0.1833
   41MOL   C54039020   7.606   1.554   1.143  0.5043 -0.2361  0.3358
   41MOL   O54139021   7.704   1.623   1.116  0.0749 -0.3828 -0.1871
   41MOL   C54239022   7.612   1.472   1.274 -0.2095  0.9319  0.4030
   41MOL   C54339023   7.749   1.422   1.319  0.3065 -0.8300  0.1860
   41MOL   C54439024   0.037   1.339   1.207  1.1231 -0.6062 -0.0929
   41MOL   C54539025   0.131   1.240   1.273 -0.4355 -0.7767 -0.6565
   41MOL   C54639026   0.216   1.161   1.169  0.0736 -0.3475 -0.1416
   41MOL   C54739027   0.338   1.231   1.093 -0.6485  0.1613 -0.3376
   41MOL   C54839028   0.424   1.141   1.005  0.1587 -0.8495  0.5535
   41MOL   C54939029   0.524   1.221   0.915 -0.5496 -0.1112  0.2058
   41MOL   C55039030   0.612   1.126   0.833  0.2033 -0.2526 -0.1990
   41MOL   O55139031   0.630   1.018   0.888  0.3233  0.1038 -0.0244
   41MOL   H55239032   7.667   1.802   1.057 -0.7239 -0.1594 -0.3749
   41MOL   H55339033   7.612   1.891   0.839  2.6911  1.3189  0.7625
   41MOL   H55439034   7.568   2.038   0.919 -1.2950 -0.5840  0.0136
   41MOL   H55539035   7.370   2.087   1.006  0.7596 -0.2035 -0.0398
   41MOL   H55639036   7.150   2.023   1.105  0.3129 -0.8187  2.5445
   41MOL   H55739037   7.073   1.801   1.108  0.2381 -1.0221  0.6132
   41MOL   H55839038   7.227   1.604   1.016 -0.4615  0.7444 -1.4029
   41MOL   H55939039   7.567   1.668   0.906  0.6280  0.5050  0.6030
   41MOL   H56039040   7.421   1.567   0.870  0.2254  1.3046 -0.6221
   41MOL   H56139041   7.432   1.464   1.084  2.0553 -2.2706  0.9670
   41MOL   H56239042   7.552   1.385   1.246  1.7276 -0.1592 -0.4714
   41MOL   H56339043   7.564   1.521   1.358 -1.5279  1.0109 -0.3807
   41MOL   H56439044   7.725   1.350   1.398 -1.2125 -0.4274  0.1142
   41MOL   H56539045   0.016   1.508   1.356  1.0688 -1.0909 -0.3769
   41MOL   H56639046   7.748   1.285   1.156  1.5152 -0.4549 -0.8575
   41MOL   H56739047   0.073   1.405   1.128 -1.6050  0.3048 -0.6143
   41MOL   H56839048   0.204   1.285   1.341 -1.3874 -0.4432  0.1607
   41MOL   H56939049   0.075   1.166   1.331  0.4859  0.3355  1.7217
   41MOL   H57039050   0.262   1.081   1.227  1.2499  0.4837  0.0831
   41MOL   H57139051   0.146   1.123   1.095 -0.9373  0.6008  0.3161
   41MOL   H57239052   0.410   1.262   1.169  2.8258  2.5862 -4.4261
   41MOL   H57339053   0.310   1.325   1.046  1.2357  0.4398 -0.9463
   41MOL   H57439054   0.481   1.075   1.071  0.8778 -1.0392 -0.2454
   41MOL   H57539055   0.372   1.072   0.939 -0.6174  2.6139 -2.6228
   41MOL   H57639056   0.564   1.309   0.965 -2.2844  1.2305 -0.7002
   41MOL   H57739057   0.457   1.278   0.850 -0.1047  0.2408  0.0557
   41MOL   N57839058   0.665   1.157   0.714  0.1893 -0.7361  0.4098
   41MOL   C57939059   0.748   1.065   0.644  0.4483  0.2906 -0.3839
   41MOL   C58039060   0.884   1.111   0.627 -0.8249  0.3026  0.2902
   41MOL   C58139061   0.910   1.214   0.533 -0.6971 -0.8666 -0.7695
   41MOL   C58239062   1.045   1.254   0.498  0.0847  0.9658 -0.2953
   41MOL   C58339063   1.158   1.183   0.554  0.5497 -0.0832 -0.2640
   41MOL   C58439064   1.131   1.088   0.656  0.5262  0.1166  0.3588
   41MOL   C58539065   0.997   1.046   0.691 -0.1610 -0.0016  0.6995
   41MOL   C58639066   0.976   0.938   0.800 -0.0613 -0.3124  0.8777
   41MOL   N58739067   0.927   0.989   0.927  0.0143  0.1486  0.7214
   41MOL   C58839068   0.985   0.965   1.042 -0.4155 -0.2020 -0.2052
   41MOL   O58939069   1.088   0.908   1.063  0.4799  0.4405 -0.9365
   41MOL   C59039070   0.903   1.025   1.160 -0.0043  0.6786 -0.0541
   41MOL   C59139071   0.973   1.033   1.296 -0.2349  0.3744  0.0776
   41MOL   C59239072   1.077   1.147   1.295  0.2311 -0.0548 -0.0806
   41MOL   C59339073   1.145   1.151   1.435  0.1387  0.3874 -0.2045
   41MOL   C59439074   1.257   1.258   1.462 -0.6629  0.2402 -0.3704
   41MOL   C59539075   1.323   1.281   1.605  0.1285 -0.0366 -0.1551
   41MOL   C59639076   1.227   1.336   1.716  0.0405  0.2283  0.3877
   41MOL   C59739077   1.300   1.407   1.837 -0.3660 -0.1931  0.1698
   41MOL   C59839078   1.205   1.437   1.952 -0.2857 -0.3000 -0.1343
   41MOL   O59939079   1.099   1.494   1.934  0.2481 -0.1270  0.2166
   41MOL   H60039080   0.641   1.243   0.668 -1.3508 -0.0841  2.3588
   41MOL   H60139081   0.702   1.066   0.546 -0.9220 -1.2068  0.2353
   41MOL   H60239082   0.738   0.962   0.676 -2.1920  0.3423 -1.0030
   41MOL   H60339083   0.822   1.260   0.491 -0.6245  0.6282  0.6757
   41MOL   H60439084   1.062   1.339   0.435 -1.0534 -1.2307 -3.7151
   41MOL   H60539085   1.262   1.206   0.537  0.9781 -1.0419  0.9579
   41MOL   H60639086   1.211   1.040   0.710  2.2834 -0.2639 -2.4988
   41MOL   H60739087   1.067   0.879   0.807  0.4179  0.3699  0.4850
   41MOL   H60839088   0.894   0.869   0.782  0.5084 -0.5652 -0.7975
   41MOL   H60939089   0.834   1.028   0.938 -0.7848 -0.6391 -2.7876
   41MOL   H61039090   0.823   0.954   1.180  0.3667  0.2216 -0.1942
   41MOL   H61139091   0.862   1.121   1.129  0.4794  0.4300 -1.4973
   41MOL   H61239092   1.014   0.934   1.314 -0.5445 -0.4131 -3.1076
   41MOL   H61339093   0.908   1.057   1.380 -2.3768 -1.0774 -1.1320
   41MOL   H61439094   1.148   1.139   1.213  1.2869  3.0486  0.4393
   41MOL   H61539095   1.018   1.236   1.273 -1.4161 -1.3302 -0.8919
   41MOL   H61639096   1.071   1.158   1.514 -1.0030  2.6697 -1.4516
   41MOL   H61739097   1.198   1.056   1.437 -0.2678  0.1699  0.2722
   41MOL   H61839098   1.334   1.243   1.386 -0.0750 -1.7519  0.5740
   41MOL   H61939099   1.219   1.357   1.437 -0.2593  1.2471  2.8287
   41MOL   H62039100   1.397   1.360   1.596 -0.3812  0.6527  1.4403
   41MOL   H62139101   1.371   1.190   1.641  0.4251 -0.4645 -1.6036
   41MOL   H62239102   1.162   1.403   1.660  1.2536  0.3733 -0.8790
   41MOL   H62339103   1.152   1.261   1.741 -0.6864  1.1483  0.9828
   41MOL   H62439104   1.362   1.330   1.883 -0.6372  0.1884  1.1838
   41MOL   H62539105   1.357   1.495   1.808 -0.4438 -0.6613 -1.5075
   41MOL   N62639106   1.241   1.417   2.082  0.3839  0.0346  0.3715
   41MOL   C62739107   1.174   1.460   2.206 -0.4244  0.3411  0.1525
   41MOL   C62839108   1.199   1.605   2.234  0.7039 -0.1266  0.4131
   41MOL   C62939109   1.331   1.655   2.259 -0.5324 -0.2735  0.6707
   41MOL   C63039110   1.354   1.789   2.297  0.0853 -0.5335  0.7474
   41MOL   C63139111   1.242   1.875   2.292 -0.7975  0.2339  0.0278
   41MOL   C63239112   1.111   1.826   2.285 -0.9703  0.1131  0.8072
   41MOL   C63339113   1.085   1.693   2.254 -0.3075  0.4734  0.2374
   41MOL   C63439114   0.943   1.647   2.232 -0.4594  0.6534 -0.6947
   41MOL   N63539115   0.908   1.648   2.091 -0.1549 -0.4630  0.2815
   41MOL   C63639116   0.823   1.745   2.042 -0.0486  0.1905  0.0149
   41MOL   O63739117   0.815   1.850   2.108  0.2967  0.6750  0.1566
   41MOL   C63839118   0.754   1.715   1.912  0.2907 -0.7338 -0.0828
   41MOL   C63939119   0.615   1.778   1.896 -0.1466 -0.4389  0.0461
   41MOL   C64039120   0.613   1.932   1.877  0.2136  0.0973 -0.4960
   41MOL   C64139121   0.470   1.977   1.887 -0.1457  0.1932  0.2368
   41MOL   C64239122   0.369   1.952   1.770 -0.2170 -0.1567 -0.6455
   41MOL   C64339123   0.293   1.820   1.772 -0.0792  1.1230  0.0054
   41MOL   C64439124   0.171   1.808   1.670 -1.0944  0.3179  0.7842
   41MOL   C64539125   0.106   1.666   1.667  0.6554  0.5706  0.1731
   41MOL   C64639126   0.194   1.546   1.643  0.2443  0.1942 -0.3549
   41MOL   O64739127   0.245   1.535   1.532  0.4367 -0.1039  0.8953
   41MOL   H64839128   1.328   1.367   2.095 -0.9542 -2.7088 -0.7436
   41MOL   H64939129   1.195   1.386   2.284  0.7657  0.4226 -0.0836
   41MOL   H65039130   1.070   1.428   2.194 -0.3183  0.3992 -0.9705
   41MOL   H65139131   1.408   1.579   2.254  1.0561  1.2984  0.9435
   41MOL   H65239132   1.451   1.836   2.305 -1.3005  2.2723  1.7160
   41MOL   H65339133   1.264   1.980   2.294  0.0978  0.0577 -0.4587
   41MOL   H65439134   1.038   1.905   2.296  0.0009  1.0242  0.9117
   41MOL   H65539135   0.873   1.700   2.297 -1.4506  0.1222 -1.3139
   41MOL   H65639136   0.921   1.545   2.265 -3.1547  0.9717 -1.3502
   41MOL   H65739137   0.930   1.572   2.028  2.4478  0.7830 -0.4067
   41MOL   H65839138   0.741   1.607   1.904 -0.0169 -0.7684  0.7950
   41MOL   H65939139   0.818   1.741   1.828 -1.3457 -1.1579 -1.4778
   41MOL   H66039140   0.555   1.753   1.983  0.4824  0.0879  0.6381
   41MOL   H66139141   0.575   1.732   1.805  3.0010  1.0122 -2.1704
   41MOL   H66239142   0.663   1.969   1.966 -1.1921 -2.1063  1.2538
   41MOL   H66339143   0.664   1.958   1.783  0.8449  3.2070  0.6463
   41MOL   H66439144   0.412   1.948   1.975 -0.0140  0.2970  0.3593
   41MOL   H66539145   0.477   2.082   1.916  3.1415 -0.5461  2.3928
   41MOL   H66639146   0.295   2.031   1.780 -0.2157 -0.0904 -1.1406
   41MOL   H66739147   0.415   1.964   1.672 -0.3004  0.3898 -0.6155
   41MOL   H66839148   0.263   1.800   1.875  0.9268 -0.3518  0.0230
   41MOL   H66939149   0.366   1.742   1.750 -0.3208  0.9356 -0.1345
   41MOL   H67039150   0.103   1.891   1.688 -0.0131  1.1428  1.1601
   41MOL   H67139151   0.219   1.841   1.578 -1.5008 -0.8779  0.1381
   41MOL   H67239152   0.033   1.654   1.587  1.2925  1.3464 -0.5395
   41MOL   H67339153   0.055   1.655   1.762 -0.8136 -1.2738 -0.8010
   41MOL   N67439154   0.220   1.463   1.745  0.1482  0.0445  0.8129
   41MOL   C67539155   0.311   1.360   1.735  0.3596 -0.5473 -0.1762
   41MOL   C67639156   0.237   1.234   1.773 -0.4306 -0.0705 -0.1567
   41MOL   C67739157   0.166   1.173   1.670  0.7942 -0.0901 -0.4493
   41MOL   C67839158   0.118   1.040   1.679 -0.5574  0.3405  0.2835
   41MOL   C67939159   0.120   0.976   1.804  0.4322 -0.2852 -0.0050
   41MOL   C68039160   0.193   1.033   1.911  0.4436  0.1244 -0.2776
   41MOL   C68139161   0.245   1.166   1.900 -0.1593  0.6670  0.2011
   41MOL   C68239162   0.301   1.241   2.025  0.5411  0.2244  0.7569
   41MOL   N68339163   0.202   1.273   2.125  0.4500 -0.0704 -0.1383
   41MOL   C68439164   0.120   1.375   2.117  0.2717  0.5451 -0.1239
   41MOL   O68539165   0.138   1.469   2.039 -0.0082 -0.8480 -0.1591
   41MOL   C68639166   0.003   1.373   2.218 -0.1234  1.5146  0.2984
   41MOL   C68739167   7.672   1.445   2.166  0.2711  0.0678 -0.7231
   41MOL   C68839168   7.566   1.468   2.281  0.1813  0.6468  0.6029
   41MOL   C68939169   7.438   1.548   2.233  0.2181 -0.4436  1.2661
   41MOL   C69039170   7.327   1.551   2.337 -0.4644 -0.1705 -0.3242
   41MOL   C69139171   7.231   1.675   2.330 -0.2307 -0.2435 -0.3301
   41MOL   C69239172   7.169   1.710   2.189  0.2221 -0.5903  0.1876
   41MOL   C69339173   7.258   1.797   2.087 -0.1231  0.5666 -0.5431
   41MOL   C69439174   7.193   1.804   1.948  0.1733  0.4825  0.1310
   41MOL   O69539175   7.106   1.892   1.926 -0.3724  0.0515 -0.6978
   41MOL   H69639176   0.175   1.471   1.835 -0.3131 -0.8540  0.6621
   41MOL   H69739177   0.389   1.372   1.810  0.2831 -0.3986 -0.1206
   41MOL   H69839178   0.352   1.358   1.634  0.7911 -2.1156  0.0139
   41MOL   H69939179   0.156   1.228   1.578  0.3927  2.3037  0.9694
   41MOL   H70039180   0.065   0.991   1.599 -0.6331  3.1421 -1.4491
   41MOL   H70139181   0.080   0.876   1.806 -1.4455  0.4662  1.7588
   41MOL   H70239182   0.206   0.980   2.004  3.2371 -2.0410 -1.8075
   41MOL   H70339183   0.351   1.335   2.005 -1.8376  1.1430 -1.1860
   41MOL   H70439184   0.374   1.178   2.076  1.0086 -0.1611 -0.3758
   41MOL   H70539185   0.174   1.205   2.194 -0.2473  1.0841  0.7189
   41MOL   H70639186   0.045   1.413   2.311  0.8163 -0.5165  0.7921
   41MOL   H70739187   7.772   1.268   2.238  0.9691  1.5230  1.5657
   41MOL   H70839188   7.616   1.379   2.100 -1.1279 -1.2816  1.7544
   41MOL   H70939189   7.697   1.537   2.113  2.5223 -1.1057 -1.7703
   41MOL   H71039190   7.537   1.374   2.329 -1.5812  1.5368  1.2953
   41MOL   H71139191   7.612   1.533   2.356  1.2907 -0.4889  0.9381
   41MOL   H71239192   7.476   1.649   2.215  1.9222 -1.2494  0.1964
   41MOL   H71339193   7.396   1.529   2.134 -0.5934  0.4139  1.4374
   41MOL   H71439194   7.269   1.459   2.328 -1.5368  0.4017  0.4847
   41MOL   H71539195   7.372   1.541   2.436 -2.4693  1.6240  0.8166
   41MOL   H71639196   7.273   1.761   2.381 -2.1614  0.5179  0.0290
   41MOL   H71739197   7.153   1.634   2.396  0.0498 -1.0406 -0.4834
   41MOL   H71839198   7.072   1.759   2.200  0.4309 -0.2500  0.5260
   41MOL   H71939199   7.128   1.620   2.143 -0.6759 -0.2591  0.3394
   41MOL   H72039200   7.354   1.747   2.070 -0.7452 -2.3051  3.5342
   41MOL   H72139201   7.286   1.892   2.132 -1.4993  0.0771  1.4072
   41MOL   N72239202   7.229   1.709   1.856 -0.3147  0.4351  0.1495
   41MOL   C72339203   7.190   1.701   1.718  0.0978  0.2707  0.2898
   41MOL   C72439204   7.298   1.729   1.614  0.0861  1.0546  0.0304
   41MOL   C72539205   7.436   1.751   1.653 -0.0935  0.2024  0.1399
   41MOL   C72639206   7.539   1.767   1.559  0.2808  0.7676 -0.0373
   41MOL   C72739207   7.507   1.768   1.419  0.0584  0.4453 -0.1350
   41MOL   C72839208   7.375   1.754   1.378  0.3301  0.2917  0.0179
   41MOL   C72939209   7.270   1.729   1.474 -0.2217  0.4458 -0.1148
   41MOL   C73039210   7.127   1.699   1.421 -0.0278 -0.0394 -0.7595
   41MOL   N73139211   7.100   1.560   1.381  0.0760 -0.7343  0.0850
   41MOL   C73239212   7.010   1.480   1.438 -0.8224 -0.2409  0.6769
   41MOL   O73339213   6.940   1.514   1.534  0.4182 -0.0776 -0.2084
   41MOL   C73439214   6.980   1.341   1.378 -0.6919 -0.4864  0.0585
   41MOL   C73539215   6.834   1.318   1.326  0.1477 -0.6855  0.3148
   41MOL   C73639216   6.795   1.436   1.236 -0.4766  0.1322  0.3138
   41MOL   C73739217   6.868   1.436   1.099  0.0793 -0.1148 -0.0900
   41MOL   C73839218   6.815   1.543   1.001 -0.0216  0.5414 -1.3410
   41MOL   C73939219   6.838   1.517   0.851 -0.2270 -0.8027 -0.1243
   41MOL   C74039220   6.984   1.540   0.810  0.7839 -0.2856  0.0389
   41MOL   C74139221   7.003   1.482   0.666 -0.2822 -0.1195  0.1123
   41MOL   C74239222   7.154   1.477   0.629 -0.3146 -0.1306 -0.0478
   41MOL   O74339223   7.240   1.533   0.692 -0.0917  0.2760 -0.2552
   41MOL   H74439224   7.312   1.657   1.880 -0.0790  1.5897  1.9580
   41MOL   H74539225   7.101   1.759   1.692 -0.2328  1.2216  3.2525
   41MOL   H74639226   7.155   1.598   1.707 -1.9531  1.1280 -1.4598
   41MOL   H74739227   7.467   1.751   1.756  0.2703 -0.0406  0.0323
   41MOL   H74839228   7.636   1.791   1.600  0.7271 -0.7560 -0.1907
   41MOL   H74939229   7.581   1.785   1.342  1.0757 -2.7321  0.0542
   41MOL   H75039230   7.349   1.768   1.275  1.4678  2.1684 -0.0334
   41MOL   H75139231   7.130   1.765   1.334 -0.2307 -0.6163 -1.2054
   41MOL   H75239232   7.052   1.734   1.491 -0.2754 -3.0780  0.5837
   41MOL   H75339233   7.139   1.529   1.293 -1.0885 -1.7373 -0.0876
   41MOL   H75439234   6.994   1.258   1.448  0.7971  0.4601  0.9205
   41MOL   H75539235   7.052   1.324   1.298  1.4060  2.5394  1.2021
   41MOL   H75639236   6.755   1.289   1.395  0.1850 -2.0805 -0.2183
   41MOL   H75739237   6.846   1.236   1.255 -0.1814 -0.6275  0.1906
   41MOL   H75839238   6.687   1.429   1.219 -0.6886  0.8190  1.3480
   41MOL   H75939239   6.806   1.530   1.289 -1.0466  0.0359  0.6090
   41MOL   H76039240   6.973   1.458   1.117  0.6096 -1.7089 -1.1750
   41MOL   H76139241   6.862   1.334   1.060  1.3664 -0.8864  1.6795
   41MOL   H76239242   6.706   1.535   1.007  0.0040 -0.6130 -2.1874
   41MOL   H76339243   6.839   1.644   1.034  2.2826 -0.5088  0.2711
   41MOL   H76439244   6.773   1.580   0.790 -1.1726 -1.0040  0.6651
   41MOL   H76539245   6.815   1.412   0.835 -1.5839 -0.2040 -2.3517
   41MOL   H76639246   7.003   1.648   0.812 -2.3255  0.3317 -0.8350
   41MOL   H76739247   7.056   1.496   0.878  0.8602  0.3821  0.3975
   41MOL   H76839248   6.969   1.379   0.667 -0.2971 -0.1264 -1.0936
   41MOL   H76939249   6.948   1.547   0.598 -1.7256 -2.5883 -1.1395
   41MOL   N77039250   7.176   1.406   0.518  0.0313 -0.4780 -0.4270
   41MOL   C77139251   7.303   1.392   0.449 -0.4146  0.3772 -0.2384
   41MOL   C77239252   7.330   1.504   0.347 -0.4133 -0.4466  0.2761
   41MOL   C77339253   7.285   1.490   0.217 -0.0181 -0.0583  0.0291
   41MOL   C77439254   7.311   1.582   0.111  0.1179  0.4493 -0.3502
   41MOL   C77539255   7.384   1.697   0.143 -0.1669 -0.2978 -0.3091
   41MOL   C77639256   7.434   1.714   0.280 -0.5192  0.0159  0.1456
   41MOL   C77739257   7.404   1.623   0.382 -0.4193  0.4796 -0.1655
   41MOL   C77839258   7.462   1.646   0.521  0.2523 -0.8078  0.1282
   41MOL   N77939259   7.589   1.713   0.505 -0.3446 -0.0529  0.2357
   41MOL   C78039260   7.610   1.837   0.553  0.0417 -0.4461 -0.3925
   41MOL   O78139261   7.525   1.910   0.605  0.5022 -0.0051 -0.0238
   41MOL   C78239262   7.756   1.882   0.545 -0.9654 -0.2082  0.2205
   41MOL   C78339263   7.775   2.034   0.516 -0.1906 -0.6426 -0.2506
   41MOL   C78439264   7.756   2.116   0.654  0.6961 -0.7165 -0.1647
   41MOL   C78539265   0.006   2.260   0.629  0.1299  0.5668 -0.2403
   41MOL   C78639266   7.731   2.354   0.737 -0.1659 -0.3334 -0.0596
   41MOL   C78739267   7.784   2.495   0.732 -0.0222 -0.8537 -1.3138
   41MOL   C78839268   7.712   2.593   0.825 -0.3479  0.4379 -0.1951
   41MOL   C78939269   7.771   2.737   0.826 -0.6440 -0.4242  0.3576
   41MOL   C79039270   7.698   2.841   0.908 -0.5820  1.0515 -0.2075
   41MOL   O79139271   7.649   2.808   1.016  0.2782 -0.2677  0.3808
   41MOL   H79239272   7.097   1.356   0.481  0.0930 -1.2551  0.4555
   41MOL   H79339273   7.384   1.367   0.517 -0.2928  0.7153 -0.2581
   41MOL   H79439274   7.284   1.299   0.396 -2.3053  0.1957  0.6814
   41MOL   H79539275   7.234   1.397   0.198 -0.7448 -0.1657  2.2979
   41MOL   H79639276   7.277   1.554   0.012  0.8106  1.2136 -0.8083
   41MOL   H79739277   7.409   1.773   0.069 -2.6840  0.3328 -0.5602
   41MOL   H79839278   7.495   1.801   0.296  1.8627 -2.0133  2.6152
   41MOL   H79939279   7.499   1.553   0.562 -0.4499 -1.1823 -0.0783
   41MOL   H80039280   7.386   1.707   0.570 -0.2966 -2.0768  0.8813
   41MOL   H80139281   7.658   1.650   0.469 -0.5969 -0.3626  0.2886
   41MOL   H80239282   0.011   1.816   0.471 -0.9627 -0.9478  0.8784
   41MOL   H80339283   0.011   1.843   0.637  0.8161  0.3953 -0.3777
   41MOL   H80439284   7.701   2.069   0.445 -1.0113 -1.4296  0.2036
   41MOL   H80539285   0.086   2.037   0.474 -0.0012 -0.8763  0.1779
   41MOL   H80639286   0.040   2.080   0.726  1.2997  1.7724  0.5120
   41MOL   H80739287   7.653   2.113   0.690  0.3600 -0.3084 -1.0915
   41MOL   H80839288   0.113   2.279   0.629  0.1117  0.7277  0.8860
   41MOL   H80939289   7.758   2.287   0.530 -1.2371  1.3119  0.4695
   41MOL   H81039290   7.623   2.359   0.718 -0.2891  1.1009  0.9124
   41MOL   H81139291   7.736   2.314   0.838 -0.0936  1.1784  0.5550
   41MOL   H81239292   7.778   2.532   0.630  1.5860 -0.9904 -1.4688
   41MOL   H81339293   0.101   2.500   0.754 -0.2507  1.4330 -0.5918
   41MOL   H81439294   7.713   2.549   0.925  1.6465 -0.2028 -0.4802
   41MOL   H81539295   7.608   2.594   0.792 -0.6616  1.2754  0.7772
   41MOL   H81639296   0.002   2.769   0.724  0.0754 -0.0665  0.6128
   41MOL   H81739297   0.081   2.728   0.869 -0.4414  0.8272  0.1800
   41MOL   N81839298   7.694   2.964   0.857 -0.1114 -0.2801  0.6039
   41MOL   C81939299   7.600   3.060   0.914 -0.0972 -0.1555 -0.0451
   41MOL   C82039300   7.663   3.193   0.964 -0.4994 -0.0521 -0.2830
   41MOL   C82139301   7.651   3.220   1.102  0.0890  0.7057 -0.5861
   41MOL   C82239302   7.700   3.344   1.155  0.3592 -0.1545 -0.2736
   41MOL   C82339303   7.758   3.442   1.073 -0.2296 -0.3738  0.2933
   41MOL   C82439304   7.771   3.409   0.937 -0.2112 -0.8350  0.8163
   41MOL   C82539305   7.727   3.290   0.880  0.3211  0.9791  0.2814
   41MOL   C82639306   7.729   3.286   0.722  0.8392 -0.2474  0.5645
   41MOL   N82739307   0.077   3.258   0.675  0.4772 -0.5041  0.1504
   41MOL   C82839308   0.111   3.150   0.606  0.4096  1.0057  0.1009
   41MOL   O82939309   0.032   3.067   0.562 -0.0985 -0.0226  0.6681
   41MOL   C83039310   0.260   3.124   0.590  0.1852 -0.5653 -0.0117
   41MOL   C83139311   0.309   2.987   0.628 -0.3106 -0.1665 -0.4561
   41MOL   C83239312   0.291   2.884   0.515  0.6354 -0.7830  0.2393
   41MOL   C83339313   0.327   2.742   0.574  0.0390 -0.1687 -0.1173
   41MOL   C83439314   0.303   2.635   0.468  0.2304 -0.2090  0.2819
   41MOL   C83539315   0.357   2.502   0.521  0.1466 -0.5730  0.4569
   41MOL   C83639316   0.363   2.397   0.408 -0.0344  0.5780 -0.5199
   41MOL   C83739317   0.454   2.419   0.287  0.0603 -0.6653 -0.8238
   41MOL   C83839318   0.602   2.451   0.317  0.2619 -0.5369 -0.1275
   41MOL   O83939319   0.658   2.378   0.392 -0.1866  0.2760 -0.3890
   41MOL   H84039320   7.735   2.987   0.768  0.5968  0.6346  1.1671
   41MOL   H84139321   7.528   3.095   0.839 -1.1011 -0.9732  0.5196
   41MOL   H84239322   7.533   3.026   0.993  0.9667 -2.4778 -0.0966
   41MOL   H84339323   7.607   3.144   1.165  2.1426  0.3276  0.4187
   41MOL   H84439324   7.701   3.361   1.261 -1.5518 -1.8521  0.0339
   41MOL   H84539325   0.007   3.536   1.111 -1.4921 -0.3418  1.5601
   41MOL   H84639326   0.014   3.483   0.867 -1.5919 -0.5994  0.4086
   41MOL   H84739327   7.691   3.369   0.663  0.1156  0.1455  1.5744
   41MOL   H84839328   7.661   3.205   0.694  1.5048 -0.8974  0.7988
   41MOL   H84939329   0.148   3.326   0.697  1.0242 -0.8229 -0.6069
   41MOL   H85039330   0.313   3.187   0.661  1.1367 -3.1973  1.6739
   41MOL   H85139331   0.300   3.162   0.496  0.7272 -0.0249  0.4360
   41MOL   H85239332   0.252   2.956   0.716 -1.4856  1.5368 -0.5956
   41MOL   H85339333   0.409   2.994   0.670 -1.1311  1.1505  1.3686
   41MOL   H85439334   0.358   2.914   0.434 -0.2602  0.0363 -0.2077
   41MOL   H85539335   0.191   2.880   0.474 -0.6767  0.1575  3.1856
   41MOL   H85639336   0.430   2.747   0.608 -0.8284 -0.0567  2.5348
   41MOL   H85739337   0.276   2.714   0.666 -0.2418 -2.4698 -0.9267
   41MOL   H85839338   0.198   2.627   0.438 -0.0588  1.4704  0.7771
   41MOL   H85939339   0.354   2.660   0.375 -0.8376  0.2759 -0.1888
   41MOL   H86039340   0.307   2.470   0.613  1.3332  2.3924  2.2186
   41MOL   H86139341   0.462   2.522   0.544  0.6471  2.4052 -3.9151
   41MOL   H86239342   0.262   2.372   0.377 -0.1010  0.7864 -0.4732
   41MOL   H86339343   0.402   2.312   0.464  2.0604  1.7522 -0.1046
   41MOL   H86439344   0.447   2.331   0.223 -3.3104  0.2776 -1.8730
   41MOL   H86539345   0.414   2.483   0.208  1.3227  0.7968 -0.3162
   41MOL   N86639346   0.648   2.576   0.287 -0.6554  0.2161  0.4494
   41MOL   C86739347   0.787   2.629   0.304 -0.9414 -0.1749 -0.7423
   41MOL   C86839348   0.908   2.547   0.267  0.0118 -0.7039 -0.2068
   41MOL   C86939349   0.936   2.540   0.124 -0.1749 -0.4859 -0.9544
   41MOL   C87039350   1.054   2.482   0.078  0.6051 -0.2277 -0.4526
   41MOL   C87139351   1.135   2.417   0.168 -0.4725 -0.9091  0.0092
   41MOL   C87239352   1.108   2.416   0.300  0.1910  0.2100  0.6695
   41MOL   C87339353   0.994   2.487   0.358  0.0434  0.5602  0.2782
   41MOL   C87439354   0.978   2.500   0.508 -0.2486  0.0821  0.4790
   41MOL   N87539355   1.054   2.411   0.593  0.1620  0.1609 -0.1231
   41MOL   C87639356   1.167   2.436   0.665  0.3434  0.0979  0.1988
   41MOL   O87739357   1.200   2.553   0.683  0.2023 -0.1457  0.1160
   41MOL   C87839358   1.240   2.316   0.722 -0.3791  0.0330  0.3629
   41MOL   C87939359   1.336   2.235   0.627  0.4635  0.2995 -0.1539
   41MOL   C88039360   1.262   2.137   0.539 -0.3303  0.3383  0.7541
   41MOL   C88139361   1.344   2.086   0.413  0.0617 -0.4134 -0.3751
   41MOL   C88239362   1.262   2.007   0.312  0.2369 -0.6648 -0.3548
   41MOL   C88339363   1.336   1.929   0.208 -0.3573  0.0204 -0.0393
   41MOL   C88439364   1.248   1.876   0.096  0.0339  0.2202 -1.0027
   41MOL   C88539365   1.215   1.976   7.779  0.1372  0.2993 -0.0534
   41MOL   C88639366   1.137   1.902   7.675  0.7265 -0.3718 -0.3931
   41MOL   O88739367   1.018   1.883   7.683 -0.6244 -0.3931  0.1519
   41MOL   H88839368   0.578   2.640   0.254  0.4092  1.7340  1.0880
   41MOL   H88939369   0.791   2.716   0.239 -1.2108  0.1098 -0.3829
   41MOL   H89039370   0.795   2.682   0.399 -1.4829  0.4741 -1.0516
   41MOL   H89139371   0.873   2.585   0.049 -0.7944 -0.6074 -0.5129
   41MOL   H89239372   1.068   2.477   7.761  3.7696 -1.1297 -0.0600
   41MOL   H89339373   1.217   2.361   0.126 -0.1403  0.7441 -1.5965
   41MOL   H89439374   1.170   2.363   0.370  0.3410  0.8140  1.0010
   41MOL   H89539375   0.874   2.478   0.533 -0.7537  0.4739 -1.2504
   41MOL   H89639376   1.012   2.602   0.529  1.8369 -0.3867 -0.5344
   41MOL   H89739377   1.030   2.312   0.593  0.9565 -0.0382 -1.2254
   41MOL   H89839378   1.158   2.251   0.753 -1.6872  0.9121 -1.1797
   41MOL   H89939379   1.294   2.343   0.813  2.5677 -4.3107  0.0886
   41MOL   H90039380   1.406   2.182   0.692  0.8599  0.2219 -0.6486
   41MOL   H90139381   1.394   2.304   0.566  0.2191  1.3413  0.7710
   41MOL   H90239382   1.223   2.053   0.596  1.5083 -1.0661 -0.0386
   41MOL   H90339383   1.173   2.185   0.498 -0.6392  0.6421  1.7693
   41MOL   H90439384   1.403   2.161   0.361  1.1355 -0.0316  1.3501
   41MOL   H90539385   1.426   2.022   0.446 -1.2671 -2.3471 -0.7241
   41MOL   H90639386   1.208   1.931   0.367  0.4269 -1.2273 -0.9341
   41MOL   H90739387   1.187   2.073   0.268  0.5473  0.2899  0.5296
   41MOL   H90839388   1.373   1.836   0.251 -1.4375 -1.4985 -2.2667
   41MOL   H90939389   1.421   1.985   0.168 -1.3886  0.8974 -1.0637
   41MOL   H91039390   1.293   1.787   0.051 -0.7846 -0.2950 -0.8065
   41MOL   H91139391   1.164   1.826   0.143 -0.2567  1.1588 -0.5071
   41MOL   H91239392   1.147   2.046   0.039 -0.3668 -0.6618  0.6103
   41MOL   H91339393   1.297   2.038   7.744  0.3656  0.9041  1.5257
   41MOL   N91439394   1.203   1.861   7.570 -0.2003  0.0398 -0.4928
   41MOL   C91539395   1.135   1.784   7.462 -0.4304  0.8143  0.1116
   41MOL   C91639396   1.218   1.658   7.423 -0.3644  0.5232 -0.7441
   41MOL   C91739397   1.296   1.594   7.526 -0.2673  0.0477 -0.4650
   41MOL   C91839398   1.387   1.488   7.506  0.1500  0.0857  0.1000
   41MOL   C91939399   1.396   1.448   7.369 -0.0422 -0.1835 -0.1544
   41MOL   C92039400   1.332   1.519   7.268 -0.2157 -0.3500 -0.5958
   41MOL   C92139401   1.238   1.616   7.289  1.0908  0.2464  0.2982
   41MOL   C92239402   1.149   1.666   7.170 -0.1172  0.0305  0.5991
   41MOL   N92339403   1.203   1.777   7.087  0.3921 -0.2621 -0.2072
   41MOL   C92439404   1.134   1.828   6.988 -0.3804  0.4871  0.2462
   41MOL   O92539405   1.027   1.778   6.946  0.3904  0.3013 -0.8553
   41MOL   C92639406   1.189   1.961   6.936 -0.3533 -0.6501 -0.1787
   41MOL   C92739407   1.107   2.029   6.827  0.5666 -0.2203 -0.5213
   41MOL   C92839408   0.992   2.109   6.889 -0.7534  0.3745 -0.5518
   41MOL   C92939409   0.894   2.173   6.786  0.3303 -0.1586 -0.1625
   41MOL   C93039410   0.789   2.268   6.852  0.8591 -0.3138  0.2049
   41MOL   C93139411   0.722   2.355   6.751  0.0851 -0.3472  0.0392
   41MOL   C93239412   0.591   2.428   6.800 -0.4867 -0.2303 -0.4570
   41MOL   C93339413   0.534   2.509   6.691 -0.4565  0.1892 -0.5152
   41MOL   C93439414   0.418   2.446   6.607 -0.1129  0.5832 -0.3241
   41MOL   O93539415   0.299   2.438   6.642 -0.5328 -0.0795  0.0070
   41MOL   H93639416   1.302   1.879   7.567 -0.1501 -0.3867 -1.9056
   41MOL   H93739417   1.037   1.743   7.486 -0.3608  1.2312  1.1175
   41MOL   H93839418   1.131   1.847   7.373  2.1952 -0.0492 -0.6731
   41MOL   H93939419   1.283   1.630   7.627 -1.9428 -2.7551  0.3754
   41MOL   H94039420   1.438   1.426   7.578 -0.1923 -0.4512 -0.1146
   41MOL   H94139421   1.459   1.362   7.351  1.3103  0.0667  2.9437
   41MOL   H94239422   1.340   1.482   7.167 -1.2065 -0.8614 -0.4842
   41MOL   H94339423   1.057   1.697   7.218 -0.6882 -2.9038  1.5147
   41MOL   H94439424   1.121   1.585   7.102  0.4179  0.8168 -0.5827
   41MOL   H94539425   1.269   1.837   7.134  1.0493 -0.9570 -0.2245
   41MOL   H94639426   1.292   1.942   6.907 -0.0479  0.3082  0.2575
   41MOL   H94739427   1.202   2.027   7.022 -3.0075  1.2832 -1.1884
   41MOL   H94839428   1.070   1.949   6.763 -2.5478  1.5453 -1.0715
   41MOL   H94939429   1.168   2.104   6.777 -1.0285  2.4915  1.4716
   41MOL   H95039430   0.933   2.038   6.948  0.9932 -0.9032 -0.2981
   41MOL   H95139431   1.030   2.188   6.954  0.6970  0.3995 -1.4197
   41MOL   H95239432   0.949   2.223   6.706  0.7850 -1.0213 -0.3999
   41MOL   H95339433   0.843   2.090   6.737 -0.4492 -0.2600  0.8051
   41MOL   H95439434   0.832   2.333   6.929 -0.1975 -0.7192  1.1553
   41MOL   H95539435   0.715   2.201   6.895 -2.1509  1.8863 -1.3474
   41MOL   H95639436   0.797   2.427   6.719  0.1022 -0.7932 -0.9396
   41MOL   H95739437   0.691   2.294   6.665 -0.4622 -1.2463  0.8570
   41MOL   H95839438   0.613   2.484   6.891 -0.4002 -0.4718 -0.3269
   41MOL   H95939439   0.514   2.357   6.832 -0.1610 -0.1438  0.5440
   41MOL   H96039440   0.613   2.545   6.625  0.1607 -3.5812 -1.9646
   41MOL   H96139441   0.486   2.591   6.746  1.3291 -1.1782  3.2505
   41MOL   H96239442   0.446   2.404   6.511  3.4847 -2.8201  2.0273
   42MOL     N139443   5.899   4.592   4.628 -0.7372  0.4997  0.6176
   42MOL     C239444   5.979   4.476   4.578  0.4919 -0.4523  0.0685
   42MOL     C339445   6.088   4.417   4.665 -0.1622  0.3477  0.6701
   42MOL     C439446   6.151   4.502   4.760 -0.4156 -0.2246 -0.1329
   42MOL     C539447   6.255   4.464   4.843 -0.2362 -0.2825 -0.7107
   42MOL     C639448   6.313   4.337   4.823  0.4509 -0.2980  0.2160
   42MOL     C739449   6.258   4.248   4.721  0.0492  0.0873  0.0396
   42MOL     C839450   6.144   4.285   4.637  0.0358 -0.7509 -0.3728
   42MOL     C939451   6.102   4.200   4.515 -0.4533 -0.3196 -0.6205
   42MOL    N1039452   6.222   4.173   4.432 -0.1624 -0.3585 -0.3644
   42MOL    C1139453   6.284   4.049   4.439  0.1953  0.1650  0.8475
   42MOL    O1239454   6.246   3.967   4.522 -0.0106 -0.7477  0.2189
   42MOL    C1339455   6.387   4.032   4.337 -0.1392 -0.0786  0.5694
   42MOL    C1439456   6.401   3.893   4.290 -0.6194 -0.4488  0.4603
   42MOL    C1539457   6.282   3.827   4.205  0.2096  0.2474 -0.7331
   42MOL    C1639458   6.219   3.900   4.080 -0.2604  0.2741 -0.2693
   42MOL    C1739459   6.328   3.925   3.972 -0.3966 -0.0365  0.3407
   42MOL    C1839460   6.264   3.964   3.836 -0.0451 -0.1181  0.6768
   42MOL    C1939461   6.198   3.848   3.756 -0.7742 -0.5169  0.4721
   42MOL    C2039462   6.116   3.900   3.644 -0.0328  0.1142  0.1300
   42MOL    C2139463   5.976   3.933   3.696 -0.6133  0.9132  0.1419
   42MOL    O2239464   5.914   3.868   3.779 -0.2125  0.0204 -0.7739
   42MOL    H2339465   5.942   4.669   4.580 -0.7723  0.6717  0.8589
   42MOL    H2439466   5.905   4.402   4.548  0.5208 -0.9085  1.1089
   42MOL    H2539467   6.031   4.506   4.487  0.1753 -1.8658 -0.6052
   42MOL    H2639468   6.107   4.598   4.782  1.0191 -0.1071  2.3911
   42MOL    H2739469   6.295   4.532   4.917 -1.9374  1.1105 -1.0403
   42MOL    H2839470   6.401   4.309   4.879  1.4716  0.4057 -1.0092
   42MOL    H2939471   6.307   4.153   4.705 -0.0999 -0.0758  0.5448
   42MOL    H3039472   6.024   4.245   4.454 -1.8978 -0.3854  1.1545
   42MOL    H3139473   6.043   4.114   4.547  0.8563 -1.1585 -0.3872
   42MOL    H3239474   6.241   4.239   4.358  2.2111 -1.2193 -0.5666
   42MOL    H3339475   6.481   4.078   4.368  1.3638 -2.4409 -0.2910
   42MOL    H3439476   6.355   4.080   4.245 -0.5295  0.0765  0.7862
   42MOL    H3539477   6.441   3.822   4.362 -0.7350 -1.1707 -0.1791
   42MOL    H3639478   6.486   3.904   4.222 -0.8274 -1.9384 -0.0556
   42MOL    H3739479   6.322   3.730   4.175  1.2311  0.4856 -0.1273
   42MOL    H3839480   6.202   3.805   4.275  1.1306  2.2065  0.9618
   42MOL    H3939481   6.144   3.840   4.029  0.6104  1.5809 -3.1878
   42MOL    H4039482   6.172   3.997   4.100  2.9627  2.2534 -1.7651
   42MOL    H4139483   6.393   4.001   4.013 -0.6880  0.9745 -1.0376
   42MOL    H4239484   6.388   3.834   3.975 -2.1271 -1.2550 -0.4219
   42MOL    H4339485   6.334   4.026   3.780 -0.0050 -1.8078 -1.2311
   42MOL    H4439486   6.185   4.037   3.855 -1.1066 -1.1008  0.1475
   42MOL    H4539487   6.282   3.795   3.711  1.7879  1.0778  3.1801
   42MOL    H4639488   6.148   3.778   3.822 -2.7170  0.7595  0.3939
   42MOL    H4739489   6.115   3.824   3.565  1.7057 -0.8547  1.0006
   42MOL    H4839490   6.164   3.990   3.608 -0.6841 -0.2290 -1.6365
   42MOL    H4939491   5.805   4.590   4.591 -1.6752 -0.7465  2.9369
   42MOL    N5039492   5.933   4.049   3.643  0.4638  0.5110 -0.2355
   42MOL    C5139493   5.802   4.118   3.670 -0.2779  0.9753 -0.3392
   42MOL    C5239494   5.719   4.145   3.546 -0.1405  0.7158  0.1601
   42MOL    C5339495   5.750   4.085   3.422 -0.8141 -0.8101  0.6907
   42MOL    C5439496   5.671   4.114   3.308  0.1996  0.5405 -0.7908
   42MOL    C5539497   5.571   4.205   3.308  0.2738 -0.3569  0.0787
   42MOL    C5639498   5.533   4.261   3.430  0.3316  0.0428  0.0790
   42MOL    C5739499   5.597   4.221   3.556  0.1662 -0.1826 -0.5521
   42MOL    C5839500   5.519   4.248   3.685 -1.0974 -0.1234  0.0028
   42MOL    N5939501   5.496   4.392   3.722  0.4325  0.0466  0.1467
   42MOL    C6039502   5.599   4.461   3.779  0.0328 -0.3353  0.1814
   42MOL    O6139503   5.713   4.418   3.798  0.0017 -0.2416 -0.3458
   42MOL    C6239504   5.563   4.604   3.815  0.4879 -1.0265  0.8033
   42MOL    C6339505   5.668   4.684   3.886 -0.8707 -0.0912  0.6550
   42MOL    C6439506   5.788   4.736   3.794 -0.1030  0.3431 -0.1190
   42MOL    C6539507   5.837   4.856   3.872  0.3366  0.7702  0.3534
   42MOL    C6639508   5.953   4.923   3.802 -0.6723 -0.0306  0.2566
   42MOL    C6739509   6.015   5.041   3.881 -0.0636  0.0337 -0.0705
   42MOL    C6839510   6.129   5.003   3.981 -0.2269 -0.1499 -0.1381
   42MOL    C6939511   6.256   4.934   3.903  0.4198 -0.0297  0.3990
   42MOL    C7039512   6.354   4.904   4.018  0.4647 -0.4383 -0.2112
   42MOL    O7139513   6.411   4.993   4.085  0.1261 -0.3380  0.2365
   42MOL    H7239514   5.996   4.097   3.580  1.8279 -0.9881 -0.0576
   42MOL    H7339515   5.818   4.216   3.715  0.3239  1.1518 -0.9261
   42MOL    H7439516   5.736   4.061   3.735 -0.0217 -1.2012 -1.9181
   42MOL    H7539517   5.827   4.009   3.412 -0.6879 -0.5895 -0.0961
   42MOL    H7639518   5.690   4.061   3.216 -0.5443 -1.3431  0.0914
   42MOL    H7739519   5.512   4.224   3.220  2.5001  2.0903 -0.9734
   42MOL    H7839520   5.451   4.332   3.430 -0.3827 -0.7665  0.0224
   42MOL    H7939521   5.564   4.195   3.769 -0.2082  2.2467  1.0805
   42MOL    H8039522   5.427   4.192   3.673 -0.9054 -0.2179 -1.0249
   42MOL    H8139523   5.401   4.427   3.724  0.0078 -1.1139  0.9578
   42MOL    H8239524   5.465   4.604   3.864 -0.2305 -2.1670 -0.5872
   42MOL    H8339525   5.534   4.654   3.722 -0.5106 -1.6149  0.7915
   42MOL    H8439526   5.718   4.625   3.962 -0.5421  0.6622  1.0298
   42MOL    H8539527   5.618   4.767   3.936 -2.1835 -0.8910  0.6979
   42MOL    H8639528   5.870   4.665   3.781 -0.0947  0.3886 -0.3177
   42MOL    H8739529   5.750   4.765   3.696 -0.4728  0.1110 -0.0459
   42MOL    H8839530   5.754   4.925   3.890  0.2789  1.2244 -1.5842
   42MOL    H8939531   5.872   4.821   3.969 -0.2448 -0.4606  0.1337
   42MOL    H9039532   6.037   4.854   3.792  1.4108  2.3784  0.4723
   42MOL    H9139533   5.927   4.970   3.708  1.1474  3.2253  1.3056
   42MOL    H9239534   5.931   5.087   3.931  0.1506  0.1012  0.2285
   42MOL    H9339535   6.061   5.112   3.812 -1.1960  1.0011  0.1832
   42MOL    H9439536   6.083   4.942   4.058 -2.6066  0.3741 -1.1150
   42MOL    H9539537   6.172   5.096   4.019 -0.0237 -0.2834 -0.0402
   42MOL    H9639538   6.288   5.005   3.826  1.6628  0.8956  1.7457
   42MOL    H9739539   6.238   4.835   3.861 -2.0151 -0.8246  3.2184
   42MOL    N9839540   6.377   4.776   4.050  0.2847 -0.0255  0.3517
   42MOL    C9939541   6.488   4.724   4.132  0.5460 -0.2628  0.7368
   42MOL   C10039542   6.451   4.618   4.239 -0.3476 -0.2689  0.6337
   42MOL   C10139543   6.475   4.482   4.218  0.0581  0.3536 -0.3736
   42MOL   C10239544   6.468   4.389   4.320 -0.0562  0.3471  0.8501
   42MOL   C10339545   6.409   4.426   4.441 -0.8186  0.5847 -0.4265
   42MOL   C10439546   6.377   4.561   4.464  0.1407  0.1347  0.1372
   42MOL   C10539547   6.395   4.652   4.365  0.0735 -0.0004  0.2943
   42MOL   C10639548   6.343   4.789   4.395 -0.4677  0.1356  0.2297
   42MOL   N10739549   6.216   4.802   4.330  0.1464  0.0339  0.0794
   42MOL   C10839550   6.097   4.800   4.390  0.5501 -0.7601  0.9221
   42MOL   O10939551   6.085   4.806   4.510 -0.1417 -0.3372 -0.1621
   42MOL   C11039552   5.971   4.806   4.300 -0.0069  0.2588  1.2879
   42MOL   C11139553   5.857   4.899   4.343  0.1356 -0.0418 -0.3312
   42MOL   C11239554   5.752   4.917   4.234 -0.5494 -0.3960  0.5098
   42MOL   C11339555   5.651   5.019   4.291 -0.1077 -0.4052  0.1162
   42MOL   C11439556   5.532   5.048   4.192  0.2070 -0.3673 -0.1225
   42MOL   C11539557   5.428   5.149   4.253  0.3180 -1.0612  0.6360
   42MOL   C11639558   5.477   5.286   4.302 -0.2327  0.2297  0.7501
   42MOL   C11739559   5.563   5.361   4.202  0.3711  0.0494  0.6998
   42MOL   C11839560   5.491   5.433   4.088  0.7658 -0.5231  0.4502
   42MOL   O11939561   5.426   5.537   4.114 -0.1169 -0.0229  0.2119
   42MOL   H12039562   6.331   4.703   3.997  1.4578  0.8775 -1.9918
   42MOL   H12139563   6.555   4.678   4.060  0.3545  0.2586  0.2161
   42MOL   H12239564   6.541   4.802   4.188  0.5189 -0.9063  1.6639
   42MOL   H12339565   6.506   4.461   4.117  1.0220  0.3117 -0.0700
   42MOL   H12439566   6.502   4.287   4.306 -0.0097  0.5969 -1.0193
   42MOL   H12539567   6.406   4.356   4.523  0.9274  1.5171  0.4732
   42MOL   H12639568   6.333   4.591   4.559  0.1727  0.2183  0.1252
   42MOL   H12739569   6.416   4.864   4.362 -0.8322  0.1587 -0.5458
   42MOL   H12839570   6.347   4.802   4.503  1.7548 -2.4846  0.4991
   42MOL   H12939571   6.211   4.780   4.232 -0.5023 -1.3116  0.3881
   42MOL   H13039572   5.942   4.701   4.305  1.8531 -0.3652 -0.6058
   42MOL   H13139573   6.006   4.819   4.198 -1.5511 -1.9421  0.4209
   42MOL   H13239574   5.903   4.992   4.376 -0.2768  0.1828 -0.3755
   42MOL   H13339575   5.812   4.856   4.433 -0.9979  1.4015 -0.1783
   42MOL   H13439576   5.800   4.942   4.139  0.2715 -2.0840  0.4619
   42MOL   H13539577   5.696   4.828   4.207 -2.3671  0.9403 -0.2048
   42MOL   H13639578   5.613   4.975   4.383  1.2183 -0.0503  0.8367
   42MOL   H13739579   5.701   5.114   4.309  2.2022 -1.4527 -0.5202
   42MOL   H13839580   5.572   5.088   4.099  1.8958 -0.6511  0.4569
   42MOL   H13939581   5.479   4.954   4.176 -1.7378  0.4866  1.0877
   42MOL   H14039582   5.382   5.093   4.335 -1.1931  3.1079  2.7824
   42MOL   H14139583   5.352   5.164   4.176 -0.6540  0.2474  1.8270
   42MOL   H14239584   5.394   5.351   4.332 -2.9654 -1.4956 -2.7547
   42MOL   H14339585   5.526   5.269   4.399 -2.6504  0.9631  2.1450
   42MOL   H14439586   5.637   5.292   4.161 -1.7359 -1.5613 -0.5125
   42MOL   H14539587   5.626   5.428   4.259 -1.5132  0.2181  2.6260
   42MOL   N14639588   5.499   5.386   3.967 -0.0117  0.5373 -0.4639
   42MOL   C14739589   5.455   5.459   3.847  0.2262  0.1827  0.4635
   42MOL   C14839590   5.323   5.410   3.789 -0.7606  0.5758 -0.4244
   42MOL   C14939591   5.222   5.380   3.881 -0.2733  0.3562  0.1215
   42MOL   C15039592   5.096   5.325   3.841 -0.4610  0.8504 -0.3138
   42MOL   C15139593   5.069   5.312   3.707  0.2349 -0.8350 -0.1117
   42MOL   C15239594   5.161   5.344   3.612 -0.5323  0.7747  0.0131
   42MOL   C15339595   5.289   5.397   3.651 -0.1886  0.1867 -0.0784
   42MOL   C15439596   5.397   5.423   3.546 -0.6192  0.6351 -0.2632
   42MOL   N15539597   5.344   5.456   3.415  0.1736 -0.1542  0.2313
   42MOL   C15639598   5.336   5.371   3.311 -0.3606 -0.1133 -0.2512
   42MOL   O15739599   5.382   5.260   3.314  0.0907  0.3171  1.0745
   42MOL   C15839600   5.285   5.431   3.180  0.0574 -0.0816 -0.2878
   42MOL   C15939601   5.360   5.378   3.061 -0.4745  0.2886  0.2724
   42MOL   C16039602   5.295   5.371   2.919 -0.3109 -0.4012  0.1968
   42MOL   C16139603   5.219   5.499   2.880 -0.2602 -0.5275 -0.5764
   42MOL   C16239604   5.318   5.625   2.856 -0.4142 -0.4461 -0.2993
   42MOL   C16339605   5.310   5.730   2.974 -0.8739  0.4124 -0.4613
   42MOL   C16439606   5.442   5.801   3.002 -0.8400  0.2496  0.0462
   42MOL   C16539607   5.432   5.889   3.131 -0.2094  0.5751  0.3935
   42MOL   C16639608   5.399   5.821   3.259 -0.1583 -0.5661 -0.2111
   42MOL   O16739609   5.435   5.709   3.288  0.1341  0.4923  0.4157
   42MOL   H16839610   5.549   5.300   3.949 -1.3760 -0.2746 -0.4245
   42MOL   H16939611   5.543   5.454   3.783 -1.3206 -1.3031 -1.5879
   42MOL   H17039612   5.454   5.567   3.862  3.8823  0.1475  1.5464
   42MOL   H17139613   5.233   5.376   3.988 -1.2685 -0.1011  0.2166
   42MOL   H17239614   5.026   5.293   3.916 -0.7991  0.2303 -0.8921
   42MOL   H17339615   4.967   5.281   3.689  0.2959 -1.8238  1.1741
   42MOL   H17439616   5.141   5.344   3.506  0.0137 -3.5037 -0.1839
   42MOL   H17539617   5.457   5.333   3.542 -3.5484 -1.4238  0.3455
   42MOL   H17639618   5.474   5.496   3.571  1.7925 -1.5303 -1.2118
   42MOL   H17739619   5.329   5.556   3.411 -0.6749 -0.2773  0.0980
   42MOL   H17839620   5.304   5.537   3.196 -1.8743  0.3292 -0.5424
   42MOL   H17939621   5.176   5.421   3.178  0.1270 -1.7533  2.4858
   42MOL   H18039622   5.393   5.275   3.077  2.5672  0.7924 -2.2909
   42MOL   H18139623   5.456   5.430   3.055 -0.5959  0.5543  0.5868
   42MOL   H18239624   5.382   5.363   2.854  0.0384  1.9512  0.3337
   42MOL   H18339625   5.241   5.276   2.917 -0.1374 -0.4681 -2.5038
   42MOL   H18439626   5.164   5.473   2.789 -0.0844 -1.2474 -0.4797
   42MOL   H18539627   5.148   5.524   2.959 -1.7378 -1.5557 -1.5570
   42MOL   H18639628   5.420   5.586   2.851 -0.0962  0.0827  1.6854
   42MOL   H18739629   5.288   5.679   2.767 -2.6924 -2.4349 -0.7582
   42MOL   H18839630   5.260   5.695   3.063 -3.0913 -0.1242 -1.8729
   42MOL   H18939631   5.244   5.809   2.939  0.0035  1.1077 -0.5617
   42MOL   H19039632   5.520   5.726   3.013 -0.1165  1.1526  1.0971
   42MOL   H19139633   5.476   5.855   2.913  0.9009 -0.1975  0.4266
   42MOL   H19239634   5.377   5.983   3.119 -0.5282  0.2958 -0.3126
   42MOL   H19339635   5.533   5.923   3.152  0.5196 -0.6311 -1.1209
   42MOL   N19439636   5.322   5.890   3.339 -0.4334 -0.3558  0.1009
   42MOL   C19539637   5.272   5.857   3.473 -0.5131 -0.2727 -0.6295
   42MOL   C19639638   5.154   5.771   3.484  0.6889  0.5532  0.7213
   42MOL   C19739639   5.095   5.718   3.365  0.2910 -0.6950  0.3892
   42MOL   C19839640   4.984   5.631   3.372 -0.1312 -0.0848 -0.0104
   42MOL   C19939641   4.934   5.584   3.495  0.8807  0.4257  0.0312
   42MOL   C20039642   4.995   5.636   3.607  0.6276 -0.1018 -0.2343
   42MOL   C20139643   5.097   5.730   3.609  0.7336 -0.1547  0.4654
   42MOL   C20239644   5.159   5.778   3.738 -0.7932  0.1634  0.3191
   42MOL   N20339645   5.085   5.746   3.861  0.5912  0.3356 -0.8654
   42MOL   C20439646   5.028   5.824   3.949 -0.1713  0.6302 -0.5758
   42MOL   O20539647   5.031   5.945   3.942  0.4010  0.2185  0.1272
   42MOL   C20639648   4.947   5.754   4.062  0.1969 -0.0624  0.2192
   42MOL   C20739649   5.035   5.732   4.189  0.6474  0.4331 -0.5494
   42MOL   C20839650   5.006   5.614   4.272 -0.3020  0.1807  0.6740
   42MOL   C20939651   5.036   5.477   4.214  0.2458  0.8061 -0.1000
   42MOL   C21039652   5.009   5.356   4.320  0.0878 -0.4142  0.1035
   42MOL   C21139653   5.035   5.219   4.250  0.3506 -0.2542 -0.0955
   42MOL   C21239654   5.013   5.096   4.335 -0.1627 -0.3668 -0.1471
   42MOL   C21339655   5.025   4.964   4.267 -0.2447  0.5513 -0.2290
   42MOL   C21439656   4.999   4.842   4.359  0.1827 -0.0213 -0.4494
   42MOL   O21539657   5.062   4.828   4.465  0.4814 -0.6566 -0.0664
   42MOL   H21639658   5.292   5.983   3.315  2.8954  0.7354 -0.0560
   42MOL   H21739659   5.356   5.837   3.539 -1.8840  0.5073  1.3767
   42MOL   H21839660   5.244   5.950   3.520  0.3356 -0.2386 -0.1844
   42MOL   H21939661   5.127   5.766   3.273  0.6559 -0.7626  0.4837
   42MOL   H22039662   4.947   5.597   3.277 -1.4524  0.5439  0.2690
   42MOL   H22139663   4.850   5.516   3.504  1.4217 -0.3581 -0.7117
   42MOL   H22239664   4.951   5.599   3.699  1.2762  0.4162  0.2910
   42MOL   H22339665   5.183   5.883   3.726  0.7099 -0.3690 -1.6425
   42MOL   H22439666   5.260   5.737   3.741 -0.4301  1.1046  1.0954
   42MOL   H22539667   5.089   5.655   3.905  3.4807  0.8074  0.0089
   42MOL   H22639668   4.910   5.660   4.022  1.6088 -0.9529  0.9452
   42MOL   H22739669   4.866   5.826   4.074 -1.0165 -0.9769 -2.1456
   42MOL   H22839670   5.142   5.745   4.174  0.7615  0.3446  0.1868
   42MOL   H22939671   5.015   5.820   4.251  0.2853  1.7282 -2.4480
   42MOL   H23039672   5.039   5.633   4.374 -0.8090 -0.0903  0.8959
   42MOL   H23139673   4.903   5.615   4.307  0.2115  1.5439  2.1896
   42MOL   H23239674   4.981   5.456   4.123  0.3579  0.6197 -0.1238
   42MOL   H23339675   5.141   5.485   4.185  0.3373  2.6136  0.6285
   42MOL   H23439676   5.080   5.380   4.399 -2.0983  2.5367  1.2708
   42MOL   H23539677   4.906   5.364   4.352  0.4953  0.7585  1.1692
   42MOL   H23639678   5.142   5.223   4.230  0.3773 -0.4577  0.0039
   42MOL   H23739679   4.976   5.212   4.159 -0.1619  2.4308 -0.0038
   42MOL   H23839680   4.908   5.108   4.361 -0.2354 -0.0309 -0.5805
   42MOL   H23939681   5.058   5.102   4.433  0.7192  0.2754 -0.5864
   42MOL   H24039682   4.951   4.966   4.187 -3.0998 -0.6285  2.2948
   42MOL   H24139683   5.126   4.953   4.226 -0.4009 -0.7870 -0.2844
   42MOL   N24239684   4.908   4.754   4.314  0.9260 -0.5481  0.0270
   42MOL   C24339685   4.866   4.636   4.392 -0.1637 -0.2516 -0.0410
   42MOL   C24439686   4.720   4.599   4.370 -0.4764 -0.4872  0.3307
   42MOL   C24539687   4.691   4.477   4.306 -0.2599  0.3492  0.0920
   42MOL   C24639688   4.553   4.442   4.284 -0.8808  0.1984  0.1908
   42MOL   C24739689   4.446   4.525   4.322 -0.2619 -0.2514  0.2435
   42MOL   C24839690   4.479   4.643   4.388 -0.0422 -0.0243 -0.4427
   42MOL   C24939691   4.613   4.680   4.420  1.0760 -0.1583 -0.4908
   42MOL   C25039692   4.631   4.815   4.489 -0.9218 -0.3828  0.3646
   42MOL   N25139693   4.533   4.918   4.448  0.0873 -0.6774  0.4751
   42MOL   C25239694   4.492   5.019   4.525 -0.0270  0.9032 -1.0506
   42MOL   O25339695   4.519   5.012   4.647 -0.2531  0.3193  1.0407
   42MOL   C25439696   4.395   5.130   4.470 -0.1357  0.1665  0.2922
   42MOL   C25539697   4.448   5.265   4.441 -0.0492  0.0390  0.6734
   42MOL   C25639698   4.544   5.270   4.326  0.0519  0.1794 -0.3588
   42MOL   C25739699   4.575   5.413   4.283  0.4940 -0.3920  0.5008
   42MOL   C25839700   4.468   5.472   4.195  0.1311  0.2110  0.1995
   42MOL   C25939701   4.490   5.625   4.158  0.0770  0.3129 -0.4549
   42MOL   C26039702   4.370   5.683   4.076 -0.2041  0.2587 -0.1722
   42MOL   C26139703   4.392   5.828   4.024  0.2508 -0.3450 -0.0116
   42MOL   C26239704   4.523   5.856   3.960  0.3463 -0.7161  0.1257
   42MOL   O26339705   4.588   5.771   3.906  0.2571 -0.3313  0.3443
   42MOL   H26439706   4.855   4.760   4.228 -1.9793 -4.2647  1.4543
   42MOL   H26539707   4.926   4.556   4.348  0.7323  0.7211 -0.5908
   42MOL   H26639708   4.885   4.644   4.499  1.2767 -1.3997 -0.1985
   42MOL   H26739709   4.770   4.413   4.270  1.6545  2.1867  0.9423
   42MOL   H26839710   4.531   4.350   4.231  1.4045 -0.8264  0.9219
   42MOL   H26939711   4.342   4.498   4.311 -0.9130  2.2818 -0.0088
   42MOL   H27039712   4.397   4.709   4.413 -0.1871 -0.9846  1.6729
   42MOL   H27139713   4.733   4.849   4.470 -0.8786 -1.0577 -0.6515
   42MOL   H27239714   4.625   4.791   4.595 -1.2371  0.2211  0.4897
   42MOL   H27339715   4.483   4.922   4.360  1.6426  0.5591 -0.3960
   42MOL   H27439716   4.314   5.142   4.543 -1.3630  1.3558 -1.2147
   42MOL   H27539717   4.340   5.093   4.383  1.7411  0.8454 -1.1949
   42MOL   H27639718   4.502   5.306   4.527 -1.0731 -2.3944  2.5251
   42MOL   H27739719   4.360   5.327   4.428  0.7869  1.0635 -0.2603
   42MOL   H27839720   4.503   5.225   4.236 -0.7882  0.3637 -0.0694
   42MOL   H27939721   4.639   5.218   4.340  1.9898  3.0142 -2.3070
   42MOL   H28039722   4.590   5.483   4.365  1.0812 -0.5023  0.4862
   42MOL   H28139723   4.675   5.420   4.240  0.4769 -0.4961  0.4461
   42MOL   H28239724   4.463   5.413   4.103 -0.3657 -0.0628  0.4036
   42MOL   H28339725   4.369   5.467   4.240 -0.8992 -3.6907 -2.2686
   42MOL   H28439726   4.582   5.629   4.100  0.0831  2.2076 -0.3504
   42MOL   H28539727   4.493   5.688   4.247 -0.9032  0.3972 -0.4799
   42MOL   H28639728   4.371   5.630   3.981  1.8748  2.9228 -1.7256
   42MOL   H28739729   4.277   5.664   4.128 -0.1991 -3.0869 -1.3111
   42MOL   H28839730   4.315   5.853   3.952 -0.1191  0.2489  0.5827
   42MOL   H28939731   4.359   5.891   4.107 -0.3697 -0.1809 -0.3790
   42MOL   N29039732   4.570   5.978   3.982  0.7252  0.4210 -0.0439
   42MOL   C29139733   4.686   6.035   3.927  0.1310 -0.1162 -0.6920
   42MOL   C29239734   4.684   6.047   3.777 -0.0050  0.8817  0.0729
   42MOL   C29339735   4.773   5.958   3.708 -0.3982  0.1185 -0.7002
   42MOL   C29439736   4.771   5.959   3.566 -0.3077  0.1526 -0.3086
   42MOL   C29539737   4.691   6.050   3.497  0.3348  0.6347  0.0590
   42MOL   C29639738   4.605   6.133   3.568 -0.0340  0.0271 -0.3243
   42MOL   C29739739   4.593   6.135   3.706 -0.8792  0.2388  0.0342
   42MOL   C29839740   4.490   6.228   3.774  0.2409  0.1816 -0.3514
   42MOL   N29939741   4.420   6.315   3.682  0.4936 -0.0494  0.1581
   42MOL   C30039742   4.311   6.280   3.621  0.2135 -0.0603  0.6709
   42MOL   O30139743   4.266   6.168   3.623  0.0635 -0.7089  0.1038
   42MOL   C30239744   4.237   6.393   3.547 -0.5975 -0.3029 -0.5195
   42MOL   C30339745   4.089   6.371   3.538  0.3174  0.0985 -0.2375
   42MOL   C30439746   4.001   6.500   3.535  0.3065  0.3255 -0.2689
   42MOL   C30539747   3.858   6.470   3.512  0.3992 -0.5073  0.4438
   42MOL   C30639748   3.780   6.421   3.633  0.8240 -0.3912 -0.2669
   42MOL   C30739749   3.631   6.415   3.612 -0.5964  0.2883 -0.8563
   42MOL   C30839750   3.552   6.383   3.742  0.8307  0.0347  0.5173
   42MOL   C30939751   3.598   6.250   3.811 -0.1329  0.3410  0.3994
   42MOL   C31039752   3.549   6.136   3.721 -0.2315  0.8381 -0.2129
   42MOL   O31139753   3.429   6.120   3.691 -0.0879 -0.2361 -0.6550
   42MOL   H31239754   4.507   6.037   4.036 -1.1847  0.3041 -2.0887
   42MOL   H31339755   4.681   6.137   3.967  0.8507 -0.2923 -0.1507
   42MOL   H31439756   4.777   5.987   3.962 -0.1975  1.5659  2.6842
   42MOL   H31539757   4.830   5.885   3.765  1.7819  0.8117 -1.9026
   42MOL   H31639758   4.821   5.890   3.499  0.0448  0.8017 -0.7101
   42MOL   H31739759   4.684   6.054   3.389 -0.5572  0.7104  0.1194
   42MOL   H31839760   4.547   6.195   3.502  0.2658  2.6478  1.7876
   42MOL   H31939761   4.542   6.289   3.847 -1.7554 -1.2602  2.3841
   42MOL   H32039762   4.418   6.173   3.835 -0.1485  1.1750  0.0867
   42MOL   H32139763   4.453   6.410   3.693  1.9014 -0.7383  2.0178
   42MOL   H32239764   4.250   6.483   3.607 -5.8958  0.6295 -0.5964
   42MOL   H32339765   4.271   6.416   3.445 -2.0907 -1.5045 -1.3155
   42MOL   H32439766   4.059   6.314   3.626 -0.6274 -1.7336 -1.7117
   42MOL   H32539767   4.074   6.307   3.451  1.0331 -0.1682 -0.1660
   42MOL   H32639768   4.026   6.553   3.443  1.9525  0.3002  0.1502
   42MOL   H32739769   4.005   6.557   3.628  0.0946  0.1371 -0.1419
   42MOL   H32839770   3.805   6.561   3.483  1.5123 -0.4769 -1.5585
   42MOL   H32939771   3.848   6.405   3.425  3.4514 -0.1247 -0.2440
   42MOL   H33039772   3.820   6.322   3.658  0.9512 -0.0342  0.9507
   42MOL   H33139773   3.805   6.488   3.715 -0.2203  0.6388 -0.7715
   42MOL   H33239774   3.609   6.335   3.541 -2.2099  1.2908 -1.5250
   42MOL   H33339775   3.598   6.513   3.574 -0.9808  0.5403  0.1139
   42MOL   H33439776   3.564   6.464   3.814  0.8994 -2.1763  3.0594
   42MOL   H33539777   3.446   6.375   3.718  0.6351  1.8621  0.7072
   42MOL   H33639778   3.706   6.254   3.826 -0.2031 -0.7481  1.2422
   42MOL   H33739779   3.549   6.241   3.908  1.1191  0.4939  1.0521
   42MOL   N33839780   3.640   6.044   3.687 -0.0583 -0.5761 -0.5087
   42MOL   C33939781   3.608   5.937   3.594  0.7462 -0.1478  0.2058
   42MOL   C34039782   3.728   5.884   3.519 -0.0528  0.7044  0.6868
   42MOL   C34139783   3.750   5.744   3.534  0.1074  0.1727  0.1938
   42MOL   C34239784   3.857   5.682   3.472  0.4801  0.3557  0.1811
   42MOL   C34339785   3.945   5.754   3.388  0.2693 -0.1941  0.7632
   42MOL   C34439786   3.918   5.892   3.366  0.4764 -0.2878 -0.8669
   42MOL   C34539787   3.808   5.953   3.425  0.2936 -0.0622 -0.4417
   42MOL   C34639788   3.780   6.100   3.396 -0.2218 -0.8051  0.3432
   42MOL   N34739789   3.747   6.127   3.260  0.0332 -0.0788  0.6712
   42MOL   C34839790   3.623   6.163   3.216  0.3417 -0.6793 -0.3743
   42MOL   O34939791   3.524   6.178   3.293  0.3346  0.1819 -0.5258
   42MOL   C35039792   3.611   6.176   3.060 -0.4517  0.4370 -0.2039
   42MOL   C35139793   3.469   6.223   3.008 -0.4387  0.2119 -0.2029
   42MOL   C35239794   3.479   6.300   2.874 -0.2754  0.4511  0.3010
   42MOL   C35339795   3.550   6.232   2.762 -0.0779 -0.3532 -0.2251
   42MOL   C35439796   3.545   6.309   2.626 -0.1137  0.4006  0.0802
   42MOL   C35539797   3.646   6.415   2.617  0.2780 -0.5050 -0.2476
   42MOL   C35639798   3.611   6.501   2.488  0.3163  0.4980  0.1762
   42MOL   C35739799   3.669   6.641   2.490 -0.8380 -0.5232 -0.3339
   42MOL   C35839800   3.820   6.651   2.509 -0.5663 -0.4419 -0.0788
   42MOL   O35939801   3.893   6.554   2.474  0.0379 -0.4141  0.3935
   42MOL   H36039802   3.730   6.043   3.733 -0.8448  0.1318  1.0928
   42MOL   H36139803   3.551   5.864   3.652 -0.7705  0.1797 -0.8468
   42MOL   H36239804   3.546   5.974   3.512 -0.2127 -1.6157  0.2439
   42MOL   H36339805   3.689   5.676   3.591  0.0665 -1.0013 -1.2067
   42MOL   H36439806   3.868   5.576   3.489  1.1831  0.5921  1.2020
   42MOL   H36539807   4.028   5.701   3.343  1.0855  1.1855  0.6144
   42MOL   H36639808   3.972   5.955   3.297  1.9300 -2.0297 -1.3724
   42MOL   H36739809   3.868   6.161   3.413 -1.3348  1.1433 -0.6899
   42MOL   H36839810   3.697   6.133   3.458 -0.4938 -1.0881  0.1318
   42MOL   H36939811   3.824   6.115   3.196  0.1968  0.0158  0.8531
   42MOL   H37039812   3.652   6.085   3.017  1.2289  1.9248 -1.8006
   42MOL   H37139813   3.677   6.255   3.024  1.3757 -1.4561 -1.0430
   42MOL   H37239814   3.403   6.287   3.066  0.6893  1.3809 -0.1968
   42MOL   H37339815   3.410   6.131   3.003  0.9089 -0.6392 -0.5538
   42MOL   H37439816   3.379   6.342   2.862 -1.0196 -0.9027  1.4969
   42MOL   H37539817   3.534   6.392   2.892  0.7872 -0.3379  1.2129
   42MOL   H37639818   3.500   6.137   2.745  1.7673 -1.2522 -0.7310
   42MOL   H37739819   3.651   6.215   2.802 -1.5416  1.0691  4.4415
   42MOL   H37839820   3.559   6.244   2.539 -3.3686 -1.8214  1.1425
   42MOL   H37939821   3.448   6.357   2.631 -0.1772  0.1513  1.6261
   42MOL   H38039822   3.745   6.369   2.618  0.2763 -0.4942  0.3369
   42MOL   H38139823   3.651   6.481   2.703 -2.3575 -0.9341  0.2483
   42MOL   H38239824   3.624   6.446   2.395  1.9303  0.6658  0.2924
   42MOL   H38339825   3.505   6.525   2.477 -0.1249 -1.4008  0.1577
   42MOL   H38439826   3.608   6.707   2.552 -0.9984  0.5414 -1.6100
   42MOL   H38539827   3.638   6.680   2.393 -0.7235 -0.6686 -0.4278
   42MOL   N38639828   3.869   6.774   2.547  0.2028  0.2586 -0.8757
   42MOL   C38739829   4.001   6.826   2.519 -0.8845  0.1413  0.4086
   42MOL   C38839830   3.991   6.976   2.483 -0.3316  0.9205 -0.4910
   42MOL   C38939831   4.016   7.021   2.354  0.3396 -0.1613 -0.0328
   42MOL   C39039832   4.045   7.157   2.334  1.0658  0.4209  0.1369
   42MOL   C39139833   4.039   7.251   2.440  0.5266 -0.1343 -0.0518
   42MOL   C39239834   3.994   7.205   2.564 -0.2245 -0.5481  0.2265
   42MOL   C39339835   3.981   7.070   2.589 -0.0834  0.2357  0.0223
   42MOL   C39439836   3.953   7.031   2.731  0.5101 -0.6159 -0.6801
   42MOL   N39539837   3.814   7.029   2.766  0.0913  0.2690  1.0526
   42MOL   C39639838   3.742   6.928   2.811  0.2822 -0.3006  0.7562
   42MOL   O39739839   3.786   6.812   2.836  0.2426 -0.5874 -0.7812
   42MOL   C39839840   3.595   6.959   2.833 -0.2616 -0.4163  0.0535
   42MOL   C39939841   3.515   6.831   2.852 -0.0307 -0.4432 -0.4817
   42MOL   C40039842   3.362   6.856   2.838  0.1964  0.8773 -0.4663
   42MOL   C40139843   3.281   6.721   2.870 -0.8478 -0.8277  0.0971
   42MOL   C40239844   3.279   6.620   2.761  0.3863 -0.2161 -0.1183
   42MOL   C40339845   3.160   6.618   2.672  0.3953 -0.2723 -0.0802
   42MOL   C40439846   3.182   6.517   2.554 -0.6618 -0.4805  0.5715
   42MOL   C40539847   3.088   6.528   2.428  0.4604  0.3856  0.2029
   42MOL   C40639848   2.944   6.500   2.465 -0.5174 -0.0092 -0.7882
   42MOL   O40739849   2.870   6.593   2.488 -0.2536  0.3247  0.1075
   42MOL   H40839850   3.804   6.845   2.578  1.4480  1.4866 -1.0693
   42MOL   H40939851   4.065   6.825   2.608  1.4857  0.4976 -1.2474
   42MOL   H41039852   4.040   6.767   2.437 -2.9290  1.4727 -1.5542
   42MOL   H41139853   4.029   6.954   2.271  0.7877 -0.2281  0.0917
   42MOL   H41239854   4.058   7.199   2.235 -0.3982  1.6922  0.4726
   42MOL   H41339855   4.059   7.356   2.423 -2.2341  0.2424 -1.0617
   42MOL   H41439856   3.987   7.273   2.648  0.9102 -1.7122  1.2783
   42MOL   H41539857   3.987   7.114   2.792 -0.8037 -0.0391 -0.7030
   42MOL   H41639858   4.010   6.944   2.765  0.2751 -0.7352 -0.5833
   42MOL   H41739859   3.762   7.115   2.765 -1.6411 -0.7489  0.1764
   42MOL   H41839860   3.574   7.026   2.916 -2.1222 -1.1979  0.2280
   42MOL   H41939861   3.563   7.014   2.744  0.1840  0.9476  0.7202
   42MOL   H42039862   3.542   6.781   2.945 -0.5892 -0.7875 -0.5052
   42MOL   H42139863   3.547   6.761   2.775 -1.2112  0.4938 -1.8498
   42MOL   H42239864   3.331   6.883   2.737 -0.8159  1.4604 -0.0008
   42MOL   H42339865   3.329   6.935   2.905 -0.9832 -1.0742  1.3301
   42MOL   H42439866   3.318   6.676   2.963 -1.9204  1.7446  1.8269
   42MOL   H42539867   3.181   6.751   2.902  0.0449  0.5402  1.7155
   42MOL   H42639868   3.371   6.630   2.702 -0.4003  0.4149 -1.2437
   42MOL   H42739869   3.279   6.525   2.816  2.6119  0.2395  0.7441
   42MOL   H42839870   3.145   6.720   2.638  0.4617 -0.8039 -1.7203
   42MOL   H42939871   3.076   6.590   2.736  0.9592 -0.7973  0.4405
   42MOL   H43039872   3.176   6.414   2.590 -0.7316 -0.5836  0.2670
   42MOL   H43139873   3.282   6.541   2.518 -1.2956 -0.2140 -1.0742
   42MOL   H43239874   3.122   6.461   2.349  0.1986  1.3193 -0.7094
   42MOL   H43339875   3.104   6.627   2.387  1.0463 -1.1588 -3.4390
   42MOL   N43439876   2.901   6.371   2.445 -0.5918 -0.0507  0.0106
   42MOL   C43539877   2.771   6.335   2.488  0.4436 -0.5790 -0.6215
   42MOL   C43639878   2.734   6.196   2.439  0.3066 -0.5254  0.5331
   42MOL   C43739879   2.615   6.183   2.358  0.0004  0.1577 -0.4184
   42MOL   C43839880   2.579   6.058   2.300 -0.2244  0.4310 -0.1527
   42MOL   C43939881   2.657   5.941   2.334 -0.0769 -0.2827  0.3959
   42MOL   C44039882   2.770   5.954   2.418 -0.1071 -0.0618  0.1707
   42MOL   C44139883   2.807   6.079   2.475 -0.1868 -0.3192  0.7412
   42MOL   C44239884   2.936   6.085   2.554 -0.0414  1.0666  0.5568
   42MOL   N44339885   3.048   6.027   2.492 -0.5829  0.5420 -0.7709
   42MOL   C44439886   3.135   6.101   2.420  0.2634 -0.1591  0.8779
   42MOL   O44539887   3.117   6.219   2.386  0.1691  0.3117  0.0192
   42MOL   C44639888   3.274   6.031   2.391 -0.6056 -0.2945  0.2916
   42MOL   C44739889   3.311   6.028   2.244 -0.6800 -0.8322  0.4129
   42MOL   C44839890   3.353   5.891   2.184  0.7664 -0.0569 -0.3848
   42MOL   C44939891   3.253   5.778   2.189  0.0739  0.0882 -0.3246
   42MOL   C45039892   3.114   5.817   2.145 -0.4499  0.1664  0.0292
   42MOL   C45139893   3.020   5.698   2.145  0.5739  0.2028  0.4537
   42MOL   C45239894   2.876   5.750   2.116 -0.1355 -0.9274  0.3755
   42MOL   C45339895   2.758   5.661   2.074 -0.5453 -0.4113 -0.2608
   42MOL   C45439896   2.780   5.588   1.942  0.1738  0.8780 -0.2112
   42MOL   O45539897   2.865   5.633   1.859 -0.1196  0.0693 -0.2959
   42MOL   H45639898   2.978   6.311   2.419  0.0332 -0.2555  2.2312
   42MOL   H45739899   2.703   6.414   2.455  2.9496  1.8572 -0.1245
   42MOL   H45839900   2.761   6.340   2.597 -0.4130  0.0747 -0.7279
   42MOL   H45939901   2.551   6.270   2.351  1.8152  1.5869  0.3719
   42MOL   H46039902   2.489   6.051   2.241  0.7944 -0.6127 -1.6155
   42MOL   H46139903   2.629   5.843   2.296  2.4979 -0.8729 -0.1142
   42MOL   H46239904   2.823   5.862   2.438 -2.7303 -1.7766 -0.4452
   42MOL   H46339905   2.923   6.027   2.646 -1.2070  1.2399  0.5120
   42MOL   H46439906   2.965   6.181   2.597  2.5234 -0.6661  2.8964
   42MOL   H46539907   3.093   5.945   2.529  0.5394  1.1495 -0.7789
   42MOL   H46639908   3.276   5.929   2.428  0.5765 -0.0418  0.9508
   42MOL   H46739909   3.352   6.082   2.448  1.3237  0.1505 -2.5952
   42MOL   H46839910   3.392   6.100   2.229 -1.5259  0.1416  0.4675
   42MOL   H46939911   3.232   6.060   2.175  1.1426 -1.4241 -1.9988
   42MOL   H47039912   3.374   5.914   2.080  1.2759  0.3796 -0.1825
   42MOL   H47139913   3.443   5.862   2.238 -0.3267 -1.3830  0.7832
   42MOL   H47239914   3.289   5.698   2.124  0.7426  0.4302 -0.3770
   42MOL   H47339915   3.241   5.746   2.293  0.0186  1.0772 -0.0240
   42MOL   H47439916   3.066   5.881   2.220 -0.9969 -0.3590  0.1283
   42MOL   H47539917   3.130   5.865   2.048  1.3509  0.8486  0.6443
   42MOL   H47639918   3.038   5.635   2.232 -1.6883 -1.8943 -0.5035
   42MOL   H47739919   3.045   5.622   2.070  0.2927  0.3397  0.2204
   42MOL   H47839920   2.852   5.806   2.206  1.7045 -0.8243  0.8229
   42MOL   H47939921   2.882   5.830   2.042  2.4889 -1.1825  0.2508
   42MOL   H48039922   2.745   5.587   2.153 -1.3841  1.3086  1.2156
   42MOL   H48139923   2.659   5.705   2.076 -0.5547 -0.1584 -3.1196
   42MOL   N48239924   2.710   5.477   1.923  0.3634 -0.1058  0.0370
   42MOL   C48339925   2.728   5.381   1.814 -0.3316  0.0006  0.0350
   42MOL   C48439926   2.829   5.275   1.843  1.2273  1.1574 -0.0648
   42MOL   C48539927   2.771   5.173   1.921  0.2860 -0.0432  0.2197
   42MOL   C48639928   2.843   5.058   1.965  0.3483 -0.2310  0.5718
   42MOL   C48739929   2.977   5.047   1.930  0.0919 -0.4879  0.2482
   42MOL   C48839930   3.033   5.141   1.837 -0.1486 -0.2847  0.0619
   42MOL   C48939931   2.959   5.255   1.790 -0.7397 -0.5523  0.0248
   42MOL   C49039932   3.024   5.351   1.690 -0.2141 -0.1532  0.8154
   42MOL   N49139933   3.074   5.474   1.756 -0.3540 -0.3250  0.2762
   42MOL   C49239934   3.195   5.524   1.754  0.3874  0.4481  0.2743
   42MOL   O49339935   3.296   5.456   1.728  0.2838 -0.5897 -0.4577
   42MOL   C49439936   3.215   5.676   1.782  1.0908  0.6064  0.1987
   42MOL   C49539937   3.291   5.747   1.670  0.2860 -0.0911 -0.4245
   42MOL   C49639938   3.215   5.749   1.545 -0.7620  0.1719  0.2660
   42MOL   C49739939   3.281   5.851   1.451  0.0220 -0.8717 -0.4424
   42MOL   C49839940   3.220   5.860   1.308  0.4069 -0.5724  0.2724
   42MOL   C49939941   3.067   5.862   1.296 -0.3345 -0.5502 -0.3619
   42MOL   C50039942   3.021   5.921   1.156  0.4716 -0.5784 -0.0577
   42MOL   C50139943   3.028   5.809   1.062 -0.6895 -0.6480  0.9662
   42MOL   C50239944   2.998   5.854   0.916  0.0453  0.0641 -0.2991
   42MOL   O50339945   3.056   5.940   0.853 -0.2498  0.5828 -0.2520
   42MOL   H50439946   2.635   5.444   1.982 -1.1192  0.4249 -1.5110
   42MOL   H50539947   2.632   5.335   1.788  0.1104 -2.4954  2.4939
   42MOL   H50639948   2.766   5.439   1.731 -2.8651  2.3492  0.4328
   42MOL   H50739949   2.671   5.187   1.958 -0.3252  0.5656 -1.5964
   42MOL   H50839950   2.781   4.991   2.023 -2.4658  0.1612 -1.8545
   42MOL   H50939951   3.035   4.968   1.975  1.3920 -0.6408 -1.6704
   42MOL   H51039952   3.133   5.129   1.797  0.5484  0.4813  1.5054
   42MOL   H51139953   2.944   5.378   1.621  0.6986  1.5602  0.3996
   42MOL   H51239954   3.098   5.299   1.630  0.1439  0.1622  0.9782
   42MOL   H51339955   2.993   5.525   1.790  0.0682  0.7448 -0.3100
   42MOL   H51439956   3.276   5.668   1.872  2.0260  1.5353 -0.3555
   42MOL   H51539957   3.130   5.741   1.802 -0.5361 -1.0450 -1.1112
   42MOL   H51639958   3.391   5.704   1.656  1.8599  3.0828  0.7283
   42MOL   H51739959   3.296   5.849   1.706 -3.4122  0.3774 -1.0184
   42MOL   H51839960   3.208   5.650   1.502  1.0587  0.0170  0.2689
   42MOL   H51939961   3.116   5.787   1.572 -1.4695 -0.1487 -1.7994
   42MOL   H52039962   3.258   5.945   1.500  1.0226 -1.1862  0.6584
   42MOL   H52139963   3.390   5.849   1.451  0.1354  2.5874  0.2357
   42MOL   H52239964   3.263   5.951   1.266  0.7296 -0.4862  0.7862
   42MOL   H52339965   3.268   5.789   1.241 -1.7883  0.2820 -2.2987
   42MOL   H52439966   3.035   5.934   1.371 -0.9335  0.3875 -1.4910
   42MOL   H52539967   3.022   5.764   1.312  0.5561 -1.1126 -1.2291
   42MOL   H52639968   2.916   5.952   1.160  0.9103  1.3584 -2.2101
   42MOL   H52739969   3.082   6.010   1.138  0.3424  0.4976  4.2648
   42MOL   H52839970   2.952   5.738   1.092 -1.2391 -0.8618 -0.8412
   42MOL   H52939971   3.122   5.755   1.063 -0.6920 -0.6999 -0.2074
   42MOL   N53039972   2.899   5.780   0.860  0.1877 -0.4906 -0.5523
   42MOL   C53139973   2.869   5.787   0.724  0.3772 -0.1666 -0.0178
   42MOL   C53239974   2.922   5.667   0.651 -0.0284  0.1744 -0.0871
   42MOL   C53339975   3.063   5.647   0.646  0.3822 -0.1169 -0.8256
   42MOL   C53439976   3.115   5.541   0.576  0.3151  0.1363  0.9406
   42MOL   C53539977   3.027   5.451   0.509 -0.4537  0.1802 -0.6325
   42MOL   C53639978   2.892   5.468   0.506  0.0628  0.0298 -0.0431
   42MOL   C53739979   2.838   5.576   0.579 -0.4329  0.2506  0.6003
   42MOL   C53839980   2.694   5.609   0.555  0.3659 -0.1564  0.7224
   42MOL   N53939981   2.675   5.728   0.475  0.1888 -0.0820  0.0286
   42MOL   C54039982   2.594   5.836   0.501  0.3237 -1.1625  0.2726
   42MOL   O54139983   2.508   5.831   0.587 -0.3326  0.1130 -0.0827
   42MOL   C54239984   2.611   5.962   0.419  0.5804  0.1831  1.2521
   42MOL   C54339985   2.700   6.070   0.486 -0.7113  0.4751 -0.0558
   42MOL   C54439986   2.623   6.160   0.574  0.1657  0.2056 -0.2434
   42MOL   C54539987   2.721   6.243   0.664  0.3157 -0.3998  0.4939
   42MOL   C54639988   2.646   6.333   0.758  0.0323 -0.4525 -0.2892
   42MOL   C54739989   2.735   6.428   0.838  0.1156 -0.4192 -0.1419
   42MOL   C54839990   2.652   6.502   0.951  0.3247 -0.5609  0.0295
   42MOL   C54939991   2.756   6.553   1.060 -0.3865 -0.1236 -0.4560
   42MOL   C55039992   2.685   6.586   1.191 -0.0359  0.1533  0.8000
   42MOL   O55139993   2.564   6.580   1.193 -0.3734  0.2486 -0.4158
   42MOL   H55239994   2.847   5.711   0.911 -2.6220  2.8008  1.2320
   42MOL   H55339995   2.892   5.883   0.678 -1.8918  1.3535  1.8819
   42MOL   H55439996   2.761   5.780   0.739  0.7459 -1.5014  2.3053
   42MOL   H55539997   3.139   5.718   0.677 -2.2009  1.7574  1.4517
   42MOL   H55639998   3.221   5.523   0.573  0.5812  1.4609  1.8098
   42MOL   H55739999   3.068   5.377   0.442  0.0004  1.5779 -1.9463
   42MOL   H55840000   2.828   5.404   0.446 -1.9281  1.6569  0.2594
   42MOL   H55940001   2.648   5.615   0.653 -1.5208 -0.0246 -0.1379
   42MOL   H56040002   2.641   5.528   0.505  0.2984  0.4636 -0.2399
   42MOL   H56140003   2.749   5.732   0.406  0.1175  0.3728 -0.0198
   42MOL   H56240004   2.508   5.993   0.400  0.3011 -1.7992 -0.6881
   42MOL   H56340005   2.644   5.940   0.318 -2.7355 -0.7414  0.3033
   42MOL   H56440006   2.753   6.123   0.406 -2.8358  0.4693 -1.5176
   42MOL   H56540007   2.772   6.014   0.545 -0.3590  2.3829  1.3736
   42MOL   H56640008   2.559   6.217   0.506  0.6311  1.3425  0.2743
   42MOL   H56740009   2.555   6.108   0.642  0.6168 -0.6382 -0.4257
   42MOL   H56840010   2.788   6.186   0.730  0.3576  0.0210  0.8150
   42MOL   H56940011   2.775   6.301   0.590  0.2541 -2.3543 -1.1227
   42MOL   H57040012   2.571   6.384   0.697  0.8336  3.2596  1.6590
   42MOL   H57140013   2.589   6.275   0.830  0.5944  1.1063  1.4405
   42MOL   H57240014   2.785   6.497   0.770 -1.8632  1.0513 -0.1497
   42MOL   H57340015   2.811   6.364   0.882 -1.2506 -0.8154  1.6738
   42MOL   H57440016   2.594   6.584   0.906  1.5686  0.2915 -0.0532
   42MOL   H57540017   2.583   6.430   0.994 -0.1652 -0.0218  0.1555
   42MOL   H57640018   2.821   6.635   1.031 -0.3173 -0.2803 -0.7447
   42MOL   H57740019   2.815   6.467   1.090  1.0141  1.0242  0.0901
   42MOL   N57840020   2.757   6.622   1.300  0.0060  0.1958 -0.9402
   42MOL   C57940021   2.703   6.675   1.425 -0.4527  0.9907  0.0504
   42MOL   C58040022   2.794   6.777   1.498  0.6426 -0.6354 -0.1060
   42MOL   C58140023   2.918   6.822   1.444  0.6674  1.1394  0.1892
   42MOL   C58240024   3.000   6.920   1.501 -0.7203  0.2317 -0.4800
   42MOL   C58340025   2.958   6.971   1.627  0.3971  0.3395 -0.0239
   42MOL   C58440026   2.836   6.940   1.686  0.8418  0.2263 -0.4597
   42MOL   C58540027   2.754   6.841   1.623 -1.3692  0.2038  0.7510
   42MOL   C58640028   2.617   6.813   1.684  0.5951 -0.3656 -0.6177
   42MOL   N58740029   2.509   6.872   1.598  0.1356 -0.0890 -0.5785
   42MOL   C58840030   2.390   6.809   1.580  0.3943 -0.7003 -0.3174
   42MOL   O58940031   2.359   6.705   1.634 -0.2529 -0.1317  0.4654
   42MOL   C59040032   2.282   6.889   1.495 -0.3035 -0.4828 -0.8200
   42MOL   C59140033   2.245   6.821   1.370  0.2764  0.8012  0.7098
   42MOL   C59240034   2.115   6.742   1.386  0.7786  0.2150 -1.0158
   42MOL   C59340035   2.079   6.651   1.260 -1.0104 -0.4209 -0.1594
   42MOL   C59440036   1.958   6.570   1.299 -0.8334 -0.1602 -0.6131
   42MOL   C59540037   1.916   6.508   1.170 -0.0462  0.1993  0.0702
   42MOL   C59640038   1.828   6.383   1.202  0.7579 -1.0751 -0.5901
   42MOL   C59740039   1.789   6.305   1.076 -0.2859  0.1322  0.8180
   42MOL   C59840040   1.691   6.190   1.108 -0.2882 -0.0395  0.1807
   42MOL   O59940041   1.687   6.145   1.221 -0.4180  0.8901 -0.4092
   42MOL   H60040042   2.858   6.614   1.296  0.0132  0.7816 -2.1019
   42MOL   H60140043   2.690   6.592   1.494  2.0997 -0.5654 -1.2860
   42MOL   H60240044   2.608   6.717   1.393 -1.4400 -0.0139  1.6409
   42MOL   H60340045   2.947   6.778   1.350 -0.1010  1.8764 -0.3989
   42MOL   H60440046   3.099   6.956   1.480 -1.4654  3.5005  1.3182
   42MOL   H60540047   3.036   7.030   1.672 -1.0045  0.6806  2.0401
   42MOL   H60640048   2.803   6.978   1.781 -0.9175 -1.3493 -0.4090
   42MOL   H60740049   2.614   6.859   1.783 -0.1498 -0.4095 -0.6184
   42MOL   H60840050   2.596   6.706   1.691  2.2265 -0.8060 -2.1764
   42MOL   H60940051   2.519   6.970   1.574 -0.1383 -0.0534 -0.5508
   42MOL   H61040052   2.315   6.992   1.477 -0.6938 -0.3893 -1.0066
   42MOL   H61140053   2.193   6.903   1.557 -0.3527 -1.1133 -0.7506
   42MOL   H61240054   2.317   6.761   1.315  1.0311  1.8353  0.5515
   42MOL   H61340055   2.225   6.895   1.292 -2.0903 -1.7863 -1.2368
   42MOL   H61440056   2.116   6.698   1.485  1.3364 -0.0106 -1.1232
   42MOL   H61540057   2.027   6.806   1.398  1.1596  0.3915  0.9206
   42MOL   H61640058   2.059   6.714   1.173 -0.9890 -0.7703 -0.4150
   42MOL   H61740059   2.150   6.577   1.224  0.0629  0.4109  0.2246
   42MOL   H61840060   1.986   6.498   1.376  0.4826  2.5638  1.5527
   42MOL   H61940061   1.873   6.624   1.339 -1.1333 -0.1313 -1.2747
   42MOL   H62040062   2.007   6.463   1.129  0.1673 -0.2583  1.0191
   42MOL   H62140063   1.871   6.577   1.099 -1.1154 -0.3198  0.2324
   42MOL   H62240064   1.889   6.313   1.260 -1.4423  0.6521  4.1060
   42MOL   H62340065   1.747   6.418   1.266 -0.0949  0.1494 -2.3244
   42MOL   H62440066   1.738   6.378   1.014 -0.1575  1.4940  2.2879
   42MOL   H62540067   1.876   6.265   1.024 -0.5872 -1.4367  1.4966
   42MOL   N62640068   1.614   6.155   1.004  0.0337  0.3254 -0.0288
   42MOL   C62740069   1.504   6.054   1.011  0.6972 -0.5063 -0.8321
   42MOL   C62840070   1.374   6.127   1.062  0.0422 -0.0627  0.7627
   42MOL   C62940071   1.375   6.215   1.175  0.6169 -0.2550 -0.7276
   42MOL   C63040072   1.260   6.285   1.216  0.3511  1.0731  0.1551
   42MOL   C63140073   1.140   6.268   1.144 -0.3052 -0.1791 -0.9272
   42MOL   C63240074   1.141   6.187   1.029  0.0519 -0.6683  0.0435
   42MOL   C63340075   1.253   6.111   0.986 -0.0674 -0.0810 -0.6845
   42MOL   C63440076   1.237   6.028   0.859 -0.4521  0.2511  1.1060
   42MOL   N63540077   1.296   6.091   0.740  0.0978 -0.0476  0.1281
   42MOL   C63640078   1.380   6.036   0.655 -0.5012 -0.6340  0.7930
   42MOL   O63740079   1.423   5.919   0.663 -0.2017  0.0872 -0.2058
   42MOL   C63840080   1.431   6.129   0.545 -0.8889  0.2952 -0.8026
   42MOL   C63940081   1.496   6.056   0.422  0.0867 -0.8939  0.6623
   42MOL   C64040082   1.530   6.158   0.305 -0.3989  0.1355  0.6978
   42MOL   C64140083   1.548   6.096   0.169  0.4667 -0.1324  0.3457
   42MOL   C64240084   1.660   5.993   0.162 -0.4288  0.0531 -0.0546
   42MOL   C64340085   1.706   5.971   0.019  0.1423 -0.3798  0.1644
   42MOL   C64440086   1.835   5.889   0.003  0.6065 -0.6698 -0.3634
   42MOL   C64540087   1.882   5.882   7.646  0.3618 -0.6248  0.2403
   42MOL   C64640088   2.018   5.816   7.631 -0.3177 -0.2705 -0.1194
   42MOL   O64740089   2.041   5.696   7.633  0.0829 -0.1894  0.4672
   42MOL   H64840090   1.636   6.185   0.910 -1.1691 -2.3117 -1.2113
   42MOL   H64940091   1.535   5.979   1.084  1.0109  1.9963  1.6963
   42MOL   H65040092   1.496   6.011   0.911 -1.6422  0.2761 -1.0194
   42MOL   H65140093   1.468   6.232   1.227 -0.3836  1.1962  0.6084
   42MOL   H65240094   1.262   6.356   1.297 -0.1914 -1.1707  2.1949
   42MOL   H65340095   1.053   6.318   1.184 -0.3800 -1.3601  0.3941
   42MOL   H65440096   1.055   6.178   0.964  1.2735 -2.5570 -1.3733
   42MOL   H65540097   1.130   6.017   0.841 -0.5625  1.5922  0.9242
   42MOL   H65640098   1.266   5.925   0.884 -1.5381  0.0640  1.6469
   42MOL   H65740099   1.269   6.187   0.730  0.3302 -0.1248 -1.2967
   42MOL   H65840100   1.499   6.187   0.606 -0.9607  0.9654 -1.3551
   42MOL   H65940101   1.353   6.203   0.527 -0.9564 -0.0716 -2.0871
   42MOL   H66040102   1.419   5.992   0.379  1.1687 -1.4397 -0.5065
   42MOL   H66140103   1.581   5.994   0.451  0.9726  1.3058  2.9674
   42MOL   H66240104   1.456   6.238   0.302 -3.6932 -2.7631  0.9602
   42MOL   H66340105   1.620   6.219   0.315  0.4048 -0.6999 -1.2408
   42MOL   H66440106   1.458   6.040   0.141 -1.7813  3.9603 -1.0051
   42MOL   H66540107   1.568   6.173   0.094  1.7545 -0.3013  0.5116
   42MOL   H66640108   1.738   6.025   0.232 -2.2854  0.4997  1.8756
   42MOL   H66740109   1.632   5.902   0.214  1.0794 -0.5042 -0.1756
   42MOL   H66840110   1.726   6.072   7.772 -0.9510 -0.0224  0.5083
   42MOL   H66940111   1.632   5.931   7.739  1.0837 -1.1350 -0.4104
   42MOL   H67040112   1.911   5.924   0.073  0.6175 -0.8826 -0.2677
   42MOL   H67140113   1.815   5.784   0.026 -0.3893 -0.3714  0.1671
   42MOL   H67240114   1.884   5.979   7.596 -0.0418  0.5454  2.4502
   42MOL   H67340115   1.814   5.822   7.584  0.6603  0.2907 -0.9867
   42MOL   N67440116   2.113   5.904   7.607 -0.1886  0.0294  0.3721
   42MOL   C67540117   2.249   5.868   7.582 -0.4489 -0.5063 -0.2952
   42MOL   C67640118   2.353   5.936   7.672  0.6291  0.0191  0.6877
   42MOL   C67740119   2.321   5.992   0.009  0.1690 -0.1022 -0.0733
   42MOL   C67840120   2.420   6.041   0.097  0.8837 -0.7946 -0.3111
   42MOL   C67940121   2.554   6.030   0.062  0.0576  0.0601  0.1536
   42MOL   C68040122   2.588   5.983   7.716  0.1877  0.3958 -0.3314
   42MOL   C68140123   2.488   5.936   7.630  0.1642  0.1131 -0.8846
   42MOL   C68240124   2.528   5.887   7.495 -0.3934 -0.1873 -0.2188
   42MOL   N68340125   2.521   5.987   7.390 -0.2027 -0.2950  0.3091
   42MOL   C68440126   2.622   6.067   7.356 -0.4091  1.0022 -0.3962
   42MOL   O68540127   2.733   6.048   7.400 -0.2502  0.3482 -0.3235
   42MOL   C68640128   2.591   6.178   7.259  0.1044  0.2733  0.2775
   42MOL   C68740129   2.700   6.276   7.225  0.0793 -0.4325  0.5978
   42MOL   C68840130   2.740   6.387   7.330  0.0953 -0.0576  0.0712
   42MOL   C68940131   2.832   6.495   7.267  0.1065 -0.3637 -0.5530
   42MOL   C69040132   2.830   6.615   7.367 -0.0218  0.7911  0.3899
   42MOL   C69140133   2.919   6.725   7.310 -0.3009  0.1521 -0.6995
   42MOL   C69240134   2.903   6.866   7.377  0.8463  0.3761  0.1571
   42MOL   C69340135   2.976   6.888   7.508 -0.2563 -0.5738 -0.1659
   42MOL   C69440136   2.908   6.816   7.628  0.3976 -0.2528 -0.3659
   42MOL   O69540137   2.783   6.818   7.642  0.0391  0.4006 -0.1901
   42MOL   H69640138   2.089   6.002   7.611 -0.6834 -0.1139  0.9564
   42MOL   H69740139   2.266   5.896   7.478 -0.2633 -1.8243 -0.6335
   42MOL   H69840140   2.265   5.760   7.587 -3.0931 -0.8883  0.8790
   42MOL   H69940141   2.220   6.011   0.044  0.0936 -0.0537 -0.3158
   42MOL   H70040142   2.404   6.075   0.198 -0.1611 -3.6585  0.5470
   42MOL   H70140143   2.625   6.082   0.124  1.6357 -1.3054 -0.4858
   42MOL   H70240144   2.687   5.995   7.675  0.0184  3.1871 -0.0329
   42MOL   H70340145   2.472   5.801   7.460  0.1550 -1.8290  2.7899
   42MOL   H70440146   2.625   5.838   7.493 -0.5830 -0.5515 -0.5870
   42MOL   H70540147   2.431   6.004   7.347  0.3727 -0.7435 -1.1016
   42MOL   H70640148   2.492   6.219   7.276 -0.7900 -1.2899 -1.0021
   42MOL   H70740149   2.582   6.118   7.168  0.5831 -1.3201  1.2613
   42MOL   H70840150   2.647   6.320   7.140 -1.8671  0.2942  2.1387
   42MOL   H70940151   2.790   6.226   7.189  0.2163  0.8624 -0.9431
   42MOL   H71040152   2.649   6.432   7.370  0.3572  1.3338 -0.8476
   42MOL   H71140153   2.786   6.335   7.415 -0.6227 -0.8053  0.0093
   42MOL   H71240154   2.937   6.465   7.257  0.3968  0.5356 -0.2962
   42MOL   H71340155   2.795   6.522   7.168 -0.2028 -0.2374 -0.4020
   42MOL   H71440156   2.728   6.652   7.381 -0.0488  0.2973  1.6030
   42MOL   H71540157   2.854   6.575   7.465  0.5034  1.6801  0.6295
   42MOL   H71640158   2.874   6.735   7.211 -2.5196 -2.8445 -0.0811
   42MOL   H71740159   3.019   6.684   7.311 -0.3621 -0.0171  2.6693
   42MOL   H71840160   2.799   6.894   7.391  1.4409  2.0633  1.3210
   42MOL   H71940161   2.942   6.937   7.304 -2.2704  1.5054 -0.4786
   42MOL   H72040162   2.970   6.996   7.519  2.3770 -0.4314  0.4434
   42MOL   H72140163   3.082   6.861   7.500 -0.2692  0.0131 -2.8869
   42MOL   N72240164   2.985   6.754   7.717  0.1845 -0.8756  0.2797
   42MOL   C72340165   2.932   6.678   0.042 -0.2782 -0.1591  0.0617
   42MOL   C72440166   2.934   6.521   0.026 -0.7374 -0.1352 -0.5086
   42MOL   C72540167   2.833   6.466   7.730  0.2542  0.1157 -0.5151
   42MOL   C72640168   2.825   6.326   7.707 -0.4422 -0.3020 -0.2785
   42MOL   C72740169   2.922   6.243   7.758 -0.5657  0.0221 -0.4156
   42MOL   C72840170   3.023   6.294   0.050 -0.2935 -0.4537  0.1161
   42MOL   C72940171   3.029   6.430   0.081  0.5793  0.4850 -0.1484
   42MOL   C73040172   3.122   6.480   0.194  0.3842  0.6030 -0.0509
   42MOL   N73140173   3.191   6.377   0.268  0.2306 -0.2836 -0.2389
   42MOL   C73240174   3.320   6.349   0.262  0.3806 -0.0394 -0.2628
   42MOL   O73340175   3.392   6.412   0.186 -0.1132  0.0137 -0.5043
   42MOL   C73440176   3.373   6.223   0.327 -0.2479  0.6912 -0.6244
   42MOL   C73540177   3.521   6.233   0.368 -0.0677  0.3582  0.4170
   42MOL   C73640178   3.584   6.116   0.444  0.1893 -0.0745 -0.6314
   42MOL   C73740179   3.716   6.143   0.505 -0.3814 -0.7843 -0.0637
   42MOL   C73840180   3.767   6.024   0.589 -1.0190 -0.7527 -0.3175
   42MOL   C73940181   3.878   6.065   0.690  0.3538 -0.0261 -0.2552
   42MOL   C74040182   4.009   6.123   0.623  0.3507  0.0213 -0.1321
   42MOL   C74140183   4.127   6.118   0.723 -0.3387  0.6110  0.1504
   42MOL   C74240184   4.248   6.197   0.662  0.0831  0.3022 -0.3340
   42MOL   O74340185   4.254   6.318   0.656 -0.1785 -0.1535  0.0659
   42MOL   H74440186   3.077   6.725   7.685  2.0779  0.8895  3.8456
   42MOL   H74540187   2.828   6.707   0.059 -0.6715 -1.9525  0.8879
   42MOL   H74640188   2.996   6.703   0.127  0.2380 -2.8331  0.5242
   42MOL   H74740189   2.758   6.533   7.690  0.6367  0.6267 -0.3761
   42MOL   H74840190   2.743   6.282   7.653 -2.0589 -0.8273  2.4986
   42MOL   H74940191   2.922   6.139   7.732  0.1552 -0.3703  1.0738
   42MOL   H75040192   3.093   6.229   0.101 -1.7553  0.2079  3.1106
   42MOL   H75140193   3.045   6.528   0.255 -0.6941 -1.6904  0.4188
   42MOL   H75240194   3.188   6.560   0.161  0.3684 -0.1742 -2.0123
   42MOL   H75340195   3.132   6.315   0.321  1.0787  1.3034  2.6487
   42MOL   H75440196   3.372   6.143   0.253  1.9215 -0.2778  0.3330
   42MOL   H75540197   3.308   6.186   0.406 -0.2668  0.4102 -0.7714
   42MOL   H75640198   3.539   6.315   0.438 -0.1370 -0.6311  1.5991
   42MOL   H75740199   3.581   6.255   0.279 -0.4534 -0.0517  0.0575
   42MOL   H75840200   3.505   6.094   0.516  0.6312  0.1576 -0.0728
   42MOL   H75940201   3.587   6.036   0.370 -1.0246 -0.4220 -0.3170
   42MOL   H76040202   3.791   6.152   0.426 -0.8015 -2.9731 -0.7407
   42MOL   H76140203   3.721   6.231   0.569  2.3829 -2.1346  1.7061
   42MOL   H76240204   3.684   5.982   0.646  0.6119 -1.8137  1.3360
   42MOL   H76340205   3.803   5.949   0.519 -3.2122 -1.7675 -0.3927
   42MOL   H76440206   3.898   5.983   0.759 -1.0662  1.7961  2.3740
   42MOL   H76540207   3.833   6.145   0.748 -0.9688 -0.1797 -1.0410
   42MOL   H76640208   4.037   6.064   0.536 -0.4582 -0.5845  0.0144
   42MOL   H76740209   3.991   6.227   0.596  1.1148  0.5883  1.4884
   42MOL   H76840210   4.099   6.159   0.820  0.8640 -0.5090  1.0016
   42MOL   H76940211   4.154   6.014   0.741  0.4759  0.7819 -0.0700
   42MOL   N77040212   4.352   6.123   0.630  0.1595 -0.1695 -0.3553
   42MOL   C77140213   4.486   6.165   0.585  0.1417  0.0841 -0.5034
   42MOL   C77240214   4.527   6.107   0.454 -0.1321 -0.0386  0.0828
   42MOL   C77340215   4.645   6.027   0.449 -0.1219  0.0949  0.0276
   42MOL   C77440216   4.680   5.963   0.328  0.0462  0.2884 -0.3601
   42MOL   C77540217   4.602   5.976   0.212 -0.4693  0.7108 -0.1202
   42MOL   C77640218   4.486   6.054   0.221 -0.1347 -0.6130  0.7729
   42MOL   C77740219   4.452   6.126   0.336  0.6654  0.0600 -0.2508
   42MOL   C77840220   4.332   6.221   0.321  0.0919  0.0651  0.3155
   42MOL   N77940221   4.349   6.348   0.390 -0.1807  0.3269 -0.2855
   42MOL   C78040222   4.413   6.449   0.345 -0.2707 -0.7168  0.3519
   42MOL   O78140223   4.470   6.442   0.237  0.0975 -0.0406 -0.2821
   42MOL   C78240224   4.426   6.574   0.437  0.0820  0.3109  0.0315
   42MOL   C78340225   4.361   6.698   0.383 -0.2255  0.5304 -0.8487
   42MOL   C78440226   4.377   6.819   0.478  0.0746  0.2337  0.0157
   42MOL   C78540227   4.290   6.940   0.436 -0.9827  0.2276 -0.3475
   42MOL   C78640228   4.317   7.064   0.525 -0.0706  0.4823 -0.1896
   42MOL   C78740229   4.252   7.181   0.467  0.9602 -0.4787 -0.3770
   42MOL   C78840230   4.288   7.303   0.561  0.0941  0.1255  0.8108
   42MOL   C78940231   4.218   7.431   0.510 -0.6203 -0.2338 -0.0322
   42MOL   C79040232   4.229   7.547   0.608  0.7744 -0.0085 -0.1059
   42MOL   O79140233   4.180   7.536   0.720 -0.2220  0.5724  0.1960
   42MOL   H79240234   4.338   6.026   0.655  1.2338 -0.4064 -0.6457
   42MOL   H79340235   4.503   6.272   0.598 -0.0512  0.0140  0.3311
   42MOL   H79440236   4.559   6.125   0.655  0.8625 -1.6702 -2.2092
   42MOL   H79540237   4.709   5.998   0.531  0.2668  0.4136 -0.1611
   42MOL   H79640238   4.762   5.895   0.317  0.1747  0.8540 -3.3361
   42MOL   H79740239   4.613   5.926   0.117  0.2798 -2.5645  1.6157
   42MOL   H79840240   4.418   6.054   0.137 -0.2266 -0.4140  0.8478
   42MOL   H79940241   4.244   6.164   0.352 -1.0981  0.4077 -2.3419
   42MOL   H80040242   4.325   6.249   0.216  2.0480 -2.2956 -0.4704
   42MOL   H80140243   4.322   6.347   0.487 -1.9768  1.6355 -0.7479
   42MOL   H80240244   4.531   6.587   0.463  0.2855 -1.4684  0.1472
   42MOL   H80340245   4.373   6.541   0.526 -1.7655 -2.2692 -1.9355
   42MOL   H80440246   4.254   6.685   0.363  0.3198 -2.2969 -2.2064
   42MOL   H80540247   4.387   6.727   0.281 -0.1333 -0.2734 -1.0595
   42MOL   H80640248   4.483   6.842   0.488  0.3049 -0.6915 -0.1823
   42MOL   H80740249   4.353   6.784   0.579  1.7181  1.0846  0.7145
   42MOL   H80840250   4.330   6.973   0.340  0.2017 -1.4393 -0.4552
   42MOL   H80940251   4.184   6.916   0.426 -0.5730 -1.8174 -0.0323
   42MOL   H81040252   4.288   7.040   0.627  0.2837 -0.2067 -0.2501
   42MOL   H81140253   4.426   7.064   0.525 -0.0015 -3.7585 -0.2349
   42MOL   H81240254   4.143   7.178   0.471  0.8968  2.2744  1.6612
   42MOL   H81340255   4.282   7.186   0.362  0.0353  2.9219 -0.5410
   42MOL   H81440256   4.394   7.325   0.546 -0.3608  1.2292 -1.0162
   42MOL   H81540257   4.266   7.291   0.667 -0.6057 -0.8687  0.5572
   42MOL   H81640258   4.111   7.420   0.495 -0.8993  1.8112  0.2089
   42MOL   H81740259   4.255   7.471   0.416  0.4667 -1.7665 -0.2676
   42MOL   N81840260   4.291   7.656   0.574  0.2219 -0.2055  0.0835
   42MOL   C81940261   4.278   7.785   0.640  0.0789 -1.0189 -0.4204
   42MOL   C82040262   4.216   0.099   0.552 -0.4131 -0.0178 -0.2109
   42MOL   C82140263   4.170   0.065   0.423  0.2891  0.3141 -0.0303
   42MOL   C82240264   4.117   0.162   0.337  0.3459 -0.0655 -0.0927
   42MOL   C82340265   4.101   0.300   0.381 -0.2435 -0.1241  0.6666
   42MOL   C82440266   4.144   0.330   0.511 -0.3956  0.5781 -0.2795
   42MOL   C82540267   4.201   0.233   0.596 -0.6149  0.0012 -0.4345
   42MOL   C82640268   4.235   0.273   0.736 -0.2556 -0.1926 -0.0385
   42MOL   N82740269   4.377   0.289   0.761 -0.0455 -0.1054  0.0428
   42MOL   C82840270   4.453   0.396   0.737 -0.2371  0.3937 -0.3089
   42MOL   O82940271   4.420   0.475   0.652 -0.8089  0.3318  0.5537
   42MOL   C83040272   4.571   0.411   0.826 -0.7848  0.0495 -0.4865
   42MOL   C83140273   4.659   0.535   0.795 -0.0812 -0.2645 -0.6897
   42MOL   C83240274   4.621   0.670   0.875  0.0036  0.9296  0.4264
   42MOL   C83340275   4.711   0.791   0.832  0.0552  0.6803 -0.7331
   42MOL   C83440276   4.665   0.915   0.899 -0.4143  0.4115  0.6643
   42MOL   C83540277   4.751   1.038   0.860  0.2085 -0.2185  0.2037
   42MOL   C83640278   4.701   1.160   0.934 -0.2979  0.0539 -0.2649
   42MOL   C83740279   4.787   1.289   0.903  0.5049  0.9384  0.4686
   42MOL   C83840280   4.870   1.345   1.016  0.3244 -0.1566 -0.0435
   42MOL   O83940281   4.921   1.274   1.108  0.0082  0.4481 -0.2580
   42MOL   H84040282   4.315   7.660   0.475 -1.0262 -1.4169 -0.2745
   42MOL   H84140283   4.232   7.773   0.738  3.0657 -1.8837  0.9245
   42MOL   H84240284   4.382   0.024   0.656 -0.4982  1.5783 -1.1496
   42MOL   H84340285   4.166   7.754   0.387  1.3827  0.5629 -0.8598
   42MOL   H84440286   4.089   0.124   0.240 -0.8427  1.7803 -0.4998
   42MOL   H84540287   4.063   0.376   0.315 -1.1674  1.5048  3.0259
   42MOL   H84640288   4.139   0.435   0.536  0.1861 -0.1187  3.0573
   42MOL   H84740289   4.212   0.190   0.804 -1.2455 -0.4381 -0.6702
   42MOL   H84840290   4.176   0.361   0.764  0.9810  0.2975  1.0760
   42MOL   H84940291   4.411   0.225   0.832  0.5679 -0.4035 -0.5113
   42MOL   H85040292   4.629   0.320   0.811  0.6782  0.6420  1.2874
   42MOL   H85140293   4.537   0.414   0.930 -0.9919  0.5070 -0.5644
   42MOL   H85240294   4.656   0.567   0.691  2.7420  3.6985  0.3055
   42MOL   H85340295   4.763   0.516   0.823  0.8010  0.8784 -3.0559
   42MOL   H85440296   4.646   0.656   0.980 -0.8614 -1.2339  0.3568
   42MOL   H85540297   4.515   0.687   0.855 -0.2567 -0.5444  0.5112
   42MOL   H85640298   4.808   0.764   0.875  0.4006  0.1532 -1.8435
   42MOL   H85740299   4.716   0.800   0.724 -1.2332 -1.8249 -1.0200
   42MOL   H85840300   4.564   0.930   0.862 -0.0331  0.6715 -0.3088
   42MOL   H85940301   4.653   0.910   1.007  1.3661 -0.4661  0.8422
   42MOL   H86040302   4.739   1.056   0.753 -0.7837 -0.0110  0.3458
   42MOL   H86140303   4.856   1.015   0.877  0.4148  0.3030 -0.3829
   42MOL   H86240304   4.699   1.140   1.042 -0.9432 -0.4848 -0.3699
   42MOL   H86340305   4.598   1.187   0.910 -0.0520  0.7220 -0.5706
   42MOL   H86440306   4.860   1.265   0.826 -2.0039 -1.8916 -1.1281
   42MOL   H86540307   4.724   1.371   0.868 -1.1973 -0.2750  0.6850
   42MOL   N86640308   4.897   1.477   1.026  0.0749  0.6095 -0.1824
   42MOL   C86740309   4.979   1.528   1.133  0.4849 -0.5659 -0.4902
   42MOL   C86840310   4.983   1.680   1.145 -0.6820  0.9498 -0.0269
   42MOL   C86940311   4.879   1.752   1.080  0.1323 -0.4399  0.3947
   42MOL   C87040312   4.879   1.891   1.084 -0.1796  0.6632 -0.1031
   42MOL   C87140313   4.980   1.958   1.160  0.1781  0.1425  0.3107
   42MOL   C87240314   5.098   1.888   1.200 -0.2904  0.1708  0.1308
   42MOL   C87340315   5.093   1.745   1.202  0.3714  0.3218  0.3550
   42MOL   C87440316   5.227   1.677   1.233 -0.2803  0.0910 -0.8147
   42MOL   N87540317   5.334   1.708   1.132  0.1706  0.2806 -0.2889
   42MOL   C87640318   5.452   1.653   1.129 -0.7559  0.1036  0.2520
   42MOL   O87740319   5.475   1.550   1.195 -0.2452 -0.3626  0.1542
   42MOL   C87840320   5.558   1.727   1.040 -0.4993  0.6115 -0.5443
   42MOL   C87940321   5.683   1.641   1.016 -0.3315  0.1813 -0.4098
   42MOL   C88040322   5.812   1.716   0.991  0.2164  1.1541 -0.3064
   42MOL   C88140323   5.809   1.791   0.858 -0.8511 -0.3514  0.5540
   42MOL   C88240324   5.924   1.888   0.831 -0.3725 -0.0380  0.3566
   42MOL   C88340325   5.902   1.968   0.705  0.2638 -1.3036 -0.4099
   42MOL   C88440326   6.036   2.031   0.661  0.0356 -0.1567 -0.3671
   42MOL   C88540327   6.023   2.125   0.537  0.0692  0.2560  0.2000
   42MOL   C88640328   6.008   2.042   0.406 -0.0136  0.0506  0.4332
   42MOL   O88740329   5.966   1.925   0.413 -1.0442 -0.1230 -0.7243
   42MOL   H88840330   4.875   1.527   0.940  1.9072 -1.8882 -2.2001
   42MOL   H88940331   4.944   1.492   1.230 -1.5919  2.1274 -0.1719
   42MOL   H89040332   5.076   1.482   1.118  0.9710  0.5337 -0.7764
   42MOL   H89140333   4.806   1.700   1.020  0.4254 -1.3404  0.8120
   42MOL   H89240334   4.804   1.943   1.027  1.5057  1.6973 -1.4242
   42MOL   H89340335   4.979   2.064   1.176 -0.3315  0.0118  1.1864
   42MOL   H89440336   5.192   1.925   1.239  0.0929 -0.7301  0.0696
   42MOL   H89540337   5.226   1.569   1.251 -2.5406  0.3375  0.8057
   42MOL   H89640338   5.266   1.716   1.327  0.9867 -0.0734 -1.2701
   42MOL   H89740339   5.330   1.790   1.073  0.3572 -0.8556 -1.9021
   42MOL   H89840340   5.576   1.813   1.104 -0.5231  0.1749  0.0472
   42MOL   H89940341   5.528   1.761   0.940 -1.0589  1.3204 -0.1397
   42MOL   H90040342   5.652   1.562   0.948 -0.3109  0.8419 -1.1876
   42MOL   H90140343   5.712   1.582   1.103 -0.2800  0.3860 -0.2901
   42MOL   H90240344   5.824   1.787   1.072  0.3015  0.6327  0.1444
   42MOL   H90340345   5.896   1.645   0.989  1.1112  2.1600  0.9377
   42MOL   H90440346   5.807   1.733   0.765  0.9306  0.9387 -0.3191
   42MOL   H90540347   5.713   1.843   0.852 -0.1890  0.7049 -1.8051
   42MOL   H90640348   5.942   1.954   0.915  1.5266  0.7162 -0.6077
   42MOL   H90740349   6.007   1.818   0.818  0.1151  0.3131  1.5655
   42MOL   H90840350   5.826   2.044   0.723  0.5835 -1.8035  3.6635
   42MOL   H90940351   5.856   1.900   0.633 -0.1723  0.6043 -1.9766
   42MOL   H91040352   6.078   2.083   0.747 -0.2208  1.5961 -1.2712
   42MOL   H91140353   6.110   1.953   0.645  0.4463  0.0509  0.5044
   42MOL   H91240354   5.940   2.194   0.551 -0.5923 -0.4864 -0.0281
   42MOL   H91340355   6.114   2.184   0.529  0.2346 -0.2452 -1.7176
   42MOL   N91440356   6.037   2.101   0.289 -1.1404 -0.3006  0.5763
   42MOL   C91540357   5.995   2.044   0.154 -0.4041 -0.2475 -0.6858
   42MOL   C91640358   6.080   2.070   0.034  0.0563  0.5778  0.3584
   42MOL   C91740359   6.204   2.140   0.050  0.1740 -0.2511  0.1636
   42MOL   C91840360   6.285   2.166   7.730  0.3678 -0.1205 -0.0495
   42MOL   C91940361   6.238   2.123   7.598 -0.1583 -0.5901 -0.0910
   42MOL   C92040362   6.120   2.048   7.582 -0.1387  0.1355 -0.3427
   42MOL   C92140363   6.044   2.019   7.696 -0.0888  0.1807 -0.2057
   42MOL   C92240364   5.931   1.918   7.676 -0.2086 -0.2083 -0.4194
   42MOL   N92340365   5.801   1.969   7.652 -0.0578 -0.0378  0.5404
   42MOL   C92440366   5.699   1.881   7.646 -0.0546 -1.0445 -0.8515
   42MOL   O92540367   5.714   1.757   7.646 -0.8835 -0.0169 -0.0282
   42MOL   C92640368   5.555   1.926   7.630 -0.1625 -0.0580 -0.1156
   42MOL   C92740369   5.490   1.866   7.500  0.4666 -0.1459  0.6078
   42MOL   C92840370   5.358   1.931   7.461 -0.0315 -0.0396 -0.6102
   42MOL   C92940371   5.300   1.837   7.350  0.7404 -0.2710  0.2049
   42MOL   C93040372   5.179   1.904   7.281  0.2173  0.3542 -1.0458
   42MOL   C93140373   5.098   1.807   7.195 -0.9264 -0.2172  0.1164
   42MOL   C93240374   5.178   1.743   7.073 -0.3331 -0.4958  0.1574
   42MOL   C93340375   5.196   1.591   7.073 -0.2965  0.3895 -0.0976
   42MOL   C93440376   5.069   1.513   7.085 -0.7412  0.6448  0.2568
   42MOL   O93540377   5.039   1.419   7.007  0.0730  0.1310 -0.5289
   42MOL   H93640378   6.082   2.191   0.292  0.3022 -0.8704 -2.1247
   42MOL   H93740379   5.981   1.937   0.166 -0.3737 -0.1589  0.1995
   42MOL   H93840380   5.902   2.097   0.132 -1.5377 -1.2351  1.5579
   42MOL   H93940381   6.241   2.185   0.141  0.4856 -0.6760  0.2454
   42MOL   H94040382   6.376   2.225   7.737  0.7045 -0.5700 -0.6143
   42MOL   H94140383   6.306   2.144   7.517  1.2131 -1.0134  0.9135
   42MOL   H94240384   6.081   2.013   7.488 -0.1746 -0.0594 -0.2551
   42MOL   H94340385   5.930   1.858   7.767 -1.1401 -0.8118 -0.8195
   42MOL   H94440386   5.960   1.850   7.596  0.5534 -2.3079  1.5720
   42MOL   H94540387   5.784   2.069   7.661  0.6438  0.0669  0.7144
   42MOL   H94640388   5.540   2.034   7.630 -2.7462 -0.3750 -1.3606
   42MOL   H94740389   5.485   1.899   7.709 -1.0570  2.0736 -0.1547
   42MOL   H94840390   5.484   1.759   7.521  0.4747  0.5852  4.7433
   42MOL   H94940391   5.568   1.866   7.424 -0.0082 -1.5613  0.1146
   42MOL   H95040392   5.302   1.951   7.551 -1.2049 -1.8781 -0.9126
   42MOL   H95140393   5.374   2.024   7.407 -1.7094  1.2963  1.1502
   42MOL   H95240394   5.381   1.828   7.278  2.2241  2.0851  1.5246
   42MOL   H95340395   5.270   1.739   7.389  1.4962 -0.4450  0.3494
   42MOL   H95440396   5.227   1.980   7.220 -1.6210  0.8832 -1.8640
   42MOL   H95540397   5.114   1.950   7.356  1.4667 -2.9593  2.2446
   42MOL   H95640398   5.058   1.735   7.265 -0.0744 -2.3575 -1.5315
   42MOL   H95740399   5.028   1.877   7.148  1.4327  1.2762 -1.2723
   42MOL   H95840400   5.270   1.798   7.053 -1.5902  1.7938  0.5479
   42MOL   H95940401   5.138   1.761   6.974  0.7383 -2.7270 -0.7229
   42MOL   H96040402   5.263   1.585   7.159 -0.9327  1.2105  0.4634
   42MOL   H96140403   5.242   1.571   6.976  0.0757  0.3862  0.0777
   42MOL   H96240404   5.003   1.547   7.165 -2.1935  0.0645 -0.6650
   43MOL     N140405   0.897   6.173   6.755  0.0671  0.4830  0.2015
   43MOL     C240406   0.795   6.098   6.681  0.5512  0.5173 -0.8650
   43MOL     C340407   0.789   6.125   6.531  0.3616 -0.0649  0.5618
   43MOL     C440408   0.700   6.222   6.482  0.2475 -0.0141  0.0631
   43MOL     C540409   0.672   6.249   6.346  0.3590 -0.4174 -0.0058
   43MOL     C640410   0.747   6.177   6.252 -0.2008  0.6675 -0.1414
   43MOL     C740411   0.838   6.079   6.295 -0.3082  0.0245 -0.1922
   43MOL     C840412   0.857   6.048   6.432  0.0317  0.3636 -0.1116
   43MOL     C940413   0.940   5.922   6.465  0.2119  0.2004  0.0858
   43MOL    N1040414   1.039   5.945   6.570  0.5885  0.0718 -0.0774
   43MOL    C1140415   1.137   5.862   6.610  0.1112 -0.2749 -0.3316
   43MOL    O1240416   1.168   5.757   6.553 -0.9287 -0.2839 -0.5924
   43MOL    C1340417   1.202   5.895   6.745  0.1168 -0.6335 -0.3876
   43MOL    C1440418   1.349   5.856   6.757 -0.4812  0.5031  0.4024
   43MOL    C1540419   1.379   5.709   6.795  0.1499  0.2524  0.3460
   43MOL    C1640420   1.368   5.663   6.942  0.0870  0.1872 -0.0257
   43MOL    C1740421   1.256   5.566   6.959 -0.0084 -0.4256 -0.0930
   43MOL    C1840422   1.243   5.505   7.100  0.0794  0.8401  0.0610
   43MOL    C1940423   1.361   5.418   7.142  0.4934  0.0200  0.4711
   43MOL    C2040424   1.341   5.339   7.269  0.5499  1.0536 -0.3398
   43MOL    C2140425   1.252   5.209   7.247 -0.0816 -0.0348  0.0056
   43MOL    O2240426   1.301   5.107   7.196 -0.7818  0.3797  0.3090
   43MOL    H2340427   0.843   6.239   6.809 -0.1625  0.4498  0.0169
   43MOL    H2440428   0.815   5.992   6.694 -1.3002 -0.0866 -2.6062
   43MOL    H2540429   0.702   6.129   6.729 -0.0275  0.7187 -2.1007
   43MOL    H2640430   0.649   6.282   6.557  1.2378 -0.3507  1.0185
   43MOL    H2740431   0.601   6.324   6.314 -1.3533 -2.1201 -0.2752
   43MOL    H2840432   0.739   6.189   6.145 -1.4350  1.3473  0.0117
   43MOL    H2940433   0.895   6.030   6.218  1.2831 -0.3839  1.2059
   43MOL    H3040434   0.998   5.898   6.375 -1.2715 -1.5424 -0.4282
   43MOL    H3140435   0.883   5.832   6.489  0.6421  0.1157  0.7990
   43MOL    H3240436   1.018   6.024   6.629  0.7226  0.6605 -0.8143
   43MOL    H3340437   1.140   5.864   6.829 -0.3320 -0.6908 -0.7389
   43MOL    H3440438   1.198   6.003   6.756  0.5757 -0.5258 -1.2014
   43MOL    H3540439   1.402   5.925   6.822  0.9397  0.8963 -1.1434
   43MOL    H3640440   1.397   5.877   6.662  0.3187 -1.5481  0.3131
   43MOL    H3740441   1.324   5.636   6.736  0.7029  0.9664 -1.0595
   43MOL    H3840442   1.479   5.684   6.759 -1.1547 -3.5654 -0.8391
   43MOL    H3940443   1.463   5.615   6.965 -0.9160 -1.2990  1.1022
   43MOL    H4040444   1.355   5.749   7.008  1.8549 -0.1208  0.7389
   43MOL    H4140445   1.166   5.624   6.940  2.0449  2.4186 -1.4383
   43MOL    H4240446   1.275   5.491   6.882 -0.4390  0.7799 -1.3952
   43MOL    H4340447   1.150   5.451   7.113 -0.2554  1.4328  0.1722
   43MOL    H4440448   1.238   5.593   7.165  0.5703  0.4646  0.6133
   43MOL    H4540449   1.372   5.358   7.051  0.0131 -1.3760  1.3184
   43MOL    H4640450   1.454   5.472   7.157  0.6301 -0.4271  1.2758
   43MOL    H4740451   1.292   5.399   7.346  0.8988  0.6950  0.1655
   43MOL    H4840452   1.435   5.309   7.315 -0.3546 -1.2276  0.0901
   43MOL    H4940453   0.932   6.107   6.822  1.7874  0.5672 -0.5879
   43MOL    N5040454   1.119   5.218   7.274  0.1368  0.2776  0.3960
   43MOL    C5140455   1.015   5.123   7.233  0.5582  0.3264 -0.1325
   43MOL    C5240456   0.904   5.143   7.332  0.7203 -0.2070  0.1915
   43MOL    C5340457   0.885   5.029   7.419  0.4380 -0.0158  0.5775
   43MOL    C5440458   0.775   5.040   7.510 -0.3128  0.0516 -0.2077
   43MOL    C5540459   0.701   5.155   7.527 -0.1042 -0.4287  0.0874
   43MOL    C5640460   0.720   5.260   7.433  0.1652 -0.3724 -0.1105
   43MOL    C5740461   0.818   5.255   7.336  0.1124  0.3210 -0.9966
   43MOL    C5840462   0.832   5.379   7.250 -0.2343 -0.2409  0.3644
   43MOL    N5940463   0.859   5.506   7.320 -0.3098 -0.1386  0.3860
   43MOL    C6040464   0.966   5.540   7.391 -0.3563 -0.4374 -0.0321
   43MOL    O6140465   1.044   5.455   7.431 -0.0137 -0.3478  0.8137
   43MOL    C6240466   0.982   5.685   7.418 -0.3087  0.3451 -0.1713
   43MOL    C6340467   1.116   5.739   7.471  0.1947 -0.1489 -0.0879
   43MOL    C6440468   1.161   5.692   7.613  0.0638 -0.5701  0.1675
   43MOL    C6540469   1.314   5.727   7.636 -0.1224 -0.6240  0.2165
   43MOL    C6640470   1.400   5.615   7.575 -0.3966  0.3879  0.9905
   43MOL    C6740471   1.548   5.636   7.581 -0.0733 -0.3436 -0.8176
   43MOL    C6840472   1.632   5.515   7.532 -0.4686 -0.2085 -0.0344
   43MOL    C6940473   1.783   5.540   7.552 -0.3284 -0.8410 -0.2846
   43MOL    C7040474   1.865   5.426   7.517  0.1679 -0.4277  1.0290
   43MOL    O7140475   1.825   5.312   7.555 -0.3783  0.1122 -0.2551
   43MOL    H7240476   1.091   5.299   7.328 -1.5552 -0.1500  0.1966
   43MOL    H7340477   1.049   5.020   7.238 -2.5300 -0.8319 -1.9281
   43MOL    H7440478   0.978   5.134   7.131 -1.3139  2.9461  0.7759
   43MOL    H7540479   0.945   4.940   7.409 -0.4767 -0.9064  2.6914
   43MOL    H7640480   0.762   4.958   7.579  1.3917  0.2832  0.4247
   43MOL    H7740481   0.612   5.163   7.588  0.4238 -0.2855  0.8432
   43MOL    H7840482   0.658   5.349   7.430  0.4986 -0.1284  0.1948
   43MOL    H7940483   0.741   5.383   7.190 -1.7640  1.6183  2.6982
   43MOL    H8040484   0.908   5.355   7.176  2.4159  0.2672  2.8119
   43MOL    H8140485   0.802   5.586   7.294 -1.8963 -1.7543 -1.2315
   43MOL    H8240486   0.901   5.711   7.486 -1.0245  0.2500 -0.9868
   43MOL    H8340487   0.955   5.747   7.332  1.3189  1.5607  0.1568
   43MOL    H8440488   1.112   5.848   7.477 -0.6021 -0.2591  1.6901
   43MOL    H8540489   1.193   5.717   7.398  1.8393 -0.0418  1.5857
   43MOL    H8640490   1.099   5.749   7.683  0.3936 -1.2739  1.0436
   43MOL    H8740491   1.156   5.584   7.626  0.8110 -0.5792  0.3617
   43MOL    H8840492   1.336   5.823   7.589 -2.1073  0.2841  1.1047
   43MOL    H8940493   1.341   5.750   7.739  1.3230  1.7840 -0.6425
   43MOL    H9040494   1.377   5.524   7.631  1.0276 -1.3937 -1.1937
   43MOL    H9140495   1.374   5.590   7.473 -1.2536 -2.0457  1.7708
   43MOL    H9240496   1.564   5.659   7.686  0.4467 -0.2585 -0.9132
   43MOL    H9340497   1.570   5.720   7.516 -1.5241  0.5810 -0.1262
   43MOL    H9440498   1.616   5.492   7.426 -2.0651  1.4353 -0.1879
   43MOL    H9540499   1.606   5.425   7.587  3.7472 -1.9661 -0.7981
   43MOL    H9640500   1.797   5.553   7.659 -1.1447 -1.7206 -0.0681
   43MOL    H9740501   1.822   5.629   7.503  1.1477  0.4200  3.0641
   43MOL    N9840502   1.974   5.447   7.450  0.2385 -0.7336  0.1652
   43MOL    C9940503   2.072   5.348   7.410 -0.0178  0.8730  0.5223
   43MOL   C10040504   2.202   5.415   7.375 -1.1771  0.4526  0.3801
   43MOL   C10140505   2.249   5.420   7.235  0.1760 -0.3726 -0.6626
   43MOL   C10240506   2.376   5.470   7.205 -0.0902 -0.6967 -0.1901
   43MOL   C10340507   2.468   5.489   7.304  0.3808 -0.6585 -0.7632
   43MOL   C10440508   2.430   5.485   7.435  0.0084 -0.3142 -0.2753
   43MOL   C10540509   2.296   5.450   7.470 -0.2080 -0.1254 -0.6718
   43MOL   C10640510   2.253   5.458   7.610 -0.8686  0.8911  0.2229
   43MOL   N10740511   2.323   5.363   7.703 -0.8785  0.3073  0.5560
   43MOL   C10840512   2.272   5.262   7.766  0.4565  0.5244  0.1760
   43MOL   O10940513   2.155   5.226   7.749 -0.1150 -0.2079  0.0366
   43MOL   C11040514   2.362   5.201   0.086  0.3422  0.0561 -0.4952
   43MOL   C11140515   2.283   5.085   0.160 -0.4710  0.6568 -0.1532
   43MOL   C11240516   2.207   5.130   0.285  0.6116  0.9134 -0.6723
   43MOL   C11340517   2.133   5.008   0.345  0.7246  0.2469  0.0162
   43MOL   C11440518   2.033   4.934   0.257 -0.0048  0.3623  0.3366
   43MOL   C11540519   1.921   5.021   0.206  0.4890  0.2500  0.2823
   43MOL   C11640520   1.826   4.951   0.108 -0.2809 -0.0013 -0.1076
   43MOL   C11740521   1.748   5.047   0.010 -0.4699  0.1273 -0.1876
   43MOL   C11840522   1.676   5.162   0.084  0.0505 -0.0458 -0.5381
   43MOL   O11940523   1.596   5.134   0.177  0.6219  0.2378 -0.1629
   43MOL   H12040524   2.005   5.542   7.434  1.0910 -1.2359 -1.2385
   43MOL   H12140525   2.091   5.280   7.492  0.5923 -1.2087 -1.3085
   43MOL   H12240526   2.034   5.297   7.321 -1.1726  0.1677  1.4129
   43MOL   H12340527   2.174   5.403   7.159 -0.6369  2.0698 -0.4451
   43MOL   H12440528   2.408   5.483   7.103 -2.2667  0.2424 -0.7754
   43MOL   H12540529   2.568   5.529   7.293  1.2990 -1.4929  3.5612
   43MOL   H12640530   2.511   5.516   7.499  1.1253 -1.8242 -0.9225
   43MOL   H12740531   2.146   5.440   7.623 -0.7933 -0.0749 -0.4599
   43MOL   H12840532   2.271   5.555   7.655  3.2542 -1.1313  3.3404
   43MOL   H12940533   2.422   5.380   7.717  0.0054 -2.0596 -2.2923
   43MOL   H13040534   2.397   5.272   0.161  1.5950 -0.0551 -0.9573
   43MOL   H13140535   2.445   5.155   0.033  0.1722 -0.1844 -0.5510
   43MOL   H13240536   2.359   5.009   0.177 -0.9994 -0.2877 -1.8411
   43MOL   H13340537   2.218   5.030   0.092  0.1069  1.2388 -1.1813
   43MOL   H13440538   2.280   5.169   0.357  0.5965 -1.4965  0.7297
   43MOL   H13540539   2.140   5.212   0.260 -2.2792 -1.3129 -0.4849
   43MOL   H13640540   2.208   4.932   0.369 -0.0668 -0.3652  0.5430
   43MOL   H13740541   2.078   5.019   0.438  1.1069  0.3811  0.2257
   43MOL   H13840542   2.088   4.886   0.176 -1.5472 -2.4352  0.8820
   43MOL   H13940543   1.992   4.856   0.320  0.2491  0.0509  0.1156
   43MOL   H14040544   1.973   5.087   0.137  0.0485 -0.5549 -0.8376
   43MOL   H14140545   1.876   5.087   0.280  0.5882  0.6079  0.0242
   43MOL   H14240546   1.878   4.876   0.050  0.0573 -2.1185  2.8700
   43MOL   H14340547   1.755   4.891   0.164 -1.2564  1.9968  0.8746
   43MOL   H14440548   1.673   4.996   7.741 -0.2805 -2.2571  1.5458
   43MOL   H14540549   1.810   5.091   7.722  0.3391 -0.2915  0.2085
   43MOL   N14640550   1.692   5.284   0.032  0.4187  0.3211 -0.8824
   43MOL   C14740551   1.623   5.405   0.088  0.1464 -0.2667  0.1542
   43MOL   C14840552   1.685   5.482   0.200  0.1685  0.2923 -0.6607
   43MOL   C14940553   1.812   5.449   0.250  0.0140 -0.1744 -0.1452
   43MOL   C15040554   1.875   5.521   0.353  0.0691 -0.3742 -0.3535
   43MOL   C15140555   1.811   5.635   0.408  0.2727 -0.0972  0.4058
   43MOL   C15240556   1.683   5.668   0.356 -0.3079  0.2370 -0.2238
   43MOL   C15340557   1.612   5.591   0.257 -0.5574  0.2723 -0.2341
   43MOL   C15440558   1.476   5.644   0.206 -0.3268  0.5169 -0.1351
   43MOL   N15540559   1.401   5.674   0.321  0.3350 -0.4842  0.6032
   43MOL   C15640560   1.285   5.747   0.314  0.6651  1.0705 -0.1576
   43MOL   O15740561   1.244   5.802   0.213  0.4017  0.5248  0.0383
   43MOL   C15840562   1.213   5.767   0.451 -0.3432  0.2015  0.3822
   43MOL   C15940563   1.070   5.712   0.448 -0.3893  0.6227 -0.2908
   43MOL   C16040564   1.017   5.702   0.593  0.0070  0.1528 -0.4966
   43MOL   C16140565   0.886   5.627   0.602  0.4793  0.2667  0.4576
   43MOL   C16240566   0.839   5.582   0.743 -0.7181  0.0475  0.6643
   43MOL   C16340567   0.702   5.517   0.733 -1.0319 -0.0820 -0.3513
   43MOL   C16440568   0.660   5.453   0.873 -0.8982  0.0654  0.4646
   43MOL   C16540569   0.732   5.325   0.905 -0.4157 -0.6913  0.2937
   43MOL   C16640570   0.663   5.260   1.026  0.8728 -0.3654 -0.5696
   43MOL   O16740571   0.660   5.325   1.133 -0.6128 -0.7090 -0.2631
   43MOL   H16840572   1.761   5.307   7.752  0.3189  0.0295 -1.0753
   43MOL   H16940573   1.525   5.370   0.123  0.0952  1.1643  1.4906
   43MOL   H17040574   1.604   5.482   0.013  1.3510 -1.7284 -1.6849
   43MOL   H17140575   1.861   5.366   0.203  0.2477 -1.4360  2.2219
   43MOL   H17240576   1.977   5.493   0.375 -0.2413 -1.4580 -0.2583
   43MOL   H17340577   1.844   5.698   0.490 -0.4138  1.1374 -0.2658
   43MOL   H17440578   1.636   5.748   0.411  0.0893  0.1612  0.2279
   43MOL   H17540579   1.434   5.572   0.136 -0.0889  0.6467 -0.4123
   43MOL   H17640580   1.495   5.739   0.155  2.9556  0.7223  1.3382
   43MOL   H17740581   1.420   5.621   0.404 -0.7285 -0.3259  0.9636
   43MOL   H17840582   1.209   5.872   0.477  1.9673  0.3028  0.4262
   43MOL   H17940583   1.279   5.730   0.529 -1.3591 -0.7789  0.7845
   43MOL   H18040584   1.080   5.609   0.413  3.7089  0.0574  2.2378
   43MOL   H18140585   1.004   5.777   0.391 -0.3050 -1.0661 -2.3800
   43MOL   H18240586   1.096   5.658   0.653  1.3849 -1.0238 -3.0982
   43MOL   H18340587   1.003   5.801   0.636  0.5996  0.9687 -2.1502
   43MOL   H18440588   0.812   5.693   0.556  0.4361  0.9716  1.5328
   43MOL   H18540589   0.886   5.539   0.537  0.9415  0.4105  0.2652
   43MOL   H18640590   0.914   5.514   0.784 -0.7910  0.1939  1.0389
   43MOL   H18740591   0.825   5.665   0.812 -0.5415  0.1057  0.6298
   43MOL   H18840592   0.715   5.432   0.666 -1.4447 -0.5466  0.1471
   43MOL   H18940593   0.627   5.582   0.689  0.4409  1.2314 -0.9653
   43MOL   H19040594   0.675   5.516   0.961 -2.2264  3.2845 -1.5217
   43MOL   H19140595   0.552   5.454   0.887 -0.9896  1.1369 -0.3070
   43MOL   H19240596   0.835   5.347   0.936 -1.2871  1.8357  1.5742
   43MOL   H19340597   0.741   5.252   0.825  0.3077 -1.5476  1.1449
   43MOL   N19440598   0.604   5.141   1.008 -0.6449 -0.0820 -0.3302
   43MOL   C19540599   0.515   5.079   1.101  0.0937 -0.0447 -0.2732
   43MOL   C19640600   0.418   4.981   1.036 -0.1728  0.3529  0.1375
   43MOL   C19740601   0.330   5.039   0.942 -0.0462  0.2086  0.6379
   43MOL   C19840602   0.250   4.950   0.863  1.3245 -0.2433 -0.4335
   43MOL   C19940603   0.246   4.807   0.886 -0.1268 -0.2572  0.1962
   43MOL   C20040604   0.322   4.758   0.994  0.4971 -0.1832  0.0869
   43MOL   C20140605   0.411   4.842   1.064 -0.2825 -0.5174  0.6852
   43MOL   C20240606   0.514   4.786   1.166  0.2325 -0.5670 -0.5833
   43MOL   N20340607   0.455   4.788   1.301 -0.0182 -0.8541  0.1869
   43MOL   C20440608   0.514   4.749   1.416 -0.3994  0.4346  0.4016
   43MOL   O20540609   0.636   4.723   1.426 -0.6181 -0.2297  0.2022
   43MOL   C20640610   0.428   4.736   1.541 -0.5842  0.4355 -0.7283
   43MOL   C20740611   0.442   4.858   1.631  0.1109 -0.0964  0.8632
   43MOL   C20840612   0.367   4.980   1.567 -0.3912  0.4859 -0.2943
   43MOL   C20940613   0.352   5.098   1.663  0.2283 -0.0917  0.2172
   43MOL   C21040614   0.255   5.206   1.608 -0.0060  0.0833 -0.8000
   43MOL   C21140615   0.316   5.271   1.483 -0.1257 -0.0376  0.4702
   43MOL   C21240616   0.238   5.393   1.431  0.1568  0.2417 -0.5954
   43MOL   C21340617   0.280   5.470   1.304  0.1128  0.3618  0.2739
   43MOL   C21440618   0.258   5.622   1.302 -0.2862  0.2568 -0.8062
   43MOL   O21540619   0.261   5.691   1.406 -0.1610  0.4346 -0.0440
   43MOL   H21640620   0.617   5.094   0.920  1.9382  1.5375 -0.8682
   43MOL   H21740621   0.579   5.029   1.174  0.4580  0.4298 -0.2705
   43MOL   H21840622   0.457   5.152   1.156  0.8351  0.1324  0.2760
   43MOL   H21940623   0.314   5.144   0.925  1.2575  0.0547 -1.8363
   43MOL   H22040624   0.196   5.004   0.787 -2.0156 -2.2456  0.4432
   43MOL   H22140625   0.194   4.737   0.823 -0.4803  2.7128 -2.9835
   43MOL   H22240626   0.337   4.651   0.993 -1.8291 -0.5258 -1.4403
   43MOL   H22340627   0.619   4.816   1.170  0.1575 -0.5077  1.2107
   43MOL   H22440628   0.527   4.682   1.136  0.6167 -0.5605 -0.4522
   43MOL   H22540629   0.359   4.819   1.305  0.8984  2.6539 -2.7509
   43MOL   H22640630   0.460   4.648   1.596 -1.2330  1.1285  0.7960
   43MOL   H22740631   0.325   4.706   1.522 -0.8016  0.5067  0.3498
   43MOL   H22840632   0.372   4.836   1.712 -0.0104 -2.6227  0.1183
   43MOL   H22940633   0.544   4.874   1.664  0.4389 -2.2017  0.9399
   43MOL   H23040634   0.431   5.011   1.485 -0.0964 -0.9950 -0.6272
   43MOL   H23140635   0.265   4.968   1.530 -0.6066  1.2572  0.0296
   43MOL   H23240636   0.314   5.062   1.758  1.1016 -0.5442  0.3933
   43MOL   H23340637   0.448   5.144   1.684 -0.6900  2.4531 -0.9192
   43MOL   H23440638   0.152   5.178   1.585  0.4354 -0.5957 -2.0452
   43MOL   H23540639   0.244   5.274   1.692  2.1187 -0.0187 -0.3990
   43MOL   H23640640   0.322   5.199   1.402 -1.3509  0.3137  0.0577
   43MOL   H23740641   0.419   5.305   1.486 -0.9860  2.5127  3.7815
   43MOL   H23840642   0.240   5.460   1.517  0.7206 -0.1549 -0.2934
   43MOL   H23940643   0.138   5.356   1.408  0.6033 -0.5096 -1.3724
   43MOL   H24040644   0.385   5.449   1.285 -0.6580 -2.6760 -0.9001
   43MOL   H24140645   0.232   5.425   1.218 -0.2891  2.0949 -0.4324
   43MOL   N24240646   0.242   5.679   1.183  0.0214  0.4045 -0.3075
   43MOL   C24340647   0.250   5.825   1.152 -0.3384  0.4544 -0.2518
   43MOL   C24440648   0.222   5.850   1.010 -0.1983  0.2306  0.5406
   43MOL   C24540649   0.100   5.914   0.973  0.0863 -1.4065 -0.3883
   43MOL   C24640650   0.065   5.934   0.842 -0.0202  0.0745  0.0346
   43MOL   C24740651   0.161   5.911   0.741 -0.3306 -1.3408  0.7645
   43MOL   C24840652   0.287   5.856   0.773 -0.0983 -0.2804 -0.0507
   43MOL   C24940653   0.315   5.828   0.903 -0.4964 -0.2656 -0.8072
   43MOL   C25040654   0.453   5.770   0.927 -0.2037  0.9585  0.8486
   43MOL   N25140655   0.551   5.873   0.966  0.0126  0.3558  0.0391
   43MOL   C25240656   0.641   5.927   0.884 -0.9288 -0.3854 -0.2811
   43MOL   O25340657   0.651   5.889   0.762  0.3921  0.0542 -0.0637
   43MOL   C25440658   0.735   6.040   0.937 -0.6844 -0.6827 -0.0193
   43MOL   C25540659   0.669   6.161   1.005 -0.4113  0.5737  0.3952
   43MOL   C25640660   0.766   6.229   1.104  0.3525  0.0963 -0.2363
   43MOL   C25740661   0.700   6.351   1.159 -0.1742  0.0520 -0.2506
   43MOL   C25840662   0.800   6.438   1.246 -0.0589 -0.1478 -0.8176
   43MOL   C25940663   0.736   6.577   1.294 -0.3830  0.4679  0.0061
   43MOL   C26040664   0.646   6.548   1.413  0.9063  0.2656 -0.5529
   43MOL   C26140665   0.617   6.671   1.492 -0.4603  1.2149  0.1921
   43MOL   C26240666   0.532   6.783   1.424 -0.3297 -0.3331  0.0354
   43MOL   O26340667   0.440   6.750   1.354  0.4669 -0.1826  0.4105
   43MOL   H26440668   0.222   5.617   1.106  3.1816 -0.8868 -0.1922
   43MOL   H26540669   0.178   5.874   1.217 -0.8061 -1.1534  0.4780
   43MOL   H26640670   0.347   5.867   1.178 -0.1863  0.3983 -0.7222
   43MOL   H26740671   0.031   5.932   1.055  1.1548 -0.6585  0.3622
   43MOL   H26840672   7.759   5.978   0.816  0.8116  2.0590  0.2651
   43MOL   H26940673   0.131   5.923   0.638  0.2590  3.4130  1.0032
   43MOL   H27040674   0.355   5.830   0.693 -1.6561 -3.0947 -0.5301
   43MOL   H27140675   0.485   5.734   0.829 -1.4403  2.5864 -0.1954
   43MOL   H27240676   0.451   5.688   0.998  3.2054  0.0400 -0.0467
   43MOL   H27340677   0.562   5.885   1.065  0.8197 -1.8748  0.2532
   43MOL   H27440678   0.797   6.081   0.857 -1.5063  0.4423 -0.0940
   43MOL   H27540679   0.799   5.988   1.008  0.7759 -4.3552 -3.8329
   43MOL   H27640680   0.571   6.141   1.050 -1.2374  0.1836 -1.5336
   43MOL   H27740681   0.634   6.229   0.928 -2.9363  1.2130  2.0286
   43MOL   H27840682   0.851   6.253   1.041  0.0521 -1.4455 -1.2538
   43MOL   H27940683   0.796   6.159   1.183 -1.5474 -0.9173 -0.3695
   43MOL   H28040684   0.659   6.422   1.087 -0.8811  1.0220  1.0643
   43MOL   H28140685   0.611   6.321   1.215  0.0248 -0.8637 -0.4255
   43MOL   H28240686   0.823   6.374   1.331 -2.9212 -1.5341 -1.0387
   43MOL   H28340687   0.899   6.448   1.202 -0.7218 -1.5902 -2.7158
   43MOL   H28440688   0.680   6.625   1.214  0.3857  3.3742  1.1729
   43MOL   H28540689   0.817   6.647   1.313  1.3164 -1.5279  0.2666
   43MOL   H28640690   0.549   6.522   1.370  0.5277  0.0535  0.4191
   43MOL   H28740691   0.684   6.469   1.477  0.6882 -1.3952 -2.4083
   43MOL   H28840692   0.564   6.643   1.584 -1.4636  1.3519 -0.3321
   43MOL   H28940693   0.713   6.711   1.525 -0.4035 -0.3913  2.0958
   43MOL   N29040694   0.581   6.904   1.427  0.3005  0.6580 -0.0251
   43MOL   C29140695   0.514   7.021   1.369 -0.2650  0.3163 -0.2644
   43MOL   C29240696   0.590   7.069   1.242 -0.2253 -0.3565 -0.4785
   43MOL   C29340697   0.706   7.152   1.259 -0.2295 -0.8642  0.1320
   43MOL   C29440698   0.771   7.202   1.147 -0.0700  0.1898 -0.5344
   43MOL   C29540699   0.722   7.172   1.018  0.1875 -0.5375 -0.0341
   43MOL   C29640700   0.604   7.093   1.000 -0.1938 -0.6001 -0.7135
   43MOL   C29740701   0.531   7.045   1.112 -0.4137  1.0289 -0.8717
   43MOL   C29840702   0.423   6.942   1.088  0.3684 -0.4903  0.2386
   43MOL   N29940703   0.367   6.935   0.953 -0.9324 -0.2523  0.0410
   43MOL   C30040704   0.424   6.858   0.858 -0.0294 -0.1278 -0.7766
   43MOL   O30140705   0.513   6.774   0.879 -0.0527 -0.5032  0.2809
   43MOL   C30240706   0.371   6.876   0.719 -0.1826 -0.2882  0.2946
   43MOL   C30340707   0.466   6.963   0.634  0.3493  0.1922  0.1075
   43MOL   C30440708   0.440   6.946   0.480 -0.8629  0.5185 -0.0273
   43MOL   C30540709   0.574   6.980   0.402 -0.0215 -0.4654  0.3181
   43MOL   C30640710   0.565   6.919   0.262 -0.2620 -0.2468 -0.0004
   43MOL   C30740711   0.459   6.991   0.172 -0.6006  0.3478 -0.1987
   43MOL   C30840712   0.503   7.137   0.144 -0.0030  0.6180  0.0779
   43MOL   C30940713   0.414   7.211   0.037 -0.2530  0.0309 -0.3599
   43MOL   C31040714   0.275   7.258   0.093  0.6516  0.1428 -0.1684
   43MOL   O31140715   0.277   7.331   0.188 -0.7170  0.2980 -0.0995
   43MOL   H31240716   0.655   6.904   1.496 -0.0918 -1.7286  0.4296
   43MOL   H31340717   0.408   7.008   1.347 -0.9626  3.0800  1.1873
   43MOL   H31440718   0.525   7.093   1.451  0.1668  0.0847 -0.1171
   43MOL   H31540719   0.749   7.177   1.355  1.1435  1.4165 -1.0387
   43MOL   H31640720   0.864   7.256   1.162  0.9214 -0.9748 -2.2717
   43MOL   H31740721   0.776   7.216   0.936  0.2633 -0.0926  0.2519
   43MOL   H31840722   0.566   7.074   0.900 -0.2328  2.0139 -1.2271
   43MOL   H31940723   0.338   6.964   1.152  0.4339  2.2319 -0.5380
   43MOL   H32040724   0.449   6.842   1.124 -0.7090 -0.8134  0.1659
   43MOL   H32140725   0.292   6.993   0.920 -0.7504 -0.2177 -0.3185
   43MOL   H32240726   0.340   6.777   0.684 -0.0151  0.3847 -1.7913
   43MOL   H32340727   0.280   6.936   0.716 -0.6734 -1.0151  0.3112
   43MOL   H32440728   0.568   6.933   0.662  0.4536  0.3989 -0.0510
   43MOL   H32540729   0.463   7.069   0.657 -1.9202  0.2597 -0.4602
   43MOL   H32640730   0.358   7.007   0.443 -1.0612 -0.2504 -0.8826
   43MOL   H32740731   0.422   6.839   0.471 -1.7726  0.6187  0.5662
   43MOL   H32840732   0.588   7.088   0.404 -3.3852  0.0298 -0.5396
   43MOL   H32940733   0.658   6.939   0.458  0.8635 -0.3332 -0.9091
   43MOL   H33040734   0.656   6.942   0.206 -0.1591 -1.9585 -0.5566
   43MOL   H33140735   0.542   6.813   0.251 -1.6722  0.1851 -1.3529
   43MOL   H33240736   0.361   6.979   0.220 -1.1544  0.6879 -1.2335
   43MOL   H33340737   0.452   6.949   0.072  0.8883 -2.4200  0.8110
   43MOL   H33440738   0.488   7.194   0.236 -0.4879  1.8221 -0.7333
   43MOL   H33540739   0.606   7.151   0.112  0.5225 -0.5568  1.1981
   43MOL   H33640740   0.457   7.299   7.778 -1.7329  1.5232  0.9377
   43MOL   H33740741   0.387   7.146   7.744 -0.1592  1.2448 -1.3684
   43MOL   N33840742   0.162   7.204   0.042  0.1597 -0.6262 -0.0363
   43MOL   C33940743   0.028   7.248   0.070  0.3337 -0.0982  1.0537
   43MOL   C34040744   7.711   7.138   0.059 -0.5797 -0.2274 -0.1623
   43MOL   C34140745   7.630   7.146   7.735  0.3134  0.4158 -0.4306
   43MOL   C34240746   7.519   7.065   7.721 -0.3528 -0.2610  0.0685
   43MOL   C34340747   7.502   6.959   0.014 -0.0487  0.4241  0.0976
   43MOL   C34440748   7.586   6.940   0.127  0.6280 -0.0756  0.0934
   43MOL   C34540749   7.692   7.036   0.151 -0.3740  0.4810 -0.6749
   43MOL   C34640750   7.780   7.020   0.276 -0.9505  0.6501  0.1774
   43MOL   N34740751   7.733   6.930   0.382  0.1856  0.0371  0.3349
   43MOL   C34840752   0.008   6.865   0.475  0.0278  0.5632 -0.0204
   43MOL   O34940753   0.129   6.876   0.492  0.1555  0.0505 -0.2200
   43MOL   C35040754   7.717   6.766   0.559  0.5464 -1.1371  0.0401
   43MOL   C35140755   7.773   6.744   0.703 -0.0692  0.1165  0.0132
   43MOL   C35240756   7.764   6.868   0.787 -0.9809  0.1584  0.5608
   43MOL   C35340757   0.013   6.832   0.929 -0.2097  0.3225  0.2126
   43MOL   C35440758   7.763   6.933   1.035  0.7932  0.0954 -0.5563
   43MOL   C35540759   0.032   6.898   1.177  0.0563  0.1791 -0.0005
   43MOL   C35640760   7.781   7.010   1.276  0.0116 -0.4340  0.3537
   43MOL   C35740761   0.067   6.995   1.407 -0.3876  0.7003 -0.2224
   43MOL   C35840762   0.036   6.870   1.485  0.3965 -0.0177  0.2604
   43MOL   O35940763   7.714   6.822   1.498 -0.5636 -0.3291 -0.0833
   43MOL   H36040764   0.170   7.110   0.008  0.2697 -0.5536 -0.2125
   43MOL   H36140765   0.019   7.276   0.175  0.9064 -0.1155  1.1132
   43MOL   H36240766   0.008   7.334   0.007  2.0612  0.9629  1.8940
   43MOL   H36340767   7.640   7.224   7.661 -0.2305  1.0857  0.2042
   43MOL   H36440768   7.451   7.080   7.639  4.2160  2.5137 -3.4498
   43MOL   H36540769   7.420   6.896   7.774  0.8143  0.7893 -3.2290
   43MOL   H36640770   7.560   6.862   0.197 -0.0511 -1.0652 -1.2527
   43MOL   H36740771   0.008   7.118   0.323  1.7924  0.4084 -0.2757
   43MOL   H36840772   0.089   6.983   0.248 -0.3134  3.5432 -1.6577
   43MOL   H36940773   7.633   6.923   0.394  0.5057 -2.1490  2.0224
   43MOL   H37040774   7.726   6.667   0.513 -0.0932 -0.3522 -1.8228
   43MOL   H37140775   7.612   6.792   0.566  1.2004  1.0509  2.4103
   43MOL   H37240776   0.091   6.731   0.702  0.1505  1.5490 -3.4751
   43MOL   H37340777   7.712   6.667   0.750 -1.2315  0.1094 -1.4546
   43MOL   H37440778   0.034   6.951   0.750 -0.9977 -0.4047 -0.7671
   43MOL   H37540779   7.667   6.917   0.785 -0.1407  1.8323 -3.5423
   43MOL   H37640780   0.122   6.830   0.927 -0.1041  2.5991  1.1610
   43MOL   H37740781   7.761   6.740   0.970 -0.6763  0.5806  0.3140
   43MOL   H37840782   7.785   7.036   1.007  0.6206  0.5637  0.9795
   43MOL   H37940783   7.655   6.947   1.044  0.5493 -1.5349 -0.7537
   43MOL   H38040784   0.139   6.903   1.152 -0.3120  0.3133 -1.6128
   43MOL   H38140785   0.010   6.797   1.210 -1.4782  0.9847  1.4923
   43MOL   H38240786   0.003   7.114   1.248  1.4258 -0.4291  0.9264
   43MOL   H38340787   7.673   6.995   1.284  0.1138 -2.0576 -0.9766
   43MOL   H38440788   0.031   7.080   1.465  0.3210  1.4964 -0.9408
   43MOL   H38540789   0.174   7.000   1.393 -0.3676  1.1898  0.0921
   43MOL   N38640790   0.139   6.810   1.543 -0.2999  0.0622  0.0671
   43MOL   C38740791   0.138   6.709   1.652  0.2519 -0.6618  0.9804
   43MOL   C38840792   0.250   6.606   1.645 -0.0665 -0.4548 -0.7612
   43MOL   C38940793   0.339   6.601   1.766  0.1400 -0.3374  0.3698
   43MOL   C39040794   0.433   6.500   1.773  0.1402 -0.2821 -0.2066
   43MOL   C39140795   0.441   6.401   1.671 -0.5473  0.2833  0.0698
   43MOL   C39240796   0.367   6.407   1.554  0.0779  0.2406 -0.4942
   43MOL   C39340797   0.269   6.507   1.541 -0.4741  0.2223  0.3621
   43MOL   C39440798   0.179   6.499   1.417  0.4598 -0.6795  0.6622
   43MOL   N39540799   0.242   6.549   1.302 -0.3721  0.0250 -0.9046
   43MOL   C39640800   0.206   6.528   1.173  0.0068  0.7317 -0.0029
   43MOL   O39740801   0.099   6.465   1.150 -0.1805 -0.0472 -0.2040
   43MOL   C39840802   0.291   6.580   1.059  0.5403 -0.3742 -0.5817
   43MOL   C39940803   0.325   6.484   0.946 -0.5977  0.4103  0.0493
   43MOL   C40040804   0.203   6.467   0.843 -0.5198  0.0665  0.2796
   43MOL   C40140805   0.235   6.359   0.745 -0.0070 -0.1112 -0.2124
   43MOL   C40240806   0.155   6.355   0.616  0.1331  1.0534 -0.3605
   43MOL   C40340807   0.172   6.475   0.518  0.1711 -0.2861 -0.2922
   43MOL   C40440808   0.285   6.474   0.418 -0.2273  0.2636 -0.0446
   43MOL   C40540809   0.300   6.589   0.318 -0.0591 -0.2065  0.2131
   43MOL   C40640810   0.206   6.584   0.200 -0.4364  0.8333 -0.4328
   43MOL   O40740811   0.087   6.615   0.214 -0.7826 -0.3005  0.3497
   43MOL   H40840812   0.230   6.823   1.501 -1.1236  0.4622 -1.6332
   43MOL   H40940813   0.152   6.770   1.741 -0.6980  0.9120  0.0753
   43MOL   H41040814   0.048   6.647   1.644  0.1645 -0.3369 -0.9255
   43MOL   H41140815   0.325   6.667   1.851  0.3038 -0.6085  0.6052
   43MOL   H41240816   0.499   6.506   1.858 -0.4030 -0.6922  0.2450
   43MOL   H41340817   0.521   6.329   1.669 -1.2089 -0.4736  0.2081
   43MOL   H41440818   0.372   6.336   1.473  2.3296  0.7096 -0.7899
   43MOL   H41540819   0.085   6.551   1.437 -0.6885 -1.7272 -1.8261
   43MOL   H41640820   0.158   6.393   1.401 -1.3023 -0.1950 -0.3887
   43MOL   H41740821   0.305   6.626   1.321  0.0768 -0.4339 -0.4985
   43MOL   H41840822   0.253   6.675   1.023 -1.1906 -0.4086  1.0690
   43MOL   H41940823   0.389   6.600   1.101  0.4903 -0.4709 -0.4181
   43MOL   H42040824   0.367   6.391   0.984  1.3224  0.4640 -1.8555
   43MOL   H42140825   0.398   6.529   0.879 -0.0596  1.2452  1.1941
   43MOL   H42240826   0.186   6.566   0.801  0.7300  1.9447  3.9323
   43MOL   H42340827   0.119   6.438   0.906  1.2787 -1.4720  2.0583
   43MOL   H42440828   0.338   6.378   0.715  0.0096 -1.9935 -1.4482
   43MOL   H42540829   0.238   6.259   0.788 -0.7004  0.5453  1.3790
   43MOL   H42640830   0.181   6.266   0.558  1.6130  1.9663 -1.1392
   43MOL   H42740831   0.051   6.336   0.640  0.2279 -0.5351 -1.1805
   43MOL   H42840832   0.191   6.568   0.572 -0.7839 -0.2920  0.0704
   43MOL   H42940833   0.077   6.492   0.467 -1.3496 -0.8728  2.2665
   43MOL   H43040834   0.299   6.376   0.373 -0.8842 -1.1610  2.7412
   43MOL   H43140835   0.381   6.475   0.469  0.2731 -1.2347 -0.9139
   43MOL   H43240836   0.399   6.587   0.273 -0.8516 -3.3384 -1.5215
   43MOL   H43340837   0.278   6.683   0.368 -1.8390  0.1158 -1.1073
   43MOL   N43440838   0.255   6.539   0.083 -0.0777 -0.0732  0.4409
   43MOL   C43540839   0.184   6.519   7.745 -0.7179 -0.2401  0.6753
   43MOL   C43640840   0.165   6.660   7.677  1.2552  0.5278  0.1663
   43MOL   C43740841   0.271   6.744   7.649  0.1236  0.3868 -0.2389
   43MOL   C43840842   0.258   6.877   7.603 -0.0943  0.3093  1.0073
   43MOL   C43940843   0.132   6.931   7.584 -0.0213 -0.0591  0.3194
   43MOL   C44040844   0.022   6.848   7.610 -0.0663 -0.7168 -0.1221
   43MOL   C44140845   0.037   6.716   7.654 -0.0697 -0.5065 -0.0666
   43MOL   C44240846   7.700   6.644   7.683  0.3579  0.1360  0.1058
   43MOL   N44340847   7.661   6.635   0.033  0.2639  0.1254 -0.5811
   43MOL   C44440848   7.576   6.556   0.093  0.5328  0.1165 -0.3562
   43MOL   O44540849   7.498   6.486   0.026 -0.3912 -0.1768 -0.5993
   43MOL   C44640850   7.574   6.546   0.246  0.3257  0.3012  0.1543
   43MOL   C44740851   7.435   6.513   0.302  0.0622  0.0204 -0.9207
   43MOL   C44840852   7.435   6.413   0.425 -0.5885  0.4629  0.1554
   43MOL   C44940853   7.536   6.445   0.545 -0.1655  0.6076  0.6127
   43MOL   C45040854   7.515   6.340   0.654  0.0188 -0.2415  0.2789
   43MOL   C45140855   7.563   6.392   0.789 -0.7271  0.2882 -0.0319
   43MOL   C45240856   7.536   6.289   0.901  0.4077  0.8198  0.4355
   43MOL   C45340857   7.594   6.355   1.030  0.1283  0.1697  0.4051
   43MOL   C45440858   7.516   6.471   1.096 -0.4566 -0.8982  0.4335
   43MOL   O45540859   7.409   6.507   1.056  0.4612  0.8909  0.6654
   43MOL   H45640860   0.349   6.503   0.075 -0.2113 -0.5549  0.9713
   43MOL   H45740861   0.087   6.475   7.767 -1.6996  1.4614 -0.1545
   43MOL   H45840862   0.252   6.461   7.682  0.5279  1.7865  0.1101
   43MOL   H45940863   0.373   6.710   7.655  0.9137  2.4013 -1.6441
   43MOL   H46040864   0.347   6.937   7.588  2.9576 -4.1467  0.2614
   43MOL   H46140865   0.116   7.029   7.540  0.0179 -0.1013  0.2123
   43MOL   H46240866   7.716   6.897   7.598  0.2917  0.1382  0.4736
   43MOL   H46340867   7.694   6.546   7.636 -2.2460 -1.8088  4.2377
   43MOL   H46440868   7.614   6.695   7.639  0.1466 -2.3930 -2.5886
   43MOL   H46540869   7.730   6.676   0.094  0.1260  2.9456 -2.2172
   43MOL   H46640870   7.611   6.639   0.289  0.9208  0.2484 -0.2347
   43MOL   H46740871   7.644   6.466   0.267 -0.9445 -1.2620 -1.3690
   43MOL   H46840872   7.363   6.473   0.230 -1.4581  1.2740 -0.1313
   43MOL   H46940873   7.402   6.606   0.348  1.2567  0.8353 -1.6879
   43MOL   H47040874   7.331   6.416   0.457 -0.2448 -0.0421  1.3727
   43MOL   H47140875   7.453   6.313   0.386 -1.0401 -0.2034  1.6452
   43MOL   H47240876   7.638   6.430   0.509  0.1495 -0.5373  1.9471
   43MOL   H47340877   7.515   6.545   0.583 -0.9229  0.6611  0.0594
   43MOL   H47440878   7.409   6.318   0.661  0.0848 -2.3982 -3.9425
   43MOL   H47540879   7.563   6.247   0.621 -1.7130 -0.4767 -1.6484
   43MOL   H47640880   7.521   6.488   0.818 -0.8016  0.6081 -1.1960
   43MOL   H47740881   7.671   6.399   0.775 -0.3468 -2.1097  1.3946
   43MOL   H47840882   7.431   6.273   0.925  0.8250 -0.2528  1.5782
   43MOL   H47940883   7.603   6.204   0.892 -1.7028 -0.9315  1.0518
   43MOL   H48040884   7.600   6.272   1.101  1.4756 -0.8164 -0.8300
   43MOL   H48140885   7.695   6.386   1.005 -0.0468 -0.4760 -1.2062
   43MOL   N48240886   7.578   6.516   1.202 -0.4834 -0.1744  0.1123
   43MOL   C48340887   7.523   6.615   1.292 -0.0764 -0.1112  0.4242
   43MOL   C48440888   7.464   6.546   1.410 -0.0134  0.7247  0.4487
   43MOL   C48540889   7.545   6.487   1.513  0.2915 -0.0626  0.0239
   43MOL   C48640890   7.494   6.436   1.629  0.0891  1.1677 -0.0774
   43MOL   C48740891   7.351   6.432   1.639 -0.2618 -0.0329 -0.3832
   43MOL   C48840892   7.269   6.490   1.540 -0.3829  0.2702  0.4169
   43MOL   C48940893   7.324   6.547   1.426 -0.1514 -0.2894 -0.5078
   43MOL   C49040894   7.224   6.593   1.313 -0.3429 -0.3034  0.8633
   43MOL   N49140895   7.085   6.599   1.355 -0.1361  0.3993  0.3041
   43MOL   C49240896   7.022   6.702   1.413  0.0782  0.5718 -0.0230
   43MOL   O49340897   7.073   6.813   1.441 -0.3954  0.5331 -0.1089
   43MOL   C49440898   6.871   6.679   1.445 -0.0679  0.2763  0.3461
   43MOL   C49540899   6.795   6.805   1.496 -0.1128  1.0791  0.9139
   43MOL   C49640900   6.635   6.801   1.500 -0.5560 -0.1480 -0.6834
   43MOL   C49740901   6.570   6.940   1.525  0.4391  0.4167  0.3313
   43MOL   C49840902   6.422   6.933   1.568 -0.4847 -1.1685  0.1484
   43MOL   C49940903   6.357   7.070   1.591 -0.0310  0.5946 -0.0019
   43MOL   C50040904   6.402   7.133   1.728 -0.3429  0.6328  0.3926
   43MOL   C50140905   6.330   7.261   1.751 -0.0615 -0.2200  0.4489
   43MOL   C50240906   6.350   7.318   1.886 -0.2421 -0.0525  0.3700
   43MOL   O50340907   6.279   7.270   1.979 -0.3250 -0.3465  0.7361
   43MOL   H50440908   7.673   6.487   1.219  0.2215  0.9074 -1.8446
   43MOL   H50540909   7.614   6.670   1.319  0.4876 -1.9236  2.4220
   43MOL   H50640910   7.462   6.691   1.243  0.4915  0.4913  0.6407
   43MOL   H50740911   7.651   6.490   1.491  0.4781 -0.2917  0.8755
   43MOL   H50840912   7.550   6.399   1.714 -1.9983  1.7300  1.5808
   43MOL   H50940913   7.309   6.398   1.733  0.2587 -1.4538 -0.6491
   43MOL   H51040914   7.163   6.470   1.548 -0.5472  0.4335 -1.1914
   43MOL   H51140915   7.222   6.518   1.234 -0.5591 -0.1964  0.7671
   43MOL   H51240916   7.262   6.690   1.280 -0.7626 -0.4040  0.0662
   43MOL   H51340917   7.027   6.517   1.355  0.6200 -0.1436 -0.3371
   43MOL   H51440918   6.857   6.593   1.512  1.0316 -0.1461  0.0476
   43MOL   H51540919   6.816   6.652   1.354  1.1198 -0.0315 -0.2900
   43MOL   H51640920   6.822   6.874   1.417  0.6841 -1.8839 -1.4873
   43MOL   H51740921   6.835   6.854   1.585 -1.2554 -1.5562  2.9713
   43MOL   H51840922   6.593   6.771   1.405 -2.3179 -2.4970  0.7888
   43MOL   H51940923   6.596   6.730   1.573 -0.9687 -1.1051 -1.8235
   43MOL   H52040924   6.621   6.990   1.607  1.4163 -3.6915  2.3484
   43MOL   H52140925   6.575   6.991   1.429 -0.4808 -0.6181 -0.2841
   43MOL   H52240926   6.372   6.887   1.483 -1.5821  2.5174 -1.2898
   43MOL   H52340927   6.406   6.868   1.654  3.5392 -1.1124  1.0476
   43MOL   H52440928   6.249   7.058   1.586 -0.1080  0.8151  1.0815
   43MOL   H52540929   6.386   7.140   1.512 -1.1147  2.3690  1.1204
   43MOL   H52640930   6.371   7.070   1.811 -0.5139  0.5095  0.2377
   43MOL   H52740931   6.509   7.151   1.729 -0.1319 -0.6224  1.4950
   43MOL   H52840932   6.223   7.262   1.726  0.5981  0.3569 -2.5140
   43MOL   H52940933   6.358   7.331   1.673 -0.4771 -0.4166  0.1183
   43MOL   N53040934   6.433   7.425   1.900 -0.7427  0.7321 -0.3502
   43MOL   C53140935   6.433   7.497   2.027  0.2058  0.2959 -0.5878
   43MOL   C53240936   6.543   7.451   2.120  0.4535  0.0340  0.0590
   43MOL   C53340937   6.517   7.396   2.248  0.8751  0.3840 -0.0434
   43MOL   C53440938   6.619   7.359   2.333  0.5457 -0.5310 -0.1779
   43MOL   C53540939   6.752   7.375   2.287  0.2265  0.3093  0.3934
   43MOL   C53640940   6.785   7.419   2.161 -0.0389  0.1659  0.0803
   43MOL   C53740941   6.678   7.463   2.076  0.0234 -0.0430  0.9267
   43MOL   C53840942   6.717   7.524   1.946 -0.0271  0.0976  0.1514
   43MOL   N53940943   6.750   7.428   1.848 -0.1715 -0.6333 -0.2148
   43MOL   C54040944   6.703   7.427   1.722  0.0688 -0.2087 -0.4539
   43MOL   O54140945   6.610   7.510   1.683  0.5033 -0.3286  0.7474
   43MOL   C54240946   6.755   7.321   1.625  0.1892  0.1215 -0.2282
   43MOL   C54340947   6.823   7.383   1.506 -0.3521 -0.0265 -0.3232
   43MOL   C54440948   6.850   7.278   1.402 -0.1990  0.0555 -0.4719
   43MOL   C54540949   6.881   7.325   1.256  0.5309  0.0942  0.3278
   43MOL   C54640950   6.913   7.205   1.165 -0.1785  0.1732 -0.5185
   43MOL   C54740951   6.914   7.232   1.009 -0.4926  0.4960  0.8438
   43MOL   C54840952   6.954   7.108   0.928  0.7355 -0.4485 -0.2501
   43MOL   C54940953   6.987   7.138   0.776 -0.1488 -0.1960  0.5159
   43MOL   C55040954   6.873   7.199   0.689 -0.0127 -0.0124 -0.0067
   43MOL   O55140955   6.791   7.123   0.633 -0.0948  0.2338  0.3707
   43MOL   H55240956   6.482   7.448   1.815  1.1656 -0.1231  0.4907
   43MOL   H55340957   6.331   7.508   2.065 -0.2151 -2.9592 -0.6636
   43MOL   H55440958   6.455   7.600   1.999  1.3460  0.1734 -0.1466
   43MOL   H55540959   6.414   7.382   2.276  0.9860  2.3803  1.5338
   43MOL   H55640960   6.601   7.339   2.437  1.9432  5.0096  1.2674
   43MOL   H55740961   6.834   7.349   2.352 -0.2697 -1.9051  0.1724
   43MOL   H55840962   6.888   7.426   2.131  0.3687 -0.5959  1.2680
   43MOL   H55940963   6.803   7.588   1.968 -0.4315  0.1220  1.7098
   43MOL   H56040964   6.643   7.595   1.908 -0.8695 -0.4863  0.7029
   43MOL   H56140965   6.832   7.374   1.872  0.8443  1.1597  0.4717
   43MOL   H56240966   6.668   7.264   1.595 -0.7320  1.0672  0.5982
   43MOL   H56340967   6.812   7.252   1.687  0.9777 -0.4269 -1.5517
   43MOL   H56440968   6.909   7.441   1.539  0.0554  0.2294 -1.8317
   43MOL   H56540969   6.762   7.457   1.453 -1.7615 -0.0410  1.2393
   43MOL   H56640970   6.930   7.211   1.432 -0.8352 -0.5877 -0.2203
   43MOL   H56740971   6.771   7.204   1.394  1.1986 -1.5184 -0.0823
   43MOL   H56840972   6.791   7.373   1.219  0.8583  0.6110  0.1975
   43MOL   H56940973   6.961   7.398   1.266  0.8160  0.2659 -2.8129
   43MOL   H57040974   7.006   7.163   1.203 -0.3191  0.5298  0.2272
   43MOL   H57140975   6.841   7.125   1.185  0.2760 -0.4873 -1.5085
   43MOL   H57240976   6.975   7.316   0.975  0.0048 -0.4368 -0.6019
   43MOL   H57340977   6.813   7.260   0.976  0.2243  2.2124  0.0004
   43MOL   H57440978   7.043   7.061   0.971  0.1669  0.7043  2.3404
   43MOL   H57540979   6.878   7.030   0.931  1.2519 -0.9137  1.5804
   43MOL   H57640980   7.015   7.040   0.737  0.3803 -0.0751  0.5863
   43MOL   H57740981   7.069   7.208   0.756  0.1817 -0.6240  0.3546
   43MOL   N57840982   6.860   7.329   0.695 -0.6559 -0.4288 -0.2424
   43MOL   C57940983   6.764   7.404   0.623 -0.2384  0.0675  0.5539
   43MOL   C58040984   6.778   7.548   0.643 -0.6608 -0.3221  0.4684
   43MOL   C58140985   6.711   7.609   0.752 -0.5063  0.3207 -0.9566
   43MOL   C58240986   6.726   7.745   0.778  0.4932 -0.2401 -0.0530
   43MOL   C58340987   6.804   0.032   0.687  0.4702  0.1864 -0.7047
   43MOL   C58440988   6.864   7.769   0.575  0.3084 -0.3016 -0.2317
   43MOL   C58540989   6.856   7.628   0.557 -0.4279  0.3161  0.0848
   43MOL   C58640990   6.927   7.578   0.432 -0.2238 -0.0507  0.5708
   43MOL   N58740991   7.026   7.469   0.454 -0.7264 -0.8619  0.2395
   43MOL   C58840992   7.111   7.417   0.360 -0.0580 -0.2056  0.0258
   43MOL   O58940993   7.114   7.447   0.241  0.0557  0.3224  0.2075
   43MOL   C59040994   7.212   7.321   0.422 -0.0337  0.2693  0.1963
   43MOL   C59140995   7.351   7.310   0.354  0.0721 -0.4398  0.7592
   43MOL   C59240996   7.432   7.436   0.381 -0.2904  0.1160 -0.0996
   43MOL   C59340997   7.569   7.439   0.313 -0.1677  0.5644 -0.8162
   43MOL   C59440998   7.642   7.568   0.360 -0.1319  0.4393 -0.1899
   43MOL   C59540999   7.789   7.574   0.301 -0.7593  0.5932  0.8445
   43MOL   C59641000   0.048   7.721   0.305  0.0568  0.2845  0.2268
   43MOL   C59741001   0.194   7.716   0.251 -0.6188 -0.4243  0.5727
   43MOL   C59841002   0.201   7.732   0.104 -0.1976  0.1581  0.5413
   43MOL   O59941003   0.104   7.707   0.038  0.1644 -0.0741 -0.3438
   43MOL   H60041004   6.943   7.382   0.718  0.2035 -0.4884 -3.1209
   43MOL   H60141005   6.662   7.382   0.655 -0.1104 -0.7887  0.3863
   43MOL   H60241006   6.767   7.371   0.519  0.3743  0.6089  0.3961
   43MOL   H60341007   6.649   7.552   0.819  0.5073 -2.4558 -2.3116
   43MOL   H60441008   6.678   0.009   0.858 -0.1284 -0.2448 -0.4253
   43MOL   H60541009   6.811   0.138   0.702  0.4702  0.4302 -2.3226
   43MOL   H60641010   6.927   0.040   0.512 -0.3925  1.5424  0.8304
   43MOL   H60741011   6.970   7.660   0.374  1.2430  0.5545  2.4477
   43MOL   H60841012   6.850   7.530   0.372  0.3410 -2.8597  2.0404
   43MOL   H60941013   7.048   7.445   0.550  0.1568 -1.9777 -0.2342
   43MOL   H61041014   7.163   7.224   0.414 -0.5630  0.5358  0.1867
   43MOL   H61141015   7.230   7.349   0.526 -0.3099  0.7640  0.1144
   43MOL   H61241016   7.345   7.305   0.245  0.5829 -2.6336  0.8082
   43MOL   H61341017   7.405   7.223   0.392  1.1574  0.7712  2.0571
   43MOL   H61441018   7.382   7.522   0.338  2.4409  2.0500  0.4519
   43MOL   H61541019   7.438   7.455   0.488  0.2072  2.0875 -0.4684
   43MOL   H61641020   7.632   7.359   0.350 -0.0229  1.4256  0.8254
   43MOL   H61741021   7.555   7.430   0.205 -1.7736  2.0923 -0.7568
   43MOL   H61841022   7.584   7.656   0.334 -0.0115  1.2415  2.1230
   43MOL   H61941023   7.661   7.565   0.467 -0.1296  0.2966 -0.1941
   43MOL   H62041024   7.788   7.527   0.203  1.4313 -2.1923  2.0993
   43MOL   H62141025   0.066   7.507   0.355 -1.3623 -1.5139 -0.9752
   43MOL   H62241026   7.778   7.778   0.234  0.5455  0.0356 -0.3887
   43MOL   H62341027   0.041   7.769   0.403  1.2346 -1.3315  1.1354
   43MOL   H62441028   0.261   0.007   0.280 -1.8121  0.7866  0.0412
   43MOL   H62541029   0.234   7.619   0.282 -0.3770 -0.5983 -0.2839
   43MOL   N62641030   0.320   7.775   0.050 -0.4877 -0.2908 -0.0945
   43MOL   C62741031   0.335   7.786   7.695  0.0246  0.2932 -0.3666
   43MOL   C62841032   0.476   7.745   7.656  0.1786 -0.5626 -0.8172
   43MOL   C62941033   0.512   7.604   7.641 -0.1211 -0.5216  0.2169
   43MOL   C63041034   0.643   7.572   7.612 -0.1453 -0.3412 -0.0736
   43MOL   C63141035   0.735   7.666   7.581 -0.3226 -0.4811 -0.0771
   43MOL   C63241036   0.707   0.017   7.597 -0.6661  0.1078  0.4838
   43MOL   C63341037   0.575   0.057   7.629 -0.1829 -0.4908  0.0976
   43MOL   C63441038   0.553   0.204   7.624  0.1763 -0.1029 -0.6139
   43MOL   N63541039   0.474   0.240   7.502 -0.6771 -0.1618 -0.3520
   43MOL   C63641040   0.532   0.265   7.382 -0.0370 -0.2395  0.1859
   43MOL   O63741041   0.653   0.249   7.362 -0.4548 -0.3168 -0.4639
   43MOL   C63841042   0.440   0.325   7.279 -0.0968 -0.0708  0.4578
   43MOL   C63941043   0.457   0.278   7.134 -0.0092 -0.7694  0.2236
   43MOL   C64041044   0.395   0.149   7.090 -0.6599 -0.3894  0.2892
   43MOL   C64141045   0.431   0.030   7.179  0.2483  0.8852 -0.3690
   43MOL   C64241046   0.384   7.688   7.112  0.4785 -0.6245  0.1226
   43MOL   C64341047   0.500   7.613   7.050  0.2700  0.2748 -0.4273
   43MOL   C64441048   0.466   7.476   6.996  0.0990  0.3509 -0.0140
   43MOL   C64541049   0.585   7.394   6.969  0.5069  1.0097  0.2064
   43MOL   C64641050   0.642   7.407   6.823  0.3074  0.6040 -0.9183
   43MOL   O64741051   0.587   7.347   6.731 -0.2039  0.2222 -0.4895
   43MOL   H64841052   0.403   7.774   0.108 -1.4640 -1.7423  1.3459
   43MOL   H64941053   0.319   0.100   7.666  0.1629  0.9091  1.7215
   43MOL   H65041054   0.271   7.719   7.637 -3.1252  2.4083  0.5666
   43MOL   H65141055   0.434   7.530   7.645  0.8873 -1.7565 -2.3708
   43MOL   H65241056   0.664   7.468   7.592 -0.1827 -0.4560  0.4582
   43MOL   H65341057   0.836   7.629   7.576  0.0684  0.6780 -1.0431
   43MOL   H65441058   0.774   0.098   7.573 -2.1311  1.7423  1.7622
   43MOL   H65541059   0.644   0.263   7.632  0.8514 -1.1835 -0.1157
   43MOL   H65641060   0.500   0.231   7.715  1.3521  3.0632 -0.8267
   43MOL   H65741061   0.373   0.248   7.502 -0.7993 -1.1323 -3.2284
   43MOL   H65841062   0.464   0.432   7.277 -2.0419  0.3850 -0.0867
   43MOL   H65941063   0.334   0.313   7.304 -0.5811  0.0157 -1.4708
   43MOL   H66041064   0.561   0.277   7.100  0.4618 -1.3105  1.6164
   43MOL   H66141065   0.407   0.355   7.075  0.7668  0.5399  1.2322
   43MOL   H66241066   0.287   0.160   7.099 -1.2461 -3.9659 -1.8856
   43MOL   H66341067   0.409   0.128   6.984 -0.4084 -0.9888  0.4398
   43MOL   H66441068   0.539   0.020   7.193  0.1851  1.7012  0.7213
   43MOL   H66541069   0.402   0.043   7.283  1.2032  1.4129 -0.1624
   43MOL   H66641070   0.334   7.630   7.190  1.2892  0.8572  1.7852
   43MOL   H66741071   0.294   7.702   7.052 -0.8493  0.4616  2.2887
   43MOL   H66841072   0.573   7.610   7.131 -1.1157  3.5402  1.0849
   43MOL   H66941073   0.545   7.668   6.967  1.5678 -1.6295 -0.9957
   43MOL   H67041074   0.405   7.423   7.068 -1.1027  0.8278 -0.6746
   43MOL   H67141075   0.406   7.489   6.906 -4.5509 -0.0503  2.8750
   43MOL   H67241076   0.564   7.288   6.983  0.2963  1.0313  0.0609
   43MOL   H67341077   0.658   7.410   7.048  1.0627 -0.6621  0.0345
   43MOL   N67441078   0.754   7.478   6.807  0.4259 -0.1570 -0.6410
   43MOL   C67541079   0.804   7.524   6.684 -0.0892 -0.5394  0.4538
   43MOL   C67641080   0.894   7.427   6.618 -0.2964 -0.1342  0.4021
   43MOL   C67741081   0.985   7.359   6.704 -0.3198  0.4120 -0.3027
   43MOL   C67841082   1.074   7.269   6.643 -0.7599  0.1101 -0.5012
   43MOL   C67941083   1.074   7.248   6.505 -0.2925 -0.2942  0.7028
   43MOL   C68041084   0.983   7.317   6.422 -0.0287  0.0372  0.1780
   43MOL   C68141085   0.890   7.403   6.478 -0.1733 -0.6765  0.1426
   43MOL   C68241086   0.789   7.470   6.383  0.5542 -0.2850  0.4213
   43MOL   N68341087   0.658   7.415   6.408  0.5496  1.0577  0.5684
   43MOL   C68441088   0.552   7.400   6.328 -0.7587 -0.4069 -0.1159
   43MOL   O68541089   0.545   7.431   6.208 -0.3950  0.4855  0.1892
   43MOL   C68641090   0.427   7.339   6.389  0.1124  0.5835 -0.4852
   43MOL   C68741091   0.322   7.439   6.427  0.0864  0.0190 -0.0285
   43MOL   C68841092   0.206   7.368   6.513 -1.1623 -0.4821 -0.4847
   43MOL   C68941093   0.243   7.377   6.661 -0.3897  0.3454  0.1389
   43MOL   C69041094   0.131   7.309   6.745 -0.2900  0.1309  0.2117
   43MOL   C69141095   0.158   7.319   6.894 -0.3420  0.1648  0.1510
   43MOL   C69241096   0.041   7.265   6.979  0.1839 -0.3346 -0.5616
   43MOL   C69341097   0.063   7.231   7.130  0.8391 -0.4869 -0.3675
   43MOL   C69441098   7.748   7.132   7.185  0.7553  0.0875  0.5219
   43MOL   O69541099   7.739   7.016   7.136  0.3097  0.2049 -0.0995
   43MOL   H69641100   0.801   7.509   6.891  1.3872 -1.9480 -0.4922
   43MOL   H69741101   0.854   7.619   6.705 -1.1165  0.3554 -1.0616
   43MOL   H69841102   0.719   7.549   6.620 -0.5694 -1.0775  0.8769
   43MOL   H69941103   0.983   7.373   6.811  0.0935 -0.1192 -0.2220
   43MOL   H70041104   1.144   7.219   6.707 -0.4383 -0.4046 -1.2478
   43MOL   H70141105   1.144   7.185   6.451 -0.4904 -0.3147  0.4707
   43MOL   H70241106   0.998   7.312   6.315  2.5364 -0.7281  0.5373
   43MOL   H70341107   0.814   7.440   6.281  1.1196  3.2481 -0.5411
   43MOL   H70441108   0.783   7.579   6.382  2.5131 -0.1396  1.5224
   43MOL   H70541109   0.645   7.381   6.502 -0.7130  1.1406  0.4306
   43MOL   H70641110   0.471   7.288   6.475  2.6511  2.6580 -0.4991
   43MOL   H70741111   0.378   7.257   6.336  1.0574 -1.3031  1.4644
   43MOL   H70841112   0.281   7.478   6.334  0.7720 -0.3011 -0.4654
   43MOL   H70941113   0.364   7.523   6.484 -1.0218 -0.3599  1.3897
   43MOL   H71041114   0.111   7.417   6.493 -1.7982 -2.2784 -2.0784
   43MOL   H71141115   0.196   7.265   6.479 -0.4507 -0.9811  0.7653
   43MOL   H71241116   0.341   7.335   6.685 -0.8398  0.5660  2.4726
   43MOL   H71341117   0.241   7.480   6.695 -0.0419  0.3731  0.0671
   43MOL   H71441118   0.034   7.353   6.721  0.1997  1.1722  0.1202
   43MOL   H71541119   0.129   7.203   6.720  0.0598 -0.5888  3.1319
   43MOL   H71641120   0.173   7.425   6.912  0.0249  0.1215  0.0950
   43MOL   H71741121   0.249   7.270   6.928  0.2231  0.4444 -0.9472
   43MOL   H71841122   0.002   7.175   6.930  0.0741  0.2886 -1.6539
   43MOL   H71941123   7.744   7.331   6.974  1.4135  1.4052  0.6064
   43MOL   H72041124   0.059   7.319   7.194 -0.7326 -3.7779  4.3572
   43MOL   H72141125   0.152   7.170   7.145  1.0442  0.0766  0.8226
   43MOL   N72241126   7.677   7.176   7.296  0.4192 -0.1788  0.5971
   43MOL   C72341127   7.568   7.112   7.374  0.4001  0.4707 -0.0201
   43MOL   C72441128   7.438   7.094   7.288  0.0002 -0.4911 -0.0266
   43MOL   C72541129   7.383   7.208   7.231  0.1841  0.3041  0.4452
   43MOL   C72641130   7.269   7.197   7.153 -0.3263 -0.6602 -0.5225
   43MOL   C72741131   7.227   7.075   7.113  0.3251 -0.0416  0.4991
   43MOL   C72841132   7.289   6.953   7.152  0.4705 -0.2759 -0.5964
   43MOL   C72941133   7.391   6.963   7.244 -0.7046  0.8719  1.0000
   43MOL   C73041134   7.455   6.835   7.288 -0.7291  0.8751  0.1635
   43MOL   N73141135   7.594   6.805   7.246  0.2721  0.0273  0.7279
   43MOL   C73241136   7.658   6.687   7.268  0.4153 -0.6741  0.6139
   43MOL   O73341137   7.607   6.593   7.338 -0.2342  0.9663  0.0196
   43MOL   C73441138   0.007   6.674   7.203  0.1783  0.8650 -0.6582
   43MOL   C73541139   0.109   6.601   7.295 -0.5804 -0.5642  0.0507
   43MOL   C73641140   0.253   6.593   7.238  0.0838  0.2251  0.3279
   43MOL   C73741141   0.362   6.565   7.336 -0.0666 -0.0001  0.3569
   43MOL   C73841142   0.501   6.580   7.272 -0.5742  0.9452  0.4880
   43MOL   C73941143   0.610   6.544   7.375  0.0218 -0.1268 -0.1188
   43MOL   C74041144   0.751   6.589   7.317 -0.4671  0.2659  0.5948
   43MOL   C74141145   0.859   6.600   7.428 -0.3143 -0.0862  0.0258
   43MOL   C74241146   0.908   6.467   7.478 -0.1211 -0.0628  0.3163
   43MOL   O74341147   0.870   6.361   7.427 -0.1656 -0.6902 -0.0856
   43MOL   H74441148   7.688   7.274   7.318  0.7182  0.2243 -1.2583
   43MOL   H74541149   7.548   7.178   7.458 -1.9235  0.2531 -0.3693
   43MOL   H74641150   7.609   7.018   7.410 -1.8239 -1.0461 -1.3229
   43MOL   H74741151   7.428   7.304   7.253  0.1021  0.4745 -0.1300
   43MOL   H74841152   7.221   7.287   7.117 -0.1104 -0.4956 -0.4028
   43MOL   H74941153   7.139   7.067   7.051  0.5880 -0.2641  0.1554
   43MOL   H75041154   7.251   6.858   7.117 -0.2499  0.6947 -2.5383
   43MOL   H75141155   7.406   6.744   7.251  3.4745 -1.2561 -0.5374
   43MOL   H75241156   7.442   6.837   7.396  0.3495  0.0055  0.3263
   43MOL   H75341157   7.634   6.879   7.191  0.6030 -1.2340 -0.7350
   43MOL   H75441158   0.041   6.764   7.153 -1.2593  1.6688 -0.2206
   43MOL   H75541159   7.776   6.610   7.117  0.6982 -2.6506  1.7417
   43MOL   H75641160   0.081   6.499   7.321  0.4095 -0.8962 -0.1435
   43MOL   H75741161   0.110   6.642   7.396  0.0895  1.3824 -0.7158
   43MOL   H75841162   0.254   6.530   7.149 -0.4892  1.2459 -0.4289
   43MOL   H75941163   0.273   6.694   7.201 -0.4913  0.5372  0.8565
   43MOL   H76041164   0.359   6.634   7.420 -1.4845  0.8970 -0.4092
   43MOL   H76141165   0.350   6.465   7.378  0.7429  0.9305  2.9035
   43MOL   H76241166   0.510   6.517   7.183 -0.1148  0.1619  1.0782
   43MOL   H76341167   0.513   6.678   7.227 -0.1574  1.1628  1.0775
   43MOL   H76441168   0.613   6.440   7.405 -2.5611 -0.4112 -0.7472
   43MOL   H76541169   0.584   6.602   7.464  0.0199 -0.1403 -0.1102
   43MOL   H76641170   0.779   6.514   7.243 -1.5395 -0.8525  1.2986
   43MOL   H76741171   0.724   6.684   7.270 -0.7638  0.1193  0.4662
   43MOL   H76841172   0.944   6.651   7.383 -1.3343  0.6530 -1.0757
   43MOL   H76941173   0.830   6.649   7.521  1.6665 -1.5017  1.4360
   43MOL   N77041174   0.995   6.467   7.575  0.7897  0.2666 -0.1255
   43MOL   C77141175   1.048   6.359   7.655 -0.0645 -0.1697  0.2199
   43MOL   C77241176   1.181   6.301   7.617  0.4975  0.5858  0.2611
   43MOL   C77341177   1.264   6.373   7.530  0.1594  0.3430  0.0263
   43MOL   C77441178   1.393   6.327   7.500  0.3515 -0.2243 -0.0687
   43MOL   C77541179   1.440   6.205   7.559  0.3575  1.2178 -0.2459
   43MOL   C77641180   1.353   6.131   7.641 -0.3149  0.1153  0.2408
   43MOL   C77741181   1.232   6.185   7.681 -0.4383  0.7489 -0.1736
   43MOL   C77841182   1.148   6.102   7.776  0.1876 -0.2790 -0.5176
   43MOL   N77941183   1.163   6.152   0.128  0.1102 -0.1685 -0.3055
   43MOL   C78041184   1.084   6.245   0.193  0.2906  0.4507  0.2570
   43MOL   O78141185   0.982   6.302   0.146  0.3962  0.2909 -0.0362
   43MOL   C78241186   1.153   6.284   0.327  0.4595  0.0523 -0.4872
   43MOL   C78341187   1.050   6.277   0.440  0.1537  0.0520 -0.8196
   43MOL   C78441188   1.031   6.138   0.502  0.3226 -0.2698  0.5803
   43MOL   C78541189   0.927   6.139   0.622  0.0350 -0.0947  0.1106
   43MOL   C78641190   0.790   6.201   0.594 -0.2626  0.2986  1.3122
   43MOL   C78741191   0.786   6.347   0.644 -0.1654  0.1659  0.2609
   43MOL   C78841192   0.660   6.417   0.595  0.3150 -1.0151  0.4650
   43MOL   C78941193   0.636   6.559   0.647 -0.1177  0.4702  0.0281
   43MOL   C79041194   0.758   6.645   0.646 -0.5954 -0.8546 -0.3544
   43MOL   O79141195   0.822   6.664   0.537  0.4355 -0.5200 -0.3922
   43MOL   H79241196   1.020   6.561   7.602  1.0587 -0.1096  0.9394
   43MOL   H79341197   1.071   6.407   7.750 -1.6193 -0.7050  0.8947
   43MOL   H79441198   0.970   6.283   7.670 -0.5354 -0.0768 -1.7030
   43MOL   H79541199   1.210   6.451   7.478  0.4379  1.2126  1.0263
   43MOL   H79641200   1.447   6.398   7.439 -0.5938  0.8906  0.3797
   43MOL   H79741201   1.541   6.171   7.547  0.1195  0.5624 -0.3745
   43MOL   H79841202   1.381   6.035   7.681  2.0747  0.7953  0.2912
   43MOL   H79941203   1.178   5.997   7.767 -3.0177 -1.0982 -2.5547
   43MOL   H80041204   1.041   6.097   7.755  0.0092  1.5750 -0.1817
   43MOL   H80141205   1.238   6.110   0.181 -0.8438 -2.0328 -0.4064
   43MOL   H80241206   1.190   6.386   0.311 -3.5438  1.6417 -0.2161
   43MOL   H80341207   1.232   6.214   0.353  2.2998  2.7151  1.3242
   43MOL   H80441208   0.949   6.304   0.413  0.1820  1.5198  0.4933
   43MOL   H80541209   1.087   6.342   0.520  0.2158  0.7260 -1.3993
   43MOL   H80641210   1.125   6.115   0.554  1.9268 -0.4194 -2.3158
   43MOL   H80741211   1.005   6.054   0.437 -0.2129  0.4253 -0.1116
   43MOL   H80841212   0.918   6.037   0.661  0.5378 -0.3723 -0.4873
   43MOL   H80941213   0.971   6.187   0.709  1.1413 -0.5375 -0.2003
   43MOL   H81041214   0.771   6.180   0.489  1.7034  0.2243  0.9413
   43MOL   H81141215   0.722   6.133   0.645 -3.3432  1.2405 -1.4058
   43MOL   H81241216   0.872   6.399   0.601  0.5727 -1.6996 -0.5799
   43MOL   H81341217   0.785   6.351   0.753 -1.6655 -0.2577  0.2668
   43MOL   H81441218   0.573   6.358   0.624 -1.4759 -0.3387 -3.3311
   43MOL   H81541219   0.666   6.408   0.487 -1.8618 -0.4865  0.2848
   43MOL   H81641220   0.606   6.541   0.751 -0.2336 -1.5979 -0.3459
   43MOL   H81741221   0.550   6.602   0.596  0.7097  2.7869  0.5226
   43MOL   N81841222   0.790   6.705   0.765  0.2418 -0.5211 -0.1475
   43MOL   C81941223   0.917   6.771   0.790 -0.0185 -0.1363  0.2146
   43MOL   C82041224   0.955   6.753   0.934 -0.5113  0.5093  0.3989
   43MOL   C82141225   0.902   6.843   1.030 -0.3713  0.2918 -0.1691
   43MOL   C82241226   0.943   6.835   1.164  0.3961  0.4951  0.1156
   43MOL   C82341227   1.033   6.735   1.201  0.5257 -0.4280  0.6636
   43MOL   C82441228   1.084   6.643   1.108 -0.7024 -0.3552 -0.4429
   43MOL   C82541229   1.052   6.654   0.972 -0.0038  0.1989 -0.2662
   43MOL   C82641230   1.094   6.549   0.873  0.3217 -0.0274  0.9056
   43MOL   N82741231   1.235   6.558   0.824 -0.0618 -0.5047  0.3263
   43MOL   C82841232   1.294   6.458   0.759 -0.5126 -0.2361 -0.3026
   43MOL   O82941233   1.229   6.352   0.731  0.1483 -0.1179 -0.4286
   43MOL   C83041234   1.446   6.464   0.733  0.1738 -0.1594  0.3609
   43MOL   C83141235   1.485   6.554   0.619 -0.5577  0.8022  0.0065
   43MOL   C83241236   1.410   6.531   0.486 -0.2357  0.4408  0.3159
   43MOL   C83341237   1.474   6.598   0.355  0.6965 -0.2828  0.5012
   43MOL   C83441238   1.397   6.575   0.225 -0.0772 -0.0821  0.2631
   43MOL   C83541239   1.473   6.609   0.095  0.6574  0.4032 -0.7246
   43MOL   C83641240   1.484   6.759   0.066  0.6275  0.4022  0.2840
   43MOL   C83741241   1.378   6.810   7.756  0.5175  0.3132 -0.2439
   43MOL   C83841242   1.398   6.960   7.733  0.7901 -1.2323  0.2168
   43MOL   O83941243   1.501   7.000   7.670 -0.1969  0.3284 -0.1469
   43MOL   H84041244   0.726   6.689   0.842 -1.5945 -0.1624 -1.5660
   43MOL   H84141245   0.997   6.741   0.722 -0.5600  0.9614 -0.9303
   43MOL   H84241246   0.906   6.876   0.763  0.3532  0.4229  2.1871
   43MOL   H84341247   0.844   6.929   1.000 -0.3215  0.0616 -0.9262
   43MOL   H84441248   0.917   6.904   1.243 -1.4027  0.8895 -0.8045
   43MOL   H84541249   1.055   6.737   1.307 -0.7439 -0.4045  0.9330
   43MOL   H84641250   1.143   6.556   1.135  0.8516  0.5512 -0.8581
   43MOL   H84741251   1.030   6.543   0.785 -0.4902 -1.3513  1.5731
   43MOL   H84841252   1.074   6.449   0.912  0.8454 -0.4588  0.0822
   43MOL   H84941253   1.295   6.635   0.847 -2.6824  1.5419  0.5320
   43MOL   H85041254   1.481   6.364   0.708 -0.5918  0.1064 -1.9458
   43MOL   H85141255   1.504   6.480   0.824 -0.1153 -1.9470  0.8691
   43MOL   H85241256   1.592   6.541   0.599 -0.8717  0.8813 -1.8076
   43MOL   H85341257   1.472   6.658   0.645  1.0980  0.4741  2.3059
   43MOL   H85441258   1.307   6.566   0.498 -0.5479 -0.5544  0.5794
   43MOL   H85541259   1.401   6.423   0.492 -3.5882  0.6386 -0.0531
   43MOL   H85641260   1.478   6.706   0.369 -0.1705 -0.1803 -0.0104
   43MOL   H85741261   1.573   6.553   0.351 -0.1373 -2.0977 -0.2800
   43MOL   H85841262   1.382   6.468   0.224 -0.0435 -0.0814 -0.9106
   43MOL   H85941263   1.293   6.608   0.231  0.1637  0.4828  1.5057
   43MOL   H86041264   1.435   6.556   0.008  0.9132 -0.4111 -0.3571
   43MOL   H86141265   1.573   6.569   0.114  0.3113 -0.9382 -1.6005
   43MOL   H86241266   1.584   6.782   0.030  0.9140 -1.8394 -0.4191
   43MOL   H86341267   1.467   6.813   0.160 -1.6058 -0.7953  0.6095
   43MOL   H86441268   1.383   6.763   7.658  1.1988  1.3149 -0.6966
   43MOL   H86541269   1.279   6.792   0.007  0.5267 -0.0498 -0.3811
   43MOL   N86641270   1.297   7.042   7.760  0.2369  0.0546 -0.0905
   43MOL   C86741271   1.282   7.181   7.706  0.2330  0.2641 -0.9303
   43MOL   C86841272   1.152   7.256   7.736 -0.8484 -0.0608  0.5914
   43MOL   C86941273   1.102   7.260   0.079  0.1719 -0.2164  0.1184
   43MOL   C87041274   0.982   7.322   0.105 -0.1995 -0.8014 -0.1793
   43MOL   C87141275   0.899   7.367   0.002  0.1400 -0.5709 -0.1084
   43MOL   C87241276   0.942   7.359   7.660  0.3610  0.9867 -0.0082
   43MOL   C87341277   1.073   7.301   7.627 -0.5915 -0.0339 -0.1895
   43MOL   C87441278   1.125   7.297   7.483  0.0002 -0.1403 -1.1214
   43MOL   N87541279   1.094   7.169   7.421  0.2053 -0.0929  0.1320
   43MOL   C87641280   1.185   7.083   7.368 -0.2295 -0.0194 -0.2481
   43MOL   O87741281   1.303   7.112   7.359  0.2524  0.1807  0.6767
   43MOL   C87841282   1.134   6.949   7.320 -0.2375 -0.0940  0.0020
   43MOL   C87941283   1.250   6.864   7.246  0.6098 -0.8126 -0.9100
   43MOL   C88041284   1.198   6.733   7.174  0.9204 -0.2799  0.0963
   43MOL   C88141285   1.315   6.646   7.121  0.5901  0.4274  0.1649
   43MOL   C88241286   1.270   6.517   7.050 -0.1972 -0.9517 -0.6185
   43MOL   C88341287   1.209   6.544   6.915  0.2976  0.8659  0.0352
   43MOL   C88441288   1.172   6.414   6.829 -0.1614  0.7322 -0.6321
   43MOL   C88541289   1.108   6.458   6.695 -0.6641  0.1317  0.5424
   43MOL   C88641290   1.205   6.469   6.578  0.0199 -0.4373 -0.0941
   43MOL   O88741291   1.309   6.533   6.588  0.3459 -0.3656  0.4036
   43MOL   H88841292   1.228   7.014   0.038  0.3954 -0.3670 -0.1034
   43MOL   H88941293   1.359   7.243   7.752 -0.0834 -1.0531  1.4665
   43MOL   H89041294   1.313   7.181   7.601 -0.9476  2.9280 -1.3059
   43MOL   H89141295   1.165   7.226   0.160  0.2617  1.2733  0.7060
   43MOL   H89241296   0.947   7.323   0.208 -2.5309  0.9011 -0.9266
   43MOL   H89341297   0.796   7.396   0.016  0.0272 -0.8917 -0.2770
   43MOL   H89441298   0.873   7.387   7.582  0.6594  0.5298 -0.4342
   43MOL   H89541299   1.228   7.331   7.472 -0.3980  1.6314  0.4566
   43MOL   H89641300   1.062   7.370   7.433  0.1181  1.2401  0.7254
   43MOL   H89741301   0.997   7.149   7.405  0.2734 -1.2137  1.0684
   43MOL   H89841302   1.055   6.959   7.246  0.3701 -0.5091 -0.7096
   43MOL   H89941303   1.095   6.889   7.402 -1.4564 -1.1751 -1.3396
   43MOL   H90041304   1.327   6.839   7.318  0.8843  1.9452 -0.1756
   43MOL   H90141305   1.299   6.942   7.187  0.7808 -0.2735 -0.0677
   43MOL   H90241306   1.140   6.681   7.251  0.4443 -1.2757 -0.9275
   43MOL   H90341307   1.131   6.759   7.092  0.0125 -0.9099  0.6172
   43MOL   H90441308   1.379   6.703   7.052  1.4230 -1.2761 -0.4919
   43MOL   H90541309   1.381   6.608   7.198 -0.0488 -1.3521 -0.1617
   43MOL   H90641310   1.353   6.447   7.045  0.2631 -0.6459  1.9027
   43MOL   H90741311   1.202   6.458   7.112 -1.1859 -0.7601 -1.4912
   43MOL   H90841312   1.269   6.615   6.859 -2.0624  0.6399 -2.9655
   43MOL   H90941313   1.118   6.603   6.922 -0.0889  0.5916 -2.2663
   43MOL   H91041314   1.262   6.359   6.799 -1.8658 -0.7274 -3.2431
   43MOL   H91141315   1.106   6.343   6.879 -0.6062  1.3558 -0.3342
   43MOL   H91241316   1.027   6.390   6.670  0.9094 -0.9702 -1.8133
   43MOL   H91341317   1.059   6.554   6.710 -1.1024 -0.1006  0.6055
   43MOL   N91441318   1.172   6.390   6.473 -0.2236  0.1044  0.9306
   43MOL   C91541319   1.248   6.407   6.346 -0.2613 -0.0402 -0.2491
   43MOL   C91641320   1.200   6.334   6.219 -0.4172 -0.1915 -0.8741
   43MOL   C91741321   1.292   6.255   6.147  0.2791 -0.0600  1.2204
   43MOL   C91841322   1.252   6.191   6.024 -0.3883  0.0467 -0.3761
   43MOL   C91941323   1.122   6.199   5.968  0.2517  0.2976 -0.8753
   43MOL   C92041324   1.032   6.279   6.044 -0.5046 -0.2131 -0.3552
   43MOL   C92141325   1.071   6.344   6.163  0.3228  0.2945  0.6700
   43MOL   C92241326   0.962   6.433   6.223 -0.7894  0.8378  0.1166
   43MOL   N92341327   0.995   6.574   6.205 -0.0167 -0.4122  0.1539
   43MOL   C92441328   0.951   6.667   6.289 -0.5275 -0.1948  0.2848
   43MOL   O92541329   0.877   6.639   6.376  0.1689 -0.4910 -0.7592
   43MOL   C92641330   0.996   6.810   6.261  0.0211  0.4082 -0.0934
   43MOL   C92741331   1.074   6.872   6.383  0.2934  0.0130  0.1746
   43MOL   C92841332   0.995   6.878   6.509 -0.2575  0.9392 -1.2803
   43MOL   C92941333   0.860   6.949   6.484  0.2265 -0.2828 -0.2745
   43MOL   C93041334   0.809   7.022   6.610  0.1283 -0.0951 -0.3758
   43MOL   C93141335   0.769   6.924   6.719 -0.1470 -0.0243 -0.5339
   43MOL   C93241336   0.675   6.997   6.822  0.3754  0.0291 -0.2679
   43MOL   C93341337   0.613   6.909   6.936 -0.9386 -0.7768 -0.3959
   43MOL   C93441338   0.705   6.842   7.036  0.1347  0.5741  0.2156
   43MOL   O93541339   0.789   6.905   7.101  0.0464 -0.0083  0.1031
   43MOL   H93641340   1.085   6.339   6.469 -0.3524  0.4306 -0.5806
   43MOL   H93741341   1.244   6.514   6.325  1.0113  0.1318  0.3184
   43MOL   H93841342   1.354   6.384   6.358 -0.2276 -0.3350 -1.0269
   43MOL   H93941343   1.396   6.242   6.172  0.3994  1.7423  1.7503
   43MOL   H94041344   1.326   6.129   5.975  1.4327 -0.9177  3.3575
   43MOL   H94141345   1.094   6.149   5.876  1.2342 -0.5622 -0.7098
   43MOL   H94241346   0.931   6.280   6.007  0.0781 -1.4092 -2.0697
   43MOL   H94341347   0.967   6.393   6.325 -0.0803  0.8494  0.0844
   43MOL   H94441348   0.864   6.420   6.178 -1.0582 -1.5481  1.3090
   43MOL   H94541349   1.055   6.605   6.130 -2.7118  0.1083 -1.8839
   43MOL   H94641350   0.929   6.880   6.212 -1.7864 -1.2171  0.0237
   43MOL   H94741351   1.082   6.804   6.194  0.0568 -1.0474  0.0626
   43MOL   H94841352   1.128   6.965   6.366  1.5191 -0.7243 -0.0105
   43MOL   H94941353   1.153   6.806   6.419 -0.1864 -3.1972 -4.1487
   43MOL   H95041354   0.970   6.789   6.567  2.2572  0.8606 -0.2483
   43MOL   H95141355   1.053   6.935   6.581 -2.6748 -1.4269  2.7144
   43MOL   H95241356   0.862   7.019   6.400 -1.2522  4.0439  3.0916
   43MOL   H95341357   0.784   6.876   6.458 -0.2146  0.0632  0.0313
   43MOL   H95441358   0.714   7.064   6.578 -0.3458 -1.2578 -0.5109
   43MOL   H95541359   0.885   7.093   6.642  0.3675  0.2830 -1.7546
   43MOL   H95641360   0.724   6.837   6.672  0.4195 -0.0947 -0.9578
   43MOL   H95741361   0.860   6.880   6.762 -0.0962  1.0205  0.4443
   43MOL   H95841362   0.591   7.046   6.773 -0.3455  1.0734  1.9592
   43MOL   H95941363   0.736   7.075   6.868  2.5113 -1.8087  0.1136
   43MOL   H96041364   0.562   6.822   6.893  0.1229 -1.8124  0.4284
   43MOL   H96141365   0.537   6.973   6.981 -0.1980  0.9664 -1.5559
   43MOL   H96241366   0.685   6.736   7.051  0.2542  0.7836  2.0018
   44MOL     N141367   7.194   1.087   7.582 -0.7441  0.3321 -1.1346
   44MOL     C241368   7.316   1.028   7.632  0.0661 -0.0317  0.2783
   44MOL     C341369   7.377   1.099   7.754 -0.1525  0.7783  0.3206
   44MOL     C441370   7.349   1.045   0.087 -0.3226  0.0436  0.2226
   44MOL     C541371   7.403   1.105   0.200 -1.2937  0.0231  0.4037
   44MOL     C641372   7.477   1.228   0.193 -0.3880 -0.2028  0.3513
   44MOL     C741373   7.503   1.280   0.065  0.2861  0.9510  0.8129
   44MOL     C841374   7.460   1.214   7.737 -0.2750 -0.0467 -0.8752
   44MOL     C941375   7.467   1.267   7.591 -0.1318 -0.8448 -0.0101
   44MOL    N1041376   7.525   1.402   7.584 -0.0008  0.2305 -0.5023
   44MOL    C1141377   7.466   1.507   7.538 -0.2156 -0.1284 -0.1711
   44MOL    O1241378   7.354   1.502   7.492 -0.4086  0.1209  0.0465
   44MOL    C1341379   7.538   1.640   7.548  0.2437 -0.3137  0.0449
   44MOL    C1441380   7.450   1.763   7.507 -0.4620 -0.5209 -0.1652
   44MOL    C1541381   7.533   1.872   7.437  0.2678  0.7246 -0.4346
   44MOL    C1641382   7.567   1.842   7.289  0.0649  0.2856 -0.1345
   44MOL    C1741383   7.663   1.943   7.219  0.3650  0.6385 -1.0871
   44MOL    C1841384   7.687   1.891   7.078 -0.5522  0.2545 -0.3180
   44MOL    C1941385   0.029   1.814   7.059 -0.6779  0.3955 -0.0906
   44MOL    C2041386   0.051   1.765   6.912 -0.1327  0.0539  0.2360
   44MOL    C2141387   0.129   1.864   6.827 -1.0056 -0.0265 -0.3144
   44MOL    O2241388   0.150   1.978   6.875  0.1055  0.0795 -0.4968
   44MOL    H2341389   7.120   1.023   7.559 -0.0223 -0.9239  0.0024
   44MOL    H2441390   7.295   0.929   7.674 -0.4851 -1.0833 -2.3719
   44MOL    H2541391   7.385   1.016   7.548 -0.4278 -0.4445 -0.0723
   44MOL    H2641392   7.289   0.956   0.100 -1.2634  1.2159  4.6531
   44MOL    H2741393   7.377   1.047   0.287 -3.3299 -0.7111 -0.6565
   44MOL    H2841394   7.514   1.280   0.280  1.8482  0.0695 -0.7132
   44MOL    H2941395   7.561   1.371   0.061 -0.7154  1.6205  1.2000
   44MOL    H3041396   7.360   1.282   7.576  0.1279 -0.5842 -1.6154
   44MOL    H3141397   7.512   1.197   7.521 -1.9057 -1.7483 -0.2890
   44MOL    H3241398   7.612   1.416   7.633 -0.0514  1.1924 -0.6883
   44MOL    H3341399   7.616   1.635   7.472  0.5694 -2.6110  0.5112
   44MOL    H3441400   7.572   1.640   7.651 -0.1934  1.0679  0.2063
   44MOL    H3541401   7.408   1.802   7.600 -1.2497 -2.4447  0.3215
   44MOL    H3641402   7.365   1.736   7.444  0.1519  1.6758 -1.9652
   44MOL    H3741403   7.480   1.966   7.453  1.3233  1.2734 -0.1277
   44MOL    H3841404   7.626   1.881   7.493  0.9348 -0.1164 -1.3854
   44MOL    H3941405   7.611   1.743   7.276  0.5306  0.6932 -1.8454
   44MOL    H4041406   7.471   1.822   7.243 -1.3357 -1.4765  3.3950
   44MOL    H4141407   7.617   2.041   7.228 -0.3261  0.0559  2.5981
   44MOL    H4241408   7.759   1.940   7.271  0.1721 -0.0026 -0.7647
   44MOL    H4341409   7.683   1.977   7.011 -0.7829  0.0537 -0.5691
   44MOL    H4441410   7.614   1.813   7.054 -0.1237 -0.5268  0.8565
   44MOL    H4541411   0.116   1.876   7.082 -0.7383  0.1519  0.8370
   44MOL    H4641412   0.035   1.718   7.110 -0.0490  1.5708  2.1260
   44MOL    H4741413   7.752   1.742   6.853 -1.4408  0.1662  2.1286
   44MOL    H4841414   0.097   1.666   6.924 -0.7705 -0.2895 -0.1351
   44MOL    H4941415   7.216   1.140   7.499  4.6731 -0.5269 -0.4401
   44MOL    N5041416   0.169   1.823   6.707 -0.3493 -0.7460 -0.2543
   44MOL    C5141417   0.212   1.909   6.599  0.2482 -0.2360 -0.0817
   44MOL    C5241418   0.366   1.911   6.571  0.0504 -0.6019  0.1670
   44MOL    C5341419   0.441   1.991   6.655  0.5162  0.6909 -0.2739
   44MOL    C5441420   0.578   2.012   6.632  0.3576  0.6066 -0.2184
   44MOL    C5541421   0.645   1.946   6.525 -0.1447 -0.2812 -0.6379
   44MOL    C5641422   0.565   1.861   6.442  0.2823  0.0407 -0.8010
   44MOL    C5741423   0.427   1.841   6.462  0.3345 -0.3777  0.6524
   44MOL    C5841424   0.342   1.745   6.382 -0.0700 -0.3793  0.4671
   44MOL    N5941425   0.427   1.639   6.321  0.4680 -0.1589 -0.5255
   44MOL    C6041426   0.454   1.635   6.192  0.5314  0.6635 -0.1407
   44MOL    O6141427   0.404   1.715   6.112 -0.3044 -0.0606 -0.2493
   44MOL    C6241428   0.544   1.521   6.145 -0.6799  0.0669 -0.3035
   44MOL    C6341429   0.680   1.576   6.111  0.1969  0.0335  0.2093
   44MOL    C6441430   0.782   1.568   6.228  0.3238  0.7084  0.1241
   44MOL    C6541431   0.917   1.633   6.211  0.5118  0.4449  0.0154
   44MOL    C6641432   1.012   1.577   6.309  0.0749  0.3979 -0.3990
   44MOL    C6741433   0.993   1.629   6.450  0.2156  0.7222  0.5408
   44MOL    C6841434   1.109   1.594   6.548  0.3344 -0.6988  0.2316
   44MOL    C6941435   1.074   1.618   6.699  0.3959  0.1653  0.4270
   44MOL    C7041436   0.974   1.512   6.749 -0.4991 -0.0473  0.0793
   44MOL    O7141437   0.961   1.402   6.688 -0.5972  0.6736  0.3699
   44MOL    H7241438   0.140   1.728   6.689  1.3668 -0.9290 -2.2230
   44MOL    H7341439   0.188   2.015   6.611 -0.1647 -0.5143  1.6059
   44MOL    H7441440   0.153   1.883   6.510  0.4651 -2.2745  0.3586
   44MOL    H7541441   0.397   2.048   6.736  0.1722  2.3277 -1.5614
   44MOL    H7641442   0.627   2.077   6.703  2.6228 -3.3246  2.0203
   44MOL    H7741443   0.747   1.949   6.490  0.5069 -0.4396  1.2085
   44MOL    H7841444   0.633   1.815   6.372  1.5571  1.2995 -0.4246
   44MOL    H7941445   0.274   1.798   6.316 -0.3332 -0.6026  0.5587
   44MOL    H8041446   0.287   1.686   6.454  1.6568  0.6263  2.6759
   44MOL    H8141447   0.466   1.573   6.387  2.2657  0.3475 -1.0304
   44MOL    H8241448   0.502   1.468   6.059  0.5299 -2.2721  0.4820
   44MOL    H8341449   0.556   1.451   6.227 -0.1537  0.3223 -0.1614
   44MOL    H8441450   0.662   1.681   6.091 -0.3604  0.3989  2.5171
   44MOL    H8541451   0.707   1.521   6.020 -3.3322 -1.2716 -0.1055
   44MOL    H8641452   0.729   1.615   6.310 -0.4245  0.1096 -0.0140
   44MOL    H8741453   0.795   1.461   6.244  0.4039  0.9250  1.5352
   44MOL    H8841454   0.959   1.608   6.114  1.2208  1.2753  0.1049
   44MOL    H8941455   0.903   1.740   6.226  0.5826  0.4146  0.3110
   44MOL    H9041456   1.010   1.469   6.319 -2.2139  0.5478  1.1285
   44MOL    H9141457   1.116   1.598   6.282  0.4460  2.2656  2.3093
   44MOL    H9241458   0.896   1.600   6.489  0.9867  1.7930  3.4375
   44MOL    H9341459   0.993   1.738   6.443  1.3377  0.6035 -1.5897
   44MOL    H9441460   1.191   1.661   6.526  1.9247 -2.2573  1.2921
   44MOL    H9541461   1.129   1.489   6.531 -1.9643 -0.9170 -1.3373
   44MOL    H9641462   1.022   1.713   6.710 -0.7687 -0.3772 -0.2675
   44MOL    H9741463   1.160   1.619   6.766 -1.6637 -0.7980  3.2009
   44MOL    N9841464   0.897   1.537   6.850  0.1173  0.2628 -0.4717
   44MOL    C9941465   0.807   1.447   6.926  0.3820  0.0448 -0.1343
   44MOL   C10041466   0.668   1.505   6.972 -0.1225 -0.6083  0.4106
   44MOL   C10141467   0.630   1.481   7.107  0.3750  0.5968 -0.3233
   44MOL   C10241468   0.508   1.524   7.162  0.7935  0.5286  0.0430
   44MOL   C10341469   0.424   1.608   7.090 -0.0179 -0.6944 -0.7768
   44MOL   C10441470   0.462   1.641   6.958  0.1740  0.3489 -0.2722
   44MOL   C10541471   0.579   1.584   6.893 -0.7864 -0.7847 -0.3677
   44MOL   C10641472   0.592   1.631   6.747  0.2251 -0.1239 -0.6491
   44MOL   N10741473   0.663   1.529   6.665 -0.4480 -0.1326 -0.3439
   44MOL   C10841474   0.611   1.452   6.572 -0.2592  1.0352 -0.0267
   44MOL   O10941475   0.503   1.474   6.518  0.0815  0.4914  0.0356
   44MOL   C11041476   0.683   1.322   6.534 -0.3154  0.3776 -0.0954
   44MOL   C11141477   0.585   1.205   6.528  0.2167 -0.1862  0.1208
   44MOL   C11241478   0.643   1.067   6.519  0.6025 -0.1126 -0.4104
   44MOL   C11341479   0.550   0.953   6.515 -0.3214  0.0266 -0.7113
   44MOL   C11441480   0.477   0.932   6.391 -0.0213  0.3651 -0.1536
   44MOL   C11541481   0.403   0.801   6.388  0.4397  0.3814 -0.5772
   44MOL   C11641482   0.351   0.779   6.249 -0.2639  0.6701 -0.3858
   44MOL   C11741483   0.297   0.640   6.222  0.7289  0.4951  0.2854
   44MOL   C11841484   0.174   0.604   6.300 -0.1679  0.4345 -0.2293
   44MOL   O11941485   0.103   0.689   6.351 -0.4441 -0.4837 -0.4919
   44MOL   H12041486   0.908   1.628   6.893 -2.4742  0.7870 -0.7889
   44MOL   H12141487   0.780   1.361   6.865 -0.6929  0.0346  0.3404
   44MOL   H12241488   0.867   1.411   7.009 -0.6205 -0.4483  0.3870
   44MOL   H12341489   0.692   1.421   7.172 -1.5768 -3.0146 -1.6788
   44MOL   H12441490   0.465   1.485   7.254  0.0718  0.4230 -0.3378
   44MOL   H12541491   0.326   1.642   7.120  0.1079 -0.5408 -0.5368
   44MOL   H12641492   0.396   1.711   6.908 -1.0798 -0.6754 -0.0723
   44MOL   H12741493   0.645   1.726   6.739  0.2658 -0.0107  0.8898
   44MOL   H12841494   0.495   1.651   6.702 -0.7577  0.5575  1.7349
   44MOL   H12941495   0.737   1.488   6.719  0.1265  0.1612 -0.9061
   44MOL   H13041496   0.760   1.310   6.609  1.0143 -0.6389 -1.5888
   44MOL   H13141497   0.724   1.335   6.434 -0.2903  1.7040  0.0770
   44MOL   H13241498   0.509   1.217   6.451 -1.0614 -1.2791  1.1857
   44MOL   H13341499   0.530   1.202   6.622  0.4394  0.2324  0.2631
   44MOL   H13441500   0.702   1.071   6.427  0.3858 -1.9878 -0.6370
   44MOL   H13541501   0.719   1.057   6.597  1.0805 -0.4268 -0.9097
   44MOL   H13641502   0.613   0.865   6.528  0.8378  0.5591 -2.5531
   44MOL   H13741503   0.478   0.951   6.597 -0.4575  1.3320 -0.7978
   44MOL   H13841504   0.416   1.020   6.372 -2.0318 -0.9814 -0.0941
   44MOL   H13941505   0.553   0.926   6.313  0.7643  0.9207  0.5626
   44MOL   H14041506   0.319   0.781   6.455  2.2315 -2.6156  0.9143
   44MOL   H14141507   0.478   0.725   6.410 -1.7375 -1.5069  0.5398
   44MOL   H14241508   0.276   0.856   6.231  0.8808  1.9687  0.2791
   44MOL   H14341509   0.433   0.797   6.179 -0.2582  0.5709 -0.4054
   44MOL   H14441510   0.373   0.570   6.257 -0.4314 -0.8572  0.1557
   44MOL   H14541511   0.284   0.617   6.116 -1.0738  1.8484  0.1832
   44MOL   N14641512   0.146   0.470   6.300  0.8571  0.7860 -0.2188
   44MOL   C14741513   0.033   0.418   6.367 -0.0043 -0.0219 -0.0903
   44MOL   C14841514   0.035   0.269   6.395  0.7748  0.2252  0.0778
   44MOL   C14941515   0.135   0.187   6.342  0.1891  0.6771  0.2288
   44MOL   C15041516   0.128   0.047   6.355  0.1233  0.4248  0.7240
   44MOL   C15141517   0.030   7.769   6.437 -0.6940  0.0319 -0.3649
   44MOL   C15241518   7.723   0.063   6.494 -0.5492  0.1575  0.2793
   44MOL   C15341519   7.721   0.205   6.472 -0.8184  0.0845 -0.3806
   44MOL   C15441520   7.610   0.283   6.543 -0.0116 -0.6509 -0.5952
   44MOL   N15541521   7.529   0.348   6.440  0.3712 -0.3897  0.6925
   44MOL   C15641522   7.468   0.469   6.465  0.6244 -0.1755 -0.5176
   44MOL   O15741523   7.473   0.515   6.578  0.0453 -0.2410 -0.0110
   44MOL   C15841524   7.402   0.536   6.345  0.3964 -0.3498 -0.6389
   44MOL   C15941525   7.371   0.682   6.358 -0.0178 -0.4539 -0.2288
   44MOL   C16041526   7.283   0.728   6.244 -0.1609  0.9554  0.2863
   44MOL   C16141527   7.249   0.880   6.258 -0.4449  0.3226  0.3870
   44MOL   C16241528   7.178   0.929   6.137  0.3549  0.5129 -0.3372
   44MOL   C16341529   7.150   1.079   6.137  0.3817  0.4161 -0.8049
   44MOL   C16441530   7.035   1.136   6.041 -0.1669 -0.5220  0.5656
   44MOL   C16541531   7.049   1.293   6.042 -0.7880  0.8155 -0.1257
   44MOL   C16641532   6.947   1.367   5.963 -0.0986 -0.4674  0.7255
   44MOL   O16741533   6.849   1.308   5.927  0.3551  0.6130  0.7390
   44MOL   H16841534   0.196   0.405   6.240  0.9560  0.5243  0.1483
   44MOL   H16941535   7.730   0.433   6.312  0.3030  1.5970 -0.2028
   44MOL   H17041536   0.018   0.471   6.461 -0.4389 -1.9075  0.9250
   44MOL   H17141537   0.218   0.224   6.284  1.4133  1.7823  2.5995
   44MOL   H17241538   0.215   7.783   6.321  0.1736  1.6313 -1.1175
   44MOL   H17341539   0.035   7.664   6.460 -0.2293 -0.4128 -2.3654
   44MOL   H17441540   7.653   0.014   6.561  0.1627  0.5225  1.3058
   44MOL   H17541541   7.653   0.359   6.608  0.3001 -0.4297 -1.0597
   44MOL   H17641542   7.545   0.219   6.603 -0.2349 -0.2847 -0.4395
   44MOL   H17741543   7.530   0.310   6.347 -0.1461  0.9803  0.1149
   44MOL   H17841544   7.309   0.483   6.323  0.2758 -0.1285 -0.6655
   44MOL   H17941545   7.461   0.513   6.257  1.2033  2.4860 -0.8802
   44MOL   H18041546   7.456   0.744   6.383 -0.6273  0.6986 -0.9804
   44MOL   H18141547   7.318   0.704   6.451 -0.2811  1.2614 -0.7654
   44MOL   H18241548   7.338   0.717   6.150 -1.6461 -0.3967 -0.4623
   44MOL   H18341549   7.195   0.663   6.249 -0.1854  1.1391  2.8342
   44MOL   H18441550   7.191   0.901   6.348 -1.8454 -0.2148 -0.3565
   44MOL   H18541551   7.341   0.937   6.262 -0.4397  0.4254 -0.9101
   44MOL   H18641552   7.235   0.908   6.047  2.0224 -0.0509  0.8162
   44MOL   H18741553   7.089   0.866   6.131  0.8414 -0.2110 -0.0654
   44MOL   H18841554   7.239   1.130   6.101 -0.6327  0.9805 -2.5819
   44MOL   H18941555   7.137   1.122   6.236  1.0653 -1.5769  0.1746
   44MOL   H19041556   7.029   1.100   5.938 -1.9817 -0.7254  0.7353
   44MOL   H19141557   6.937   1.116   6.082 -1.4207  1.0927 -1.5402
   44MOL   H19241558   7.145   1.319   5.998  1.2086 -1.8198  2.5279
   44MOL   H19341559   7.052   1.336   6.142  0.6300 -0.2728  0.3083
   44MOL   N19441560   6.970   1.495   5.931  0.8359 -0.0587 -0.6432
   44MOL   C19541561   6.885   1.579   5.852  0.0941 -0.0884  0.3869
   44MOL   C19641562   6.890   1.554   5.701 -0.5752 -0.5145 -0.4473
   44MOL   C19741563   6.778   1.497   5.630  0.5608 -0.2513  0.4827
   44MOL   C19841564   6.781   1.480   5.491 -0.0785  0.2585 -0.0053
   44MOL   C19941565   6.895   1.514   5.415  0.4111 -0.9307  0.0276
   44MOL   C20041566   7.005   1.564   5.483  0.2042 -0.0919  0.3551
   44MOL   C20141567   7.003   1.589   5.623  0.2578  0.4130  0.7607
   44MOL   C20241568   7.121   1.654   5.682 -0.0851 -0.1153  0.3460
   44MOL   N20341569   7.244   1.569   5.671  0.1205 -0.0916  0.3806
   44MOL   C20441570   7.308   1.536   5.788 -0.3263 -0.4059 -0.7545
   44MOL   O20541571   7.285   1.593   5.899  0.4211 -0.2570 -0.2032
   44MOL   C20641572   7.418   1.431   5.774  0.0338 -0.4713  0.1994
   44MOL   C20741573   7.374   1.293   5.730  0.1730 -0.0537 -0.4795
   44MOL   C20841574   7.359   1.279   5.575 -0.1723 -0.3071 -0.2833
   44MOL   C20941575   7.348   1.141   5.528 -0.0629 -0.5576 -0.0883
   44MOL   C21041576   7.318   1.141   5.374 -0.3672 -0.0802  0.2534
   44MOL   C21141577   7.430   1.196   5.295 -0.1724  0.5605 -0.0816
   44MOL   C21241578   7.429   1.151   5.155 -0.2667 -0.0380  0.2453
   44MOL   C21341579   7.559   1.195   5.090 -0.0506 -0.1426  1.0591
   44MOL   C21441580   7.569   1.136   4.946  0.4087  0.2276 -0.3243
   44MOL   O21541581   7.546   1.016   4.934  0.2021  0.4110  0.5021
   44MOL   H21641582   7.053   1.547   5.957 -0.1047  0.1233  2.1785
   44MOL   H21741583   6.785   1.552   5.886 -0.2589  0.2162 -0.3877
   44MOL   H21841584   6.895   1.683   5.882 -0.4394  0.1187 -0.1492
   44MOL   H21941585   6.688   1.476   5.685  0.2558  1.5266  0.6837
   44MOL   H22041586   6.696   1.432   5.445  0.0441 -0.2924  0.3331
   44MOL   H22141587   6.890   1.512   5.307 -0.9473  0.3081  0.0459
   44MOL   H22241588   7.094   1.592   5.429  1.9103 -1.1519  2.5379
   44MOL   H22341589   7.100   1.710   5.772 -2.1747  1.9682 -1.3690
   44MOL   H22441590   7.147   1.729   5.607 -1.3479 -2.0650 -2.1256
   44MOL   H22541591   7.278   1.539   5.581  0.7883  0.7018  0.3598
   44MOL   H22641592   7.484   1.428   5.861 -0.4188 -0.6293  0.5376
   44MOL   H22741593   7.473   1.487   5.699 -0.6407 -1.4860 -1.0728
   44MOL   H22841594   7.443   1.225   5.780 -0.8485 -0.4625  0.3843
   44MOL   H22941595   7.279   1.272   5.779  0.8715 -1.6064  0.2477
   44MOL   H23041596   7.270   1.333   5.542 -0.5678 -0.5217  0.3978
   44MOL   H23141597   7.441   1.326   5.522  0.3698 -0.1717  0.6628
   44MOL   H23241598   7.441   1.089   5.548  1.6899  1.2303 -3.3339
   44MOL   H23341599   7.269   1.085   5.579 -0.0434 -1.0156 -0.5585
   44MOL   H23441600   7.293   1.042   5.334 -2.3130  0.1208  0.9004
   44MOL   H23541601   7.235   1.202   5.339 -0.0659 -0.6609 -1.5210
   44MOL   H23641602   7.528   1.169   5.334  1.5703  1.4485 -3.5804
   44MOL   H23741603   7.421   1.305   5.299 -2.0909  0.3727  1.6806
   44MOL   H23841604   7.357   1.202   5.092 -0.7815 -1.9184 -0.7390
   44MOL   H23941605   7.419   1.043   5.142 -1.4251  0.2646 -1.5518
   44MOL   H24041606   7.562   1.303   5.078 -0.0109 -0.3774 -1.4814
   44MOL   H24141607   7.651   1.162   5.138  1.4397  0.8699 -1.0022
   44MOL   N24241608   7.607   1.212   4.843  0.4431 -0.0294 -0.6224
   44MOL   C24341609   7.626   1.160   4.709 -0.0162 -0.3892 -0.1412
   44MOL   C24441610   7.548   1.250   4.614 -0.2600 -0.0100 -0.5980
   44MOL   C24541611   7.405   1.250   4.616 -0.0246 -1.0215 -0.6298
   44MOL   C24641612   7.333   1.343   4.531 -0.7680  0.3389  0.4740
   44MOL   C24741613   7.409   1.431   4.450  0.3182 -0.7676 -0.2196
   44MOL   C24841614   7.548   1.431   4.454 -0.4731  0.0540  0.3922
   44MOL   C24941615   7.621   1.337   4.533 -0.7769 -0.7912 -0.1114
   44MOL   C25041616   7.777   1.343   4.537 -0.3069 -0.2736 -0.2487
   44MOL   N25141617   0.039   1.408   4.662  0.6042 -0.5238 -0.0852
   44MOL   C25241618   0.172   1.400   4.679 -0.0029  0.5483 -0.2699
   44MOL   O25341619   0.245   1.352   4.587  0.1552 -0.3552 -0.3215
   44MOL   C25441620   0.223   1.445   4.813  0.4601 -0.3008 -0.6003
   44MOL   C25541621   0.304   1.573   4.801 -0.3247 -0.0585 -0.4640
   44MOL   C25641622   0.257   1.683   4.697 -0.1224  0.5117  0.1767
   44MOL   C25741623   0.348   1.805   4.722  0.4653  0.1116  0.1254
   44MOL   C25841624   0.346   1.920   4.617  0.1262  0.3916  0.2759
   44MOL   C25941625   0.427   1.899   4.483 -0.2457 -0.3481 -0.6634
   44MOL   C26041626   0.428   2.018   4.387  0.2464  0.1836 -0.1821
   44MOL   C26141627   0.519   2.130   4.427 -0.6835 -0.7291 -0.3656
   44MOL   C26241628   0.493   2.253   4.342  0.5847  0.9563 -0.3977
   44MOL   O26341629   0.545   2.269   4.236  0.0584 -0.0093 -0.2696
   44MOL   H26441630   7.635   1.305   4.872 -0.6218 -1.3510  5.2881
   44MOL   H26541631   7.732   1.153   4.685  0.0047 -0.2806 -0.0772
   44MOL   H26641632   7.588   1.059   4.690 -1.3717  0.2797 -1.0885
   44MOL   H26741633   7.346   1.185   4.679  0.4662 -0.6728  0.2098
   44MOL   H26841634   7.226   1.342   4.517 -0.7234 -1.0931  0.1360
   44MOL   H26941635   7.365   1.499   4.378 -1.1720 -0.5674  0.8466
   44MOL   H27041636   7.600   1.494   4.383 -1.4401 -2.0356 -2.2624
   44MOL   H27141637   0.001   1.418   4.459  1.5260 -0.0685  0.2589
   44MOL   H27241638   0.035   1.257   4.491 -1.1820 -0.0567 -1.6012
   44MOL   H27341639   7.774   1.431   4.744 -1.3109  1.0027 -1.7556
   44MOL   H27441640   0.261   1.374   4.886  1.1795  0.0727 -0.6085
   44MOL   H27541641   0.138   1.482   4.871 -0.0464 -1.5814 -0.5168
   44MOL   H27641642   0.408   1.543   4.789  0.1148  0.5970  1.5377
   44MOL   H27741643   0.313   1.620   4.899  3.2629  0.9604 -1.1892
   44MOL   H27841644   0.151   1.706   4.713  0.0671  0.9389  0.7852
   44MOL   H27941645   0.272   1.654   4.593  1.1967  0.0571  0.4929
   44MOL   H28041646   0.308   1.852   4.812 -1.5790 -0.2757 -0.5552
   44MOL   H28141647   0.447   1.778   4.757  0.1793 -1.2186 -0.0752
   44MOL   H28241648   0.249   1.954   4.583  1.3722  0.6462 -3.2212
   44MOL   H28341649   0.388   2.008   4.666  1.8806  0.7023 -1.7042
   44MOL   H28441650   0.409   1.802   4.437 -1.0362  0.1527 -1.4207
   44MOL   H28541651   0.530   1.886   4.515 -1.1530  1.8908  3.6071
   44MOL   H28641652   0.459   1.982   4.289 -3.4817 -4.1137  0.0248
   44MOL   H28741653   0.326   2.053   4.370 -0.0111 -0.6056 -0.3048
   44MOL   H28841654   0.505   2.165   4.529 -0.1396 -0.7323 -0.2893
   44MOL   H28941655   0.617   2.083   4.414 -0.6416 -1.2502  1.5809
   44MOL   N29041656   0.430   2.356   4.395 -0.8098  0.2194  0.0128
   44MOL   C29141657   0.426   2.495   4.351 -0.3451 -0.2815  0.2882
   44MOL   C29241658   0.324   2.537   4.238 -0.4732  0.5202  0.7568
   44MOL   C29341659   0.227   2.440   4.192 -0.4885  0.4822 -0.6953
   44MOL   C29441660   0.134   2.468   4.094  0.8889 -0.2494  0.2397
   44MOL   C29541661   0.121   2.599   4.044  0.3299  0.9301  0.0207
   44MOL   C29641662   0.208   2.699   4.093  0.3574  0.1857 -0.0022
   44MOL   C29741663   0.310   2.666   4.186 -0.2426  0.1568 -0.1503
   44MOL   C29841664   0.412   2.770   4.218  0.2922 -0.5403  0.0323
   44MOL   N29941665   0.372   2.860   4.331  0.3448 -0.1264  0.6308
   44MOL   C30041666   0.447   2.892   4.444  0.4762 -0.7021  0.1113
   44MOL   O30141667   0.569   2.870   4.445  0.0499 -0.9192  0.4728
   44MOL   C30241668   0.372   2.958   4.562 -0.1262 -0.5563  0.2397
   44MOL   C30341669   0.463   3.048   4.642  0.3856 -0.5758  0.1153
   44MOL   C30441670   0.493   3.175   4.564  0.2173  0.7447 -0.1771
   44MOL   C30541671   0.588   3.270   4.628 -0.9090 -0.0122 -0.5489
   44MOL   C30641672   0.634   3.385   4.529 -0.8270  0.1827 -0.8281
   44MOL   C30741673   0.525   3.453   4.454 -0.2537 -0.0974 -0.5229
   44MOL   C30841674   0.554   3.599   4.398  0.5787  0.3970  0.8000
   44MOL   C30941675   0.444   3.666   4.318  0.1476 -0.3466 -0.2657
   44MOL   C31041676   0.386   3.572   4.216  0.0708 -0.2653  0.2432
   44MOL   O31141677   0.275   3.515   4.236 -0.2651 -0.4105  0.5351
   44MOL   H31241678   0.378   2.336   4.479 -0.7887  1.1975  0.2609
   44MOL   H31341679   0.392   2.554   4.436  0.7257 -0.7069  1.0187
   44MOL   H31441680   0.523   2.544   4.343  0.0076 -1.1352 -0.9136
   44MOL   H31541681   0.214   2.338   4.225 -0.2963  0.7842  0.3367
   44MOL   H31641682   0.072   2.389   4.053  0.6670  0.5585 -0.9937
   44MOL   H31741683   0.049   2.622   3.967 -1.2272  0.8482  1.4390
   44MOL   H31841684   0.197   2.797   4.049 -2.9118 -0.5077 -0.8643
   44MOL   H31941685   0.444   2.834   4.135 -1.4437 -1.3282 -1.2786
   44MOL   H32041686   0.509   2.727   4.240 -0.1185 -0.7612  1.4561
   44MOL   H32141687   0.273   2.879   4.338  0.5380  1.0669  0.2207
   44MOL   H32241688   0.282   3.002   4.522  0.4958  2.1176  1.6869
   44MOL   H32341689   0.345   2.881   4.634 -0.2023  1.0954  2.0046
   44MOL   H32441690   0.555   2.992   4.662  1.5922  1.0817 -0.6523
   44MOL   H32541691   0.413   3.060   4.738 -0.4087 -0.7303 -0.2814
   44MOL   H32641692   0.398   3.228   4.551 -1.5816 -1.7503  2.2811
   44MOL   H32741693   0.521   3.146   4.463 -0.9317  2.9941 -1.1956
   44MOL   H32841694   0.535   3.310   4.715 -1.1015 -0.5039 -0.4371
   44MOL   H32941695   0.671   3.210   4.666 -1.5906 -0.8867 -0.4169
   44MOL   H33041696   0.675   3.467   4.589  0.5415 -0.7378 -0.4903
   44MOL   H33141697   0.719   3.354   4.469 -1.8905 -4.5206 -0.0831
   44MOL   H33241698   0.439   3.469   4.519 -1.4955 -0.4283 -2.0603
   44MOL   H33341699   0.495   3.386   4.373  3.1853 -0.8243 -1.2889
   44MOL   H33441700   0.588   3.667   4.476 -0.0058  1.2124  0.3558
   44MOL   H33541701   0.644   3.575   4.341  0.0039  1.1521 -0.4426
   44MOL   H33641702   0.365   3.701   4.385 -0.1240 -0.1173 -0.7032
   44MOL   H33741703   0.477   3.758   4.269  0.8616 -0.3461  0.2187
   44MOL   N33841704   0.459   3.553   4.110  0.0627 -0.1620  0.6866
   44MOL   C33941705   0.445   3.449   4.007  0.3595 -0.0908 -0.3890
   44MOL   C34041706   0.506   3.321   4.049  0.1152  0.2327  0.0677
   44MOL   C34141707   0.600   3.314   4.153 -0.2551 -0.1344  0.2427
   44MOL   C34241708   0.646   3.193   4.195 -0.2039 -0.1275 -0.2344
   44MOL   C34341709   0.606   3.072   4.137  0.2457 -0.3782  0.0505
   44MOL   C34441710   0.527   3.074   4.024 -0.1603  0.5336  0.3607
   44MOL   C34541711   0.476   3.201   3.979 -0.1195 -0.3180  0.1238
   44MOL   C34641712   0.384   3.203   3.855  0.6478 -0.1195  0.4027
   44MOL   N34741713   0.250   3.149   3.902 -0.0400  0.1423  0.0359
   44MOL   C34841714   0.132   3.196   3.859 -0.4872 -0.0286 -0.3584
   44MOL   O34941715   0.119   3.270   3.759 -0.6270 -0.1524 -0.3271
   44MOL   C35041716   0.004   3.119   3.915  0.3442  0.2542 -0.0300
   44MOL   C35141717   7.741   3.168   4.051  0.5245  0.4488  0.6221
   44MOL   C35241718   0.049   3.144   4.169  0.1793  0.4423  0.3078
   44MOL   C35341719   7.781   3.177   4.306 -0.1760 -0.1749 -0.2588
   44MOL   C35441720   0.101   3.224   4.406 -0.3165 -0.0090 -0.6349
   44MOL   C35541721   0.049   3.219   4.552  0.7471 -0.1288 -0.2018
   44MOL   C35641722   0.129   3.307   4.654  0.8028 -0.3871 -0.2079
   44MOL   C35741723   0.042   3.325   4.782  0.6875  0.1196  0.0906
   44MOL   C35841724   0.102   3.428   4.884  0.2273 -0.5521 -0.4004
   44MOL   O35941725   0.187   3.504   4.847 -0.4468  0.4041 -0.1075
   44MOL   H36041726   0.523   3.629   4.092 -1.0128  0.4904 -0.4561
   44MOL   H36141727   0.343   3.429   3.973 -0.0703  0.5204  0.5360
   44MOL   H36241728   0.503   3.472   3.918 -1.7805  3.1599 -1.0575
   44MOL   H36341729   0.645   3.405   4.190  0.6174 -0.4255 -0.0945
   44MOL   H36441730   0.724   3.190   4.269 -0.3544 -0.1682 -0.0782
   44MOL   H36541731   0.635   2.977   4.181  0.5049 -1.5613 -2.5845
   44MOL   H36641732   0.490   2.978   3.990 -0.8646  1.6003 -1.9893
   44MOL   H36741733   0.428   3.133   3.784  0.7128  0.4151 -0.0866
   44MOL   H36841734   0.374   3.299   3.804 -0.8371 -0.6673 -0.3591
   44MOL   H36941735   0.264   3.096   3.986  1.0249 -0.3609 -0.4510
   44MOL   H37041736   0.006   3.011   3.907 -2.0371  0.1270  0.8452
   44MOL   H37141737   7.716   3.156   3.849  0.1985 -0.3201 -0.1763
   44MOL   H37241738   7.646   3.117   4.066  1.2178 -1.0155  0.1282
   44MOL   H37341739   7.718   3.275   4.044  1.0194  0.4740 -0.8112
   44MOL   H37441740   0.084   3.042   4.155  0.1720  0.6352 -1.1506
   44MOL   H37541741   0.136   3.207   4.155 -0.0562  0.9078  0.9156
   44MOL   H37641742   7.734   3.087   4.346  1.3700 -0.2932  1.3597
   44MOL   H37741743   7.704   3.255   4.302 -1.0242 -0.9321  0.9655
   44MOL   H37841744   0.194   3.168   4.395 -1.2282 -1.5107 -0.8686
   44MOL   H37941745   0.144   3.321   4.382  1.9342 -1.6257 -3.4490
   44MOL   H38041746   0.043   3.114   4.580  0.9060 -0.3169 -0.8638
   44MOL   H38141747   7.733   3.243   4.558  0.9090  0.7611 -0.7474
   44MOL   H38241748   0.225   3.261   4.677 -0.8043 -2.6721  2.2535
   44MOL   H38341749   0.154   3.403   4.610 -1.2309  0.3058  0.0905
   44MOL   H38441750   0.014   3.232   4.830 -1.0237  0.1669 -0.7492
   44MOL   H38541751   7.741   3.381   4.756 -1.1092 -1.6722  2.3027
   44MOL   N38641752   0.050   3.429   5.009  1.0661 -0.2285  0.1002
   44MOL   C38741753   0.103   3.501   5.112 -0.6865 -0.4382 -0.0279
   44MOL   C38841754   0.060   3.644   5.129 -0.0951  0.0389  0.1908
   44MOL   C38941755   0.158   3.743   5.105 -0.4649 -0.2627  0.1529
   44MOL   C39041756   0.133   3.881   5.124 -0.2837  0.4791  0.4447
   44MOL   C39141757   0.009   3.924   5.172 -0.3481  0.1067  0.1370
   44MOL   C39241758   7.697   3.832   5.189  0.3076  1.1674 -0.3998
   44MOL   C39341759   7.720   3.690   5.172 -1.0069  0.4206 -0.0205
   44MOL   C39441760   7.608   3.591   5.200 -0.1308 -0.0864 -0.0262
   44MOL   N39541761   7.482   3.641   5.257 -0.0524 -0.3598 -0.2257
   44MOL   C39641762   7.359   3.631   5.201  0.3297  1.0017  0.4386
   44MOL   O39741763   7.342   3.568   5.096  0.4131  0.5922 -0.0061
   44MOL   C39841764   7.242   3.695   5.271  0.2416  0.4583  0.0630
   44MOL   C39941765   7.184   3.608   5.388  0.3406 -0.5448 -0.3716
   44MOL   C40041766   7.048   3.651   5.447  0.3210  0.5493 -0.5196
   44MOL   C40141767   7.015   3.575   5.580  0.1890  0.2096 -0.1997
   44MOL   C40241768   6.873   3.573   5.637  0.3169 -0.0964 -0.2170
   44MOL   C40341769   6.819   3.701   5.683 -0.0513 -0.7021 -0.4520
   44MOL   C40441770   6.694   3.690   5.765  0.6956 -0.3257  0.2124
   44MOL   C40541771   6.654   3.824   5.827  0.3193  0.0823  0.0540
   44MOL   C40641772   6.688   3.836   5.971  0.2928 -0.2762  0.1236
   44MOL   O40741773   6.806   3.835   6.006  0.6317 -0.0234 -0.2521
   44MOL   H40841774   7.763   3.370   5.039  0.1162  2.1500  2.5050
   44MOL   H40941775   0.060   3.459   5.203 -0.6676 -1.3801 -0.4407
   44MOL   H41041776   0.212   3.501   5.116 -0.6727 -1.0779 -0.2296
   44MOL   H41141777   0.252   3.709   5.065 -0.1345 -0.4247  1.0451
   44MOL   H41241778   0.200   3.963   5.100 -1.0367  1.2654  0.9942
   44MOL   H41341779   7.770   4.023   5.204 -1.3074 -0.7545  1.9844
   44MOL   H41441780   7.600   3.868   5.219  0.2819 -0.2926  1.3323
   44MOL   H41541781   7.648   3.523   5.276 -2.3046 -2.6368 -1.0780
   44MOL   H41641782   7.594   3.534   5.108 -0.6331 -0.9032  0.5501
   44MOL   H41741783   7.486   3.685   5.348  0.0591  0.1514 -0.4738
   44MOL   H41841784   7.261   3.797   5.304 -0.2516  1.1474 -1.7228
   44MOL   H41941785   7.160   3.705   5.200  1.4913  2.4567 -1.1596
   44MOL   H42041786   7.258   3.606   5.468  0.6506  0.1103 -0.6386
   44MOL   H42141787   7.181   3.508   5.345  1.1478 -0.3520 -0.8848
   44MOL   H42241788   6.968   3.622   5.380  0.4743 -1.7094  0.2398
   44MOL   H42341789   7.046   3.758   5.466 -2.4693  0.3463  0.6075
   44MOL   H42441790   7.050   3.472   5.569  1.0576  0.6387 -1.5972
   44MOL   H42541791   7.074   3.627   5.655  0.8938  1.0101 -1.2831
   44MOL   H42641792   6.818   3.547   5.547 -1.2873 -1.3202  1.0749
   44MOL   H42741793   6.867   3.494   5.713  1.2757 -0.7499 -0.8000
   44MOL   H42841794   6.812   3.766   5.596  3.4367  2.0958  1.2072
   44MOL   H42941795   6.892   3.754   5.745 -2.9284  2.8426  0.0358
   44MOL   H43041796   6.711   3.609   5.836 -0.6021 -0.6921  0.1237
   44MOL   H43141797   6.621   3.657   5.691  0.0805 -0.1561  0.7381
   44MOL   H43241798   6.546   3.835   5.815  0.4403  1.3426  0.0680
   44MOL   H43341799   6.707   3.908   5.782  3.6539 -1.1591  1.4530
   44MOL   N43441800   6.586   3.850   6.056 -0.4550 -0.0682 -0.4039
   44MOL   C43541801   6.601   3.831   6.205 -0.6005 -0.2908  0.6293
   44MOL   C43641802   6.471   3.797   6.267  0.4295 -0.2533  0.4473
   44MOL   C43741803   6.408   3.891   6.351  1.2308 -0.1575  0.9413
   44MOL   C43841804   6.281   3.871   6.408  0.2456  0.4009  0.5101
   44MOL   C43941805   6.219   3.746   6.404 -0.8133 -0.1376 -0.3202
   44MOL   C44041806   6.277   3.653   6.314 -0.2768  0.2605  0.0039
   44MOL   C44141807   6.403   3.673   6.249 -0.1234 -0.3342  0.3845
   44MOL   C44241808   6.469   3.555   6.184 -0.0380  0.1011 -0.0135
   44MOL   N44341809   6.609   3.526   6.228  0.8686  0.3273  0.0236
   44MOL   C44441810   6.703   3.494   6.143 -0.0430 -0.7338  0.4026
   44MOL   O44541811   6.680   3.452   6.036  0.2706  0.5155 -0.4260
   44MOL   C44641812   6.851   3.512   6.187  0.8742 -1.2109 -0.4849
   44MOL   C44741813   6.936   3.392   6.162 -0.3645 -0.3634 -0.5944
   44MOL   C44841814   7.001   3.392   6.021 -0.2483 -0.0267  0.8581
   44MOL   C44941815   7.073   3.263   5.990 -0.0133  0.2544 -0.0324
   44MOL   C45041816   7.171   3.283   5.866  0.1479 -0.3888 -0.1387
   44MOL   C45141817   7.233   3.143   5.819 -0.1543  0.2234  0.3503
   44MOL   C45241818   7.320   3.156   5.693  0.2302 -1.2641  0.6469
   44MOL   C45341819   7.256   3.204   5.563 -0.2612 -0.4185  0.2596
   44MOL   C45441820   7.143   3.129   5.509  0.0449 -0.5329 -0.3315
   44MOL   O45541821   7.164   3.053   5.411  0.2603 -0.0210 -0.1486
   44MOL   H45641822   6.490   3.847   6.025 -0.8449  0.6132  0.7224
   44MOL   H45741823   6.625   3.925   6.256  1.8497 -0.2122 -0.6060
   44MOL   H45841824   6.683   3.771   6.243 -1.6700 -0.8742  2.0397
   44MOL   H45941825   6.452   3.986   6.379  0.6246  0.1021  1.0198
   44MOL   H46041826   6.230   3.943   6.469 -1.8240 -0.7493  0.1765
   44MOL   H46141827   6.131   3.721   6.460 -0.8014  1.3368  0.3852
   44MOL   H46241828   6.222   3.560   6.304  0.2622  0.0675 -1.2557
   44MOL   H46341829   6.470   3.566   6.076  2.3364  2.3215  0.1823
   44MOL   H46441830   6.416   3.463   6.209 -0.8492  0.7669  0.7911
   44MOL   H46541831   6.639   3.555   6.320  0.8617 -0.4721  0.2827
   44MOL   H46641832   6.852   3.537   6.293 -1.6487  1.4184 -1.0116
   44MOL   H46741833   6.898   3.598   6.138  0.3971 -0.7985 -0.2225
   44MOL   H46841834   6.895   3.294   6.188  1.3454 -1.0187 -0.2870
   44MOL   H46941835   7.022   3.399   6.229 -0.4747  2.1227 -0.6768
   44MOL   H47041836   6.925   3.401   5.943  0.1649 -0.3908  0.4095
   44MOL   H47141837   7.061   3.482   6.006 -1.8599  1.5601  3.5754
   44MOL   H47241838   7.140   3.230   6.069  1.0804 -1.6523 -1.7075
   44MOL   H47341839   7.008   3.177   5.972  0.6294  0.3462 -3.0184
   44MOL   H47441840   7.127   3.334   5.781 -1.1621  2.1184  1.9810
   44MOL   H47541841   7.249   3.346   5.909  0.5556 -0.9183 -0.0802
   44MOL   H47641842   7.146   3.082   5.796 -0.3046  0.6256 -0.1389
   44MOL   H47741843   7.300   3.097   5.893 -0.5454  0.1334  0.6489
   44MOL   H47841844   7.404   3.220   5.720 -1.2251  0.4629  1.2580
   44MOL   H47941845   7.361   3.055   5.689 -1.0712 -1.7899  0.3248
   44MOL   H48041846   7.218   3.307   5.569  0.5520  0.0573 -2.2746
   44MOL   H48141847   7.339   3.199   5.493 -0.0899 -1.3303  0.5351
   44MOL   N48241848   7.020   3.139   5.564 -0.4590 -0.0859 -0.3487
   44MOL   C48341849   6.910   3.045   5.565  0.4761 -0.6956  0.5352
   44MOL   C48441850   6.891   2.988   5.704  0.1603 -0.4890  0.1566
   44MOL   C48541851   6.963   2.874   5.740  1.1406  0.2491 -0.0716
   44MOL   C48641852   6.961   2.819   5.868 -0.2223  0.2591 -0.4544
   44MOL   C48741853   6.865   2.880   5.955  0.0471 -0.7377  0.6486
   44MOL   C48841854   6.783   2.988   5.921  0.3025 -0.6644 -0.7377
   44MOL   C48941855   6.798   3.048   5.791 -0.2650  0.2853 -0.3019
   44MOL   C49041856   6.706   3.159   5.739 -0.2302  1.2066 -0.0068
   44MOL   N49141857   6.616   3.213   5.835  0.3521 -0.2343 -0.1352
   44MOL   C49241858   6.482   3.208   5.832 -0.2135 -1.2432  0.6782
   44MOL   O49341859   6.418   3.145   5.749  0.8104  0.3392  0.0090
   44MOL   C49441860   6.397   3.288   5.933 -0.0993 -0.3970  0.5302
   44MOL   C49541861   6.308   3.394   5.864 -0.2419 -0.4682  0.6927
   44MOL   C49641862   6.372   3.507   5.784 -0.3063  0.1885  0.1692
   44MOL   C49741863   6.267   3.596   5.717 -0.0163 -0.3160 -0.3554
   44MOL   C49841864   6.315   3.714   5.635 -0.6625 -0.1316 -0.0700
   44MOL   C49941865   6.208   3.762   5.538 -0.0204  0.5535 -0.0488
   44MOL   C50041866   6.250   3.890   5.466  0.1470 -0.4288  0.1597
   44MOL   C50141867   6.135   3.929   5.368  0.6812  0.6373 -0.1877
   44MOL   C50241868   6.000   3.967   5.428  0.0570  0.7987 -0.1458
   44MOL   O50341869   5.979   3.992   5.549  0.3865  0.4676  0.3654
   44MOL   H50441870   7.015   3.209   5.637  0.4157  0.4706 -0.8059
   44MOL   H50541871   6.818   3.069   5.512  0.9251  2.4970  1.1248
   44MOL   H50641872   6.935   2.963   5.498  0.4499  1.2976 -2.0144
   44MOL   H50741873   7.011   2.823   5.658 -0.2202  1.0719 -1.4061
   44MOL   H50841874   7.015   2.731   5.899 -0.6497  0.7511  1.8083
   44MOL   H50941875   6.855   2.839   6.055  2.0426 -0.3538  1.0209
   44MOL   H51041876   6.711   3.016   5.995  2.0697 -1.5242  1.3836
   44MOL   H51141877   6.658   3.121   5.649  1.4103  0.2326 -0.5114
   44MOL   H51241878   6.764   3.246   5.710  2.0601  0.4128  1.9560
   44MOL   H51341879   6.657   3.276   5.903  1.1707  0.7366 -1.4951
   44MOL   H51441880   6.466   3.340   5.999 -2.2125  0.7791  1.8756
   44MOL   H51541881   6.332   3.221   5.989 -1.4209  0.7697  0.4366
   44MOL   H51641882   6.246   3.444   5.938 -0.2782 -1.3024  1.2237
   44MOL   H51741883   6.239   3.344   5.796  2.8675 -0.5497 -2.5924
   44MOL   H51841884   6.426   3.580   5.844  0.2360 -0.5373  0.5777
   44MOL   H51941885   6.442   3.470   5.709 -2.0651 -2.3450 -0.2981
   44MOL   H52041886   6.194   3.539   5.659 -0.9680 -1.0323  1.4863
   44MOL   H52141887   6.206   3.631   5.801 -0.4692 -0.5297 -0.5923
   44MOL   H52241888   6.328   3.797   5.705  2.1966 -0.0907 -0.5820
   44MOL   H52341889   6.403   3.684   5.578 -1.0361 -1.2288 -0.0748
   44MOL   H52441890   6.113   3.782   5.588 -0.1885  1.9382 -0.9174
   44MOL   H52541891   6.198   3.687   5.460 -1.5853  0.6021  0.0862
   44MOL   H52641892   6.265   3.974   5.533  0.1959  0.4850 -0.9932
   44MOL   H52741893   6.342   3.886   5.407  0.1797  0.8413  0.1115
   44MOL   H52841894   6.126   3.852   5.291 -0.2556 -0.9168  1.4219
   44MOL   H52941895   6.154   4.025   5.319  0.5967 -0.3003 -2.1277
   44MOL   N53041896   5.898   3.970   5.334 -0.1418 -0.1665  0.1761
   44MOL   C53141897   5.760   4.004   5.372 -0.4077 -0.0213 -0.3766
   44MOL   C53241898   5.678   4.030   5.255 -0.3413 -0.1188 -0.4873
   44MOL   C53341899   5.666   4.167   5.219 -0.0685  0.1822  0.8287
   44MOL   C53441900   5.604   4.203   5.094 -0.6509  0.5813  0.2681
   44MOL   C53541901   5.551   4.101   5.013  0.5704  0.2782  0.2522
   44MOL   C53641902   5.560   3.964   5.051  0.2620 -0.2102 -0.3677
   44MOL   C53741903   5.634   3.931   5.165  0.3530 -0.3781 -0.4881
   44MOL   C53841904   5.651   3.788   5.199 -0.2381 -0.9573  0.2773
   44MOL   N53941905   5.777   3.742   5.148 -0.2353 -0.2989 -0.2940
   44MOL   C54041906   5.828   3.624   5.164  0.1188  0.4679 -0.2083
   44MOL   O54141907   5.782   3.530   5.229 -0.3142 -0.4400  0.2833
   44MOL   C54241908   5.968   3.612   5.098 -0.2192  0.1204 -0.0997
   44MOL   C54341909   6.071   3.564   5.208 -0.3875 -1.0534 -0.1595
   44MOL   C54441910   6.214   3.555   5.151 -0.3563 -0.4851  0.5128
   44MOL   C54541911   6.301   3.435   5.175  0.0118 -0.4424  1.1140
   44MOL   C54641912   6.242   3.312   5.109 -0.1061 -0.9609  0.7127
   44MOL   C54741913   6.194   3.313   4.969 -0.2881  0.2443  0.1416
   44MOL   C54841914   6.181   3.162   4.930  0.5657  0.2546  0.5907
   44MOL   C54941915   6.188   3.144   4.776 -0.0494 -0.3566 -0.2945
   44MOL   C55041916   6.054   3.156   4.705  0.6414  1.0526  0.7053
   44MOL   O55141917   5.990   3.054   4.684 -0.0489  0.1744  0.4326
   44MOL   H55241918   5.901   3.938   5.238  1.2375 -1.0867  0.4968
   44MOL   H55341919   5.762   4.096   5.429 -1.4507  0.5410 -1.2174
   44MOL   H55441920   5.716   3.929   5.438  1.6664 -1.4935 -0.6297
   44MOL   H55541921   5.700   4.252   5.277 -2.0419  0.2336  1.9419
   44MOL   H55641922   5.604   4.301   5.048  0.5554  0.2550 -0.4702
   44MOL   H55741923   5.505   4.130   4.920  2.1314  0.9016 -0.3561
   44MOL   H55841924   5.516   3.891   4.985 -1.0629 -0.4232  0.7382
   44MOL   H55941925   5.568   3.734   5.153 -1.0149  1.1897 -0.8944
   44MOL   H56041926   5.623   3.766   5.303  1.6230 -0.5509  0.8756
   44MOL   H56141927   5.837   3.799   5.089 -0.9100 -0.3696 -1.0611
   44MOL   H56241928   5.990   3.705   5.045 -0.4706  0.8049  0.9866
   44MOL   H56341929   5.957   3.540   5.016  1.0905  1.2739 -1.3153
   44MOL   H56441930   6.036   3.464   5.235 -0.4017 -1.3562 -1.2967
   44MOL   H56541931   6.067   3.630   5.295 -2.3659  1.1756 -1.8841
   44MOL   H56641932   6.217   3.566   5.043 -0.9090  1.3879  0.6677
   44MOL   H56741933   6.269   3.642   5.188 -0.1989 -0.1756 -0.4405
   44MOL   H56841934   6.398   3.464   5.133 -1.0978  0.9651 -0.5202
   44MOL   H56941935   6.327   3.425   5.280 -0.0170  0.7573  1.2442
   44MOL   H57041936   6.317   3.235   5.127  0.7647 -1.2610 -3.6709
   44MOL   H57141937   6.158   3.278   5.169  0.5647 -2.7338  0.6804
   44MOL   H57241938   6.273   3.367   4.915 -1.0420 -1.6407 -2.9910
   44MOL   H57341939   6.104   3.371   4.953 -1.0955 -0.9176  0.4350
   44MOL   H57441940   6.258   3.091   4.959  1.5878  1.1425  0.0925
   44MOL   H57541941   6.092   3.115   4.972 -0.3960  0.0930 -1.5504
   44MOL   H57641942   6.228   3.046   4.751 -0.2711 -0.1160 -1.6722
   44MOL   H57741943   6.248   3.219   4.724  1.2195 -0.6270  0.7514
   44MOL   N57841944   6.024   3.278   4.656 -0.2480 -0.1208 -0.2420
   44MOL   C57941945   5.891   3.310   4.594  0.0577  0.2441 -0.0289
   44MOL   C58041946   5.829   3.405   4.691 -0.3465 -0.5392  0.0803
   44MOL   C58141947   5.834   3.545   4.666 -0.6176 -0.3616 -0.0046
   44MOL   C58241948   5.760   3.629   4.747 -0.4715 -0.7400 -0.7496
   44MOL   C58341949   5.683   3.590   4.857  0.0912  0.4868  0.2869
   44MOL   C58441950   5.694   3.455   4.896 -1.2429  0.0163 -0.7113
   44MOL   C58541951   5.759   3.362   4.811  1.3849 -0.0437  0.1105
   44MOL   C58641952   5.754   3.217   4.859  0.8979  0.1393 -0.0609
   44MOL   N58741953   5.804   3.222   4.998 -0.2745  0.4591 -0.6130
   44MOL   C58841954   5.739   3.169   5.103 -0.3996 -0.3593 -0.0336
   44MOL   O58941955   5.654   3.086   5.085  0.2750  0.2249  0.5762
   44MOL   C59041956   5.784   3.207   5.244 -0.3063  0.5757  0.0152
   44MOL   C59141957   5.755   3.093   5.351  0.1412 -0.2867  0.3608
   44MOL   C59241958   5.844   2.970   5.322 -0.2493 -0.4667  0.0363
   44MOL   C59341959   5.847   2.869   5.428  0.3494 -0.0987 -0.6239
   44MOL   C59441960   5.917   2.745   5.383  0.4766 -0.8544 -0.6089
   44MOL   C59541961   5.931   2.653   5.502 -1.0009 -1.1277 -0.3930
   44MOL   C59641962   6.015   2.533   5.465 -0.9801  0.1043  1.1444
   44MOL   C59741963   6.010   2.420   5.563 -0.2283  0.4980 -0.9300
   44MOL   C59841964   5.871   2.359   5.593  0.2877 -0.4514 -0.2380
   44MOL   O59941965   5.782   2.336   5.509 -0.2215  0.2337 -0.1491
   44MOL   H60041966   6.088   3.351   4.683 -0.2932 -0.1956  0.0673
   44MOL   H60141967   5.824   3.227   4.572  1.5823 -1.9366  3.2446
   44MOL   H60241968   5.918   3.356   4.498 -0.2810  0.0745 -0.2085
   44MOL   H60341969   5.891   3.579   4.581  0.0467  0.4517  0.7541
   44MOL   H60441970   5.761   3.735   4.728 -1.0063 -0.4282  0.8776
   44MOL   H60541971   5.614   3.659   4.904  0.7863 -0.4682  2.8203
   44MOL   H60641972   5.649   3.411   4.984  1.9399 -0.3442  0.8236
   44MOL   H60741973   5.802   3.144   4.794 -0.4705 -1.2094  0.4166
   44MOL   H60841974   5.649   3.189   4.852  0.9548 -0.4731  1.3736
   44MOL   H60941975   5.859   3.303   5.024  1.4079  0.2316 -3.3156
   44MOL   H61041976   5.730   3.300   5.265 -0.0682  1.0080 -1.2523
   44MOL   H61141977   5.887   3.241   5.254  0.4286 -1.8953  1.3450
   44MOL   H61241978   5.649   3.064   5.353  0.8061 -2.8252  0.4119
   44MOL   H61341979   5.775   3.138   5.449 -0.6540  0.2067  0.3077
   44MOL   H61441980   5.812   2.920   5.230  3.2430  0.7223 -1.9408
   44MOL   H61541981   5.939   3.022   5.309  0.5799 -1.5333  1.7250
   44MOL   H61641982   5.878   2.909   5.524  2.5385 -0.5823 -1.1141
   44MOL   H61741983   5.744   2.843   5.452  0.6424 -1.2496 -0.6050
   44MOL   H61841984   5.866   2.696   5.300 -0.9440  0.8225 -0.7386
   44MOL   H61941985   6.018   2.764   5.346  1.5652 -2.1859  1.5615
   44MOL   H62041986   5.831   2.618   5.527 -0.4731 -1.3606  1.4836
   44MOL   H62141987   5.977   2.698   5.590  1.4354 -0.6835 -1.8406
   44MOL   H62241988   5.973   2.492   5.373 -0.1479  3.4734 -0.8362
   44MOL   H62341989   6.117   2.564   5.442 -1.1947  0.9257  1.2631
   44MOL   H62441990   6.079   2.340   5.535 -0.0970  0.6300 -0.9865
   44MOL   H62541991   6.049   2.451   5.660  0.7822 -1.6247 -0.6305
   44MOL   N62641992   5.858   2.331   5.727  0.2346 -0.1356 -0.2508
   44MOL   C62741993   5.740   2.273   5.780  0.6334 -0.1004 -0.2611
   44MOL   C62841994   5.650   2.383   5.840  0.1960 -0.4377  0.1037
   44MOL   C62941995   5.538   2.421   5.755 -0.5363 -0.0312 -0.3713
   44MOL   C63041996   5.454   2.525   5.789  0.0713 -0.0725  0.4825
   44MOL   C63141997   5.467   2.576   5.920  0.1882 -0.9931  0.6136
   44MOL   C63241998   5.563   2.524   6.012  0.1847 -1.6003  0.2820
   44MOL   C63341999   5.668   2.441   5.967  0.5249 -0.4402  0.4316
   44MOL   C63442000   5.770   2.397   6.063  0.3647 -0.0761  0.5385
   44MOL   N63542001   5.834   2.503   6.142 -0.0337 -0.5723 -1.1257
   44MOL   C63642002   5.967   2.524   6.150 -0.2575  0.1408  0.3457
   44MOL   O63742003   6.046   2.441   6.108 -0.5431  0.0602 -0.3742
   44MOL   C63842004   6.009   2.667   6.173  0.7918 -0.9724 -0.4352
   44MOL   C63942005   5.995   2.707   6.320 -0.4395 -0.6358 -0.3423
   44MOL   C64042006   6.054   2.844   6.357 -0.3147  0.4474 -0.2774
   44MOL   C64142007   5.991   2.960   6.285  0.3079  0.2059  0.2639
   44MOL   C64242008   6.041   3.100   6.316 -0.4345  0.2007  0.1105
   44MOL   C64342009   6.008   3.154   6.453 -0.0768 -0.2885 -1.0141
   44MOL   C64442010   6.054   3.298   6.475 -0.3851  0.1656 -0.9670
   44MOL   C64542011   5.962   3.404   6.432  0.4375  0.2139 -0.1498
   44MOL   C64642012   5.836   3.428   6.523 -0.5681 -0.2447 -0.3351
   44MOL   O64742013   5.847   3.488   6.633  0.2558  0.1566  0.3063
   44MOL   H64842014   5.940   2.334   5.786 -1.3863 -3.4193  2.3640
   44MOL   H64942015   5.759   2.199   5.858 -2.3346  0.4364  1.0708
   44MOL   H65042016   5.676   2.232   5.702 -0.9284 -0.6811  1.2938
   44MOL   H65142017   5.526   2.365   5.664 -0.0439 -0.3590 -0.2400
   44MOL   H65242018   5.381   2.559   5.718  1.6870 -0.4642 -1.3968
   44MOL   H65342019   5.392   2.644   5.957  2.2048  1.3073  0.6022
   44MOL   H65442020   5.570   2.560   6.114 -0.7942 -1.0136  0.1444
   44MOL   H65542021   5.843   2.328   6.020 -1.4772 -0.6826 -1.7376
   44MOL   H65642022   5.723   2.325   6.130 -1.1488  1.2174  0.8620
   44MOL   H65742023   5.770   2.569   6.184 -0.3669 -2.3208  1.2051
   44MOL   H65842024   5.943   2.730   6.114  0.3224 -0.9351  0.1288
   44MOL   H65942025   6.111   2.676   6.136  0.0081  0.7643 -2.1981
   44MOL   H66042026   6.039   2.624   6.376 -0.3393  0.2895  0.9722
   44MOL   H66142027   5.891   2.693   6.349 -0.8819 -2.5173 -2.7093
   44MOL   H66242028   6.044   2.865   6.463 -1.8696  0.1305 -0.3417
   44MOL   H66342029   6.157   2.854   6.324 -0.3677 -2.0209 -1.2156
   44MOL   H66442030   5.989   2.948   6.177 -1.0594 -0.2078  0.3200
   44MOL   H66542031   5.886   2.953   6.312  0.9617 -1.8485  2.4587
   44MOL   H66642032   6.149   3.103   6.308 -0.4016 -0.0357  0.5024
   44MOL   H66742033   5.999   3.167   6.240 -1.3770  0.7091  1.0567
   44MOL   H66842034   6.057   3.093   6.529 -1.4249  1.3092  1.2210
   44MOL   H66942035   5.901   3.143   6.472 -0.0483  0.7391 -0.2238
   44MOL   H67042036   6.041   3.300   6.583  0.9703 -1.2614 -0.7588
   44MOL   H67142037   6.162   3.315   6.469 -0.1471 -0.0926  1.9698
   44MOL   H67242038   5.940   3.393   6.326  2.2299 -1.8322 -0.3523
   44MOL   H67342039   6.023   3.494   6.431  1.6090 -0.5690  0.1365
   44MOL   N67442040   5.721   3.375   6.493  0.0509  0.3113  0.5293
   44MOL   C67542041   5.670   3.310   6.367  0.3979 -0.2817  0.7936
   44MOL   C67642042   5.524   3.253   6.384  0.6047 -0.3863  0.4677
   44MOL   C67742043   5.508   3.126   6.447  0.1433  0.0929 -0.2286
   44MOL   C67842044   5.378   3.068   6.448  0.0067  0.1855  0.4506
   44MOL   C67942045   5.270   3.144   6.397 -0.4945 -0.5519 -0.2271
   44MOL   C68042046   5.283   3.273   6.346  0.3260 -0.1155  0.5738
   44MOL   C68142047   5.413   3.324   6.324  0.6693  0.5219 -0.2971
   44MOL   C68242048   5.431   3.461   6.259 -0.2892 -0.1315  0.5473
   44MOL   N68342049   5.458   3.568   6.360  0.3195 -0.5769 -0.6983
   44MOL   C68442050   5.513   3.688   6.351  0.2813  0.9588  0.7123
   44MOL   O68542051   5.539   3.744   6.242 -0.2386 -0.3933 -0.2626
   44MOL   C68642052   5.551   3.751   6.482 -0.1308 -0.0120 -0.1106
   44MOL   C68742053   5.425   3.805   6.557 -0.5187  1.0377 -0.2964
   44MOL   C68842054   5.358   3.927   6.490 -0.1964  0.3912  0.0842
   44MOL   C68942055   5.458   4.033   6.443  0.1643 -0.3563  0.4921
   44MOL   C69042056   5.384   4.163   6.396 -0.2666 -0.2728  0.6573
   44MOL   C69142057   5.479   4.287   6.409 -0.8475 -0.0091  0.5725
   44MOL   C69242058   5.428   4.416   6.341  0.5024  0.2568 -0.1387
   44MOL   C69342059   5.538   4.521   6.334 -0.6299  0.1900 -0.2500
   44MOL   C69442060   5.500   4.639   6.246 -0.0939 -0.2036 -0.1990
   44MOL   O69542061   5.410   4.709   6.284  0.1563 -0.6459 -0.4639
   44MOL   H69642062   5.646   3.409   6.551 -1.3402 -1.1599 -0.3735
   44MOL   H69742063   5.741   3.247   6.313  2.6362  0.3470  2.8939
   44MOL   H69842064   5.668   3.397   6.302 -2.2252 -1.3700 -0.6391
   44MOL   H69942065   5.592   3.070   6.485 -0.5250  0.4140  1.7362
   44MOL   H70042066   5.364   2.969   6.489  0.2660  1.0595  2.7324
   44MOL   H70142067   5.170   3.105   6.401  0.2793 -2.4209  2.4221
   44MOL   H70242068   5.201   3.329   6.304 -2.0751 -1.3724  3.3753
   44MOL   H70342069   5.339   3.493   6.211  0.7219  2.0875  0.0091
   44MOL   H70442070   5.505   3.462   6.179 -2.2742 -2.5968 -1.3706
   44MOL   H70542071   5.456   3.536   6.456  1.8561 -0.1538 -0.5172
   44MOL   H70642072   5.623   3.832   6.469  0.3583 -0.3255  0.6201
   44MOL   H70742073   5.602   3.678   6.545 -0.5080  0.9215  1.2932
   44MOL   H70842074   5.445   3.831   6.661  1.7350 -0.8006 -0.2032
   44MOL   H70942075   5.359   3.719   6.572  0.2859  0.5302  0.4181
   44MOL   H71042076   5.316   3.878   6.403  0.6503 -1.8458  0.8932
   44MOL   H71142077   5.282   3.971   6.555  0.2949  0.3525  0.6963
   44MOL   H71242078   5.528   4.047   6.526  1.9479 -0.4955 -0.9607
   44MOL   H71342079   5.499   3.998   6.349  1.7526  1.6836  0.3734
   44MOL   H71442080   5.343   4.156   6.295  0.2480  0.1190  0.4174
   44MOL   H71542081   5.297   4.184   6.458 -0.6510 -1.3682  0.5080
   44MOL   H71642082   5.574   4.259   6.365 -1.4522  0.8987 -1.3717
   44MOL   H71742083   5.504   4.308   6.513  1.4404 -2.2279  0.5230
   44MOL   H71842084   5.336   4.458   6.381  0.3095  0.8715 -1.1876
   44MOL   H71942085   5.404   4.395   6.237  1.2666  0.6476 -0.3993
   44MOL   H72042086   5.628   4.475   6.293 -1.8282  0.3226 -3.1352
   44MOL   H72142087   5.567   4.555   6.434 -1.7707 -3.1581  1.2940
   44MOL   N72242088   5.564   4.657   6.129 -0.2483 -0.7084  0.4543
   44MOL   C72342089   5.576   4.784   6.057  0.0450 -0.0309 -0.5617
   44MOL   C72442090   5.684   4.872   6.131  0.5336 -0.3936  0.0052
   44MOL   C72542091   5.637   4.972   6.224  0.0068 -0.8581  0.3329
   44MOL   C72642092   5.726   5.057   6.290  0.1602 -0.1417 -0.9672
   44MOL   C72742093   5.866   5.038   6.267  0.1245  0.2566  0.2930
   44MOL   C72842094   5.909   4.937   6.182 -0.0741  0.3658  0.2670
   44MOL   C72942095   5.820   4.858   6.108 -0.1934  0.3069 -0.4639
   44MOL   C73042096   5.879   4.764   6.004 -0.0740 -0.2254 -0.5693
   44MOL   N73142097   5.968   4.669   6.060  0.0604  0.3678 -0.3951
   44MOL   C73242098   5.942   4.539   6.094  0.5103  0.6790  0.3248
   44MOL   O73342099   5.826   4.493   6.088  0.0620  0.0104  0.1080
   44MOL   C73442100   6.068   4.463   6.139 -0.2502 -0.6455 -0.3174
   44MOL   C73542101   6.039   4.314   6.172  0.3835  0.0396 -0.5122
   44MOL   C73642102   5.954   4.289   6.305 -0.3014  0.3593 -0.3730
   44MOL   C73742103   5.951   4.134   6.345  0.2652  0.3619 -0.2460
   44MOL   C73842104   5.866   4.089   6.469 -0.1826 -0.0598  0.6206
   44MOL   C73942105   5.911   4.161   6.601  0.1458  0.0296  0.3431
   44MOL   C74042106   6.059   4.137   6.649  0.0819 -0.5445  0.2360
   44MOL   C74142107   6.117   4.239   6.761  0.6181 -0.1730 -0.6726
   44MOL   C74242108   6.259   4.210   6.806  0.1590  0.9790  0.1793
   44MOL   O74342109   6.329   4.141   6.732  0.2325  0.2034 -0.2259
   44MOL   H74442110   5.628   4.584   6.100 -0.8269 -1.6700  1.5168
   44MOL   H74542111   5.483   4.838   6.040 -1.7863 -3.1592 -0.9110
   44MOL   H74642112   5.606   4.760   5.956  0.5550 -3.3447  0.3152
   44MOL   H74742113   5.531   4.983   6.236  0.1565  0.0700  0.8036
   44MOL   H74842114   5.688   5.123   6.367  1.9728  1.2302 -1.1952
   44MOL   H74942115   5.936   5.101   6.318  2.3423  0.3039 -2.6687
   44MOL   H75042116   6.017   4.934   6.178  0.0143  0.7983  1.8291
   44MOL   H75142117   5.944   4.833   5.950  2.6819 -1.1987  1.3825
   44MOL   H75242118   5.812   4.724   5.928  1.8328 -5.2967  0.2377
   44MOL   H75342119   6.065   4.693   6.075 -0.1389  0.2712  1.1021
   44MOL   H75442120   6.120   4.519   6.217  1.0161 -2.6737  0.3262
   44MOL   H75542121   6.137   4.467   6.055  0.7515  1.1439  0.5561
   44MOL   H75642122   6.132   4.258   6.173  0.7754  0.5673 -3.2629
   44MOL   H75742123   5.978   4.266   6.096  0.9072  0.8423 -1.4470
   44MOL   H75842124   5.992   4.361   6.377  0.4230 -2.2044  1.9302
   44MOL   H75942125   5.857   4.336   6.293 -0.8060 -0.1941  1.3820
   44MOL   H76042126   5.914   4.071   6.263 -1.4197 -0.5723  1.1812
   44MOL   H76142127   6.053   4.100   6.361  0.0903  0.4126  0.9902
   44MOL   H76242128   5.765   4.126   6.454 -0.1391 -0.2178 -0.0987
   44MOL   H76342129   5.866   3.981   6.486 -1.9420 -0.0853  0.4889
   44MOL   H76442130   5.844   4.154   6.687  0.7567 -0.4165  0.7923
   44MOL   H76542131   5.894   4.266   6.579  0.4102  0.1995  0.9219
   44MOL   H76642132   6.072   4.031   6.670  2.9369 -0.3590 -0.4271
   44MOL   H76742133   6.130   4.158   6.569  3.1044  2.1518  3.5020
   44MOL   H76842134   6.124   4.341   6.723  2.1615 -0.5361 -1.3782
   44MOL   H76942135   6.057   4.242   6.852  1.9571  0.2530  0.2060
   44MOL   N77042136   6.295   4.263   6.922 -0.0394 -0.3556 -0.9245
   44MOL   C77142137   6.414   4.219   7.001  0.0583  0.2864 -0.2046
   44MOL   C77242138   6.544   4.296   6.976  0.1180 -0.0048  0.3980
   44MOL   C77342139   6.533   4.409   6.891  0.4354  0.3146  0.5704
   44MOL   C77442140   6.652   4.473   6.846  0.2935  0.4394  0.6042
   44MOL   C77542141   6.780   4.435   6.883 -0.1283  0.4797  0.0942
   44MOL   C77642142   6.791   4.320   6.965  0.3786  0.3514  0.0827
   44MOL   C77742143   6.676   4.250   7.006  0.5279 -0.3240 -0.0433
   44MOL   C77842144   6.693   4.118   7.075  0.0849  0.5763  0.3444
   44MOL   N77942145   6.811   4.103   7.157 -0.5518  0.2040  0.1153
   44MOL   C78042146   6.912   4.023   7.122 -0.0964  0.6887 -0.3650
   44MOL   O78142147   6.913   3.956   7.017 -0.6974  0.2969  0.2684
   44MOL   C78242148   7.029   4.011   7.213  0.0688  0.5799 -0.4630
   44MOL   C78342149   7.023   3.895   7.311  0.1078 -0.1042  0.1137
   44MOL   C78442150   7.138   3.889   7.420  0.4624 -0.1447  0.5454
   44MOL   C78542151   7.079   3.807   7.539  0.0799  0.3171  0.2045
   44MOL   C78642152   7.188   3.748   7.633  0.6754 -0.0504 -0.6284
   44MOL   C78742153   7.128   3.680   7.745  0.1287  0.7000 -0.4857
   44MOL   C78842154   7.232   3.634   0.057  0.2349 -0.7617 -0.4475
   44MOL   C78942155   7.180   3.523   0.162  0.2520 -0.6899  0.2368
   44MOL   C79042156   7.096   3.580   0.275  0.8592 -0.1592 -0.4852
   44MOL   O79142157   6.973   3.604   0.261  0.5443  0.2909  0.0684
   44MOL   H79242158   6.242   4.332   6.972  1.6999 -0.0716  0.5750
   44MOL   H79342159   6.374   4.229   7.102  2.6659  3.0261  0.6413
   44MOL   H79442160   6.432   4.112   6.988 -0.8106  0.1424 -0.2253
   44MOL   H79542161   6.440   4.435   6.843  1.0733  0.5060 -0.5951
   44MOL   H79642162   6.653   4.555   6.775  0.9969  0.9030  1.1474
   44MOL   H79742163   6.865   4.494   6.851 -0.5895  0.2751 -1.5731
   44MOL   H79842164   6.894   4.296   6.990  0.6041  1.7970  0.5763
   44MOL   H79942165   6.674   4.038   7.004  0.0093  1.3357 -0.4984
   44MOL   H80042166   6.609   4.111   7.144 -0.1628  2.0971  0.2260
   44MOL   H80142167   6.814   4.143   7.250 -1.4530  0.5951 -0.0211
   44MOL   H80242168   7.063   4.104   7.258  2.1047 -0.5482  0.4042
   44MOL   H80342169   7.104   3.989   7.138  0.5689 -2.1162  0.7387
   44MOL   H80442170   7.009   3.799   7.263  1.6383 -0.9501  1.3031
   44MOL   H80542171   6.937   3.908   7.376  0.1857  0.4338  0.1150
   44MOL   H80642172   7.184   3.976   7.466  1.5256 -0.4419  0.0435
   44MOL   H80742173   7.224   3.840   7.375  0.2402  0.3294 -0.3939
   44MOL   H80842174   7.006   3.874   7.584 -0.8395 -0.6008  0.1223
   44MOL   H80942175   7.036   3.721   7.487  3.7969 -0.1163 -2.3548
   44MOL   H81042176   7.247   3.684   7.567  0.4830  1.3362 -2.1980
   44MOL   H81142177   7.247   3.834   7.666  0.7794 -0.3959  0.0745
   44MOL   H81242178   7.089   3.586   7.706  3.7080 -1.6319  1.3213
   44MOL   H81342179   7.052   3.742   0.004  1.0545  0.6891  0.9951
   44MOL   H81442180   7.267   3.719   0.117 -0.4526 -0.6358 -0.2186
   44MOL   H81542181   7.325   3.594   0.016  1.3342 -0.4353  1.6335
   44MOL   H81642182   7.273   3.472   0.187  2.1596  2.2387 -0.7042
   44MOL   H81742183   7.126   3.437   0.122 -0.6389 -0.4888  0.9961
   44MOL   N81842184   7.152   3.613   0.389 -0.4326  0.3226 -0.1023
   44MOL   C81942185   7.107   3.692   0.501  0.2157  0.5698  0.1232
   44MOL   C82042186   7.189   3.825   0.510  0.5175  0.1215  0.3467
   44MOL   C82142187   7.198   3.909   0.391 -0.2460  0.4862 -0.0725
   44MOL   C82242188   7.259   4.033   0.394 -0.2380  0.1313  0.2634
   44MOL   C82342189   7.309   4.087   0.521  0.3139 -0.5179  0.1601
   44MOL   C82442190   7.291   4.011   0.640 -0.2105  0.2207  0.3091
   44MOL   C82542191   7.236   3.882   0.632  0.1804 -0.0174 -0.2273
   44MOL   C82642192   7.228   3.812   0.772  0.5233  0.4342  0.8015
   44MOL   N82742193   7.097   3.827   0.832 -0.1559 -0.4951  0.2298
   44MOL   C82842194   7.007   3.737   0.877  0.2426 -0.1639 -0.2855
   44MOL   O82942195   7.030   3.616   0.876 -0.2938 -0.1638 -0.3264
   44MOL   C83042196   6.876   3.795   0.930  0.6796 -0.0351 -0.4124
   44MOL   C83142197   6.843   3.742   1.069  0.2196  0.0550 -0.0852
   44MOL   C83242198   6.952   3.788   1.165 -0.0149 -0.0371  0.5058
   44MOL   C83342199   6.941   3.727   1.307  0.2858  0.0705 -0.7041
   44MOL   C83442200   7.075   3.736   1.381 -0.4021  0.3026 -0.0353
   44MOL   C83542201   7.062   3.701   1.534  0.0891 -0.2011  0.4607
   44MOL   C83642202   7.014   3.555   1.539  0.2545  0.3198 -1.4511
   44MOL   C83742203   7.039   3.488   1.670  1.2140  0.0116  0.1471
   44MOL   C83842204   6.965   3.550   1.788  0.3894 -0.0033  0.1670
   44MOL   O83942205   7.010   3.654   1.839 -0.8584  0.2885 -0.0805
   44MOL   H84042206   7.253   3.605   0.389 -0.4384  0.2504 -0.3119
   44MOL   H84142207   6.999   3.709   0.496  0.4976  2.9882  1.2888
   44MOL   H84242208   7.127   3.630   0.588 -2.2114 -0.2131  0.1650
   44MOL   H84342209   7.155   3.875   0.298  0.1910  0.2036 -0.1755
   44MOL   H84442210   7.262   4.090   0.303  0.7416 -1.5262 -0.7822
   44MOL   H84542211   7.344   4.189   0.523 -1.0035 -0.0933  2.1571
   44MOL   H84642212   7.308   4.049   0.740 -0.3332 -0.7114  0.6899
   44MOL   H84742213   7.310   3.854   0.830  1.1142  1.7813 -0.9317
   44MOL   H84842214   7.234   3.707   0.742  0.8549  0.4942  0.6516
   44MOL   H84942215   7.065   3.923   0.830  1.9422  0.2636  1.8655
   44MOL   H85042216   6.791   3.782   0.863  0.8329  0.5349 -0.7215
   44MOL   H85142217   6.880   3.904   0.930  0.7893 -0.0376 -0.0960
   44MOL   H85242218   6.839   3.635   1.049 -0.8740 -0.0371  0.5849
   44MOL   H85342219   6.750   3.772   1.118  0.2592  1.0803 -0.6357
   44MOL   H85442220   6.952   3.897   1.174 -0.2225  0.0038 -0.0008
   44MOL   H85542221   7.051   3.775   1.123  0.3595 -0.0164  1.3590
   44MOL   H85642222   6.857   3.781   1.352  1.0873  0.5994  0.1773
   44MOL   H85742223   6.921   3.622   1.290  1.2692 -0.1659 -0.3977
   44MOL   H85842224   7.133   3.653   1.340  0.3122  0.0745  1.4124
   44MOL   H85942225   7.123   3.831   1.355  0.8635 -0.3350 -0.0370
   44MOL   H86042226   6.997   3.779   1.574  0.3670  0.6217 -0.6685
   44MOL   H86142227   7.157   3.713   1.588 -0.3418  0.1180  1.1648
   44MOL   H86242228   7.085   3.500   1.477 -0.9541 -0.7473 -1.9019
   44MOL   H86342229   6.915   3.539   1.498  0.3868  0.3089 -1.7662
   44MOL   H86442230   7.022   3.380   1.660  2.3769  0.0609 -2.6876
   44MOL   H86542231   7.142   3.508   1.698  1.6463 -1.4287 -0.3768
   44MOL   N86642232   6.864   3.487   1.836  0.1867  0.1762 -0.5459
   44MOL   C86742233   6.778   3.531   1.947 -0.5214  0.9874 -0.1139
   44MOL   C86842234   6.707   3.418   2.010  0.0205 -0.2982 -0.4085
   44MOL   C86942235   6.573   3.402   1.990 -0.7464 -0.1519  0.4882
   44MOL   C87042236   6.506   3.304   2.061 -0.2458  0.1142  0.7072
   44MOL   C87142237   6.571   3.212   2.144  1.4960  0.4374  0.2377
   44MOL   C87242238   6.708   3.220   2.156 -0.2095 -0.8086 -0.0638
   44MOL   C87342239   6.781   3.324   2.092  0.9495 -0.8818  0.4772
   44MOL   C87442240   6.933   3.337   2.110 -0.1967 -0.0653  0.1749
   44MOL   N87542241   7.015   3.219   2.079 -0.0132  0.0322  0.2365
   44MOL   C87642242   7.029   3.166   1.955 -0.5874 -0.6494  0.6741
   44MOL   O87742243   6.971   3.213   1.856 -0.0017 -0.9214 -0.4899
   44MOL   C87842244   7.132   3.049   1.932  0.1820 -0.5531 -0.1092
   44MOL   C87942245   7.155   3.001   1.786  0.5282  0.3691 -0.7823
   44MOL   C88042246   7.234   3.111   1.702 -0.2443 -0.1970 -0.0816
   44MOL   C88142247   7.281   3.070   1.566  0.1584  0.4275  0.1388
   44MOL   C88242248   7.393   2.971   1.568 -0.6501  0.7246  0.4490
   44MOL   C88342249   7.486   2.972   1.447  0.3471  0.4702 -0.3970
   44MOL   C88442250   7.604   2.884   1.469 -0.2926  0.8130 -0.7011
   44MOL   C88542251   7.683   2.860   1.346 -0.0952  0.6942  0.0475
   44MOL   C88642252   7.780   2.980   1.320  0.2560  0.2413  0.4952
   44MOL   O88742253   0.008   3.074   1.398 -0.5325 -0.6694  0.1037
   44MOL   H88842254   6.834   3.395   1.808  0.4678  0.0782 -0.5315
   44MOL   H88942255   6.840   3.582   2.021  0.4574 -0.4931  0.1045
   44MOL   H89042256   6.714   3.612   1.912  1.2110  2.1708 -0.6094
   44MOL   H89142257   6.521   3.485   1.945  0.8782 -0.6424 -2.4740
   44MOL   H89242258   6.401   3.295   2.037 -0.6624  4.5285  0.6314
   44MOL   H89342259   6.517   3.136   2.198  2.1835 -0.0122  0.2955
   44MOL   H89442260   6.767   3.161   2.225 -0.1143 -2.4399 -1.5080
   44MOL   H89542261   6.945   3.360   2.216 -0.0319  1.1897 -0.1023
   44MOL   H89642262   6.975   3.419   2.052 -1.0989  2.0070  2.3501
   44MOL   H89742263   7.078   3.191   2.153 -0.7369 -0.9471  0.4820
   44MOL   H89842264   7.086   2.965   1.984  0.5845 -1.1404 -0.6896
   44MOL   H89942265   7.235   3.066   1.962  0.1293  0.1971 -0.3406
   44MOL   H90042266   7.053   2.996   1.747 -0.5962 -0.2687  2.0703
   44MOL   H90142267   7.199   2.902   1.785 -1.6244 -0.6250 -0.9810
   44MOL   H90242268   7.165   3.193   1.682 -0.5618 -0.3966  0.2030
   44MOL   H90342269   7.322   3.145   1.757 -0.6220  0.3407  0.1895
   44MOL   H90442270   7.205   3.030   1.499 -0.9333  1.3939  0.7834
   44MOL   H90542271   7.317   3.156   1.509 -2.0699  0.1475 -1.7595
   44MOL   H90642272   7.452   2.987   1.658  2.7908 -2.6729 -1.0659
   44MOL   H90742273   7.352   2.873   1.589  0.0894  0.6919  1.8028
   44MOL   H90842274   7.529   3.071   1.427  1.2191  0.5834  1.8770
   44MOL   H90942275   7.428   2.930   1.365 -1.8183 -0.0625  1.3335
   44MOL   H91042276   7.666   2.917   1.552  0.8967  1.0169 -1.6599
   44MOL   H91142277   7.568   2.785   1.499  0.1525  1.1661  1.0339
   44MOL   H91242278   7.746   2.772   1.353  1.2203  1.5971 -0.1186
   44MOL   H91342279   7.622   2.855   1.256  1.3834 -0.4519 -0.8982
   44MOL   N91442280   0.068   2.967   1.210 -0.2491 -0.6765 -0.7349
   44MOL   C91542281   0.195   3.034   1.202 -0.0132 -0.1760  0.6774
   44MOL   C91642282   0.292   2.961   1.113  1.1089  0.9901 -0.4547
   44MOL   C91742283   0.258   2.831   1.060 -0.2181 -1.0498  0.1806
   44MOL   C91842284   0.352   2.758   0.977 -0.1364 -0.3612 -0.2772
   44MOL   C91942285   0.478   2.815   0.953  0.6059  0.7568  0.5056
   44MOL   C92042286   0.513   2.936   1.014  0.6041 -0.0958  0.0824
   44MOL   C92142287   0.423   3.008   1.095 -0.3885  0.7139  0.4658
   44MOL   C92242288   0.481   3.135   1.163  0.1222 -0.0545  1.2752
   44MOL   N92342289   0.585   3.097   1.255 -0.3845 -0.2770  0.1288
   44MOL   C92442290   0.574   3.085   1.387  0.9792  0.5568 -0.1865
   44MOL   O92542291   0.486   3.133   1.453  0.6311  0.9675 -0.2265
   44MOL   C92642292   0.690   3.015   1.453  0.2291  0.3506 -0.4357
   44MOL   C92742293   0.662   2.873   1.508 -1.0019  0.2381 -0.3694
   44MOL   C92842294   0.645   2.776   1.396 -0.5540  0.4279 -0.3214
   44MOL   C92942295   0.778   2.691   1.387  0.2094 -0.2395 -0.2443
   44MOL   C93042296   0.757   2.565   1.305 -0.0229  0.3397 -0.2558
   44MOL   C93142297   0.881   2.478   1.322  0.3131 -0.1873 -0.4483
   44MOL   C93242298   0.890   2.355   1.227 -0.2774 -0.1438 -0.1368
   44MOL   C93342299   1.021   2.274   1.228 -0.3507 -0.0535 -0.0421
   44MOL   C93442300   1.145   2.345   1.182  0.9971 -0.6451  0.4420
   44MOL   O93542301   1.175   2.356   1.060 -0.0267  0.5508 -0.1433
   44MOL   H93642302   0.051   2.881   1.159  0.7426 -0.8906 -0.7101
   44MOL   H93742303   0.199   3.137   1.164  0.8624  0.4617  2.4337
   44MOL   H93842304   0.244   3.037   1.300 -0.2827  1.8211  0.7718
   44MOL   H93942305   0.168   2.774   1.077 -1.3496  0.5717 -0.3720
   44MOL   H94042306   0.328   2.667   0.925 -0.1101 -0.3361 -0.3328
   44MOL   H94142307   0.548   2.769   0.885 -1.9076 -1.1560 -0.8131
   44MOL   H94242308   0.613   2.973   1.000  0.3143  0.9906  0.8322
   44MOL   H94342309   0.406   3.202   1.204 -1.5451  1.4789 -3.8006
   44MOL   H94442310   0.534   3.198   1.091 -0.8179 -0.5424  0.1223
   44MOL   H94542311   0.676   3.072   1.218 -0.9271 -1.5197 -0.3689
   44MOL   H94642312   0.730   3.085   1.526  1.6019 -1.4479  0.5728
   44MOL   H94742313   0.778   3.014   1.388  0.7722  1.0754  0.2867
   44MOL   H94842314   0.566   2.865   1.559 -1.7205 -1.3207 -1.9127
   44MOL   H94942315   0.736   2.842   1.582  0.2921  1.5014 -1.1006
   44MOL   H95042316   0.565   2.708   1.425  0.1576 -0.3975 -0.2700
   44MOL   H95142317   0.610   2.819   1.302 -1.9334  0.1055  0.0316
   44MOL   H95242318   0.861   2.749   1.345 -0.9911  0.5091 -1.6194
   44MOL   H95342319   0.805   2.663   1.488  1.1451  1.2882 -0.0544
   44MOL   H95442320   0.756   2.593   1.199  0.1977  0.5897 -0.1905
   44MOL   H95542321   0.660   2.520   1.325 -0.9831  2.1887 -0.6492
   44MOL   H95642322   0.966   2.544   1.304 -1.3297  2.1966  0.1588
   44MOL   H95742323   0.903   2.444   1.423  1.3173  0.0318 -0.5894
   44MOL   H95842324   0.862   2.381   1.125 -0.3092 -0.9556 -0.3362
   44MOL   H95942325   0.807   2.285   1.235  0.6960 -1.1755  1.1830
   44MOL   H96042326   1.004   2.189   1.163  2.0134 -0.5812 -0.0320
   44MOL   H96142327   1.043   2.241   1.330  2.5682  2.4264  0.2017
   44MOL   H96242328   1.212   2.380   1.260 -0.8125  1.7544  0.9796
   45MOL     N142329   0.771   5.008   6.342  0.1260  0.0546 -0.5230
   45MOL     C242330   0.787   5.154   6.365  0.7256  0.4023  0.4311
   45MOL     C342331   0.669   5.223   6.278  0.9699  0.0629 -0.5414
   45MOL     C442332   0.537   5.198   6.322  0.1030  0.2699 -0.3813
   45MOL     C542333   0.424   5.257   6.255 -0.3639 -0.1860 -0.7357
   45MOL     C642334   0.440   5.343   6.142 -0.4426  0.3641  0.0043
   45MOL     C742335   0.570   5.372   6.102 -0.1367  0.3335 -0.1102
   45MOL     C842336   0.684   5.313   6.170 -0.1687  0.0875 -0.2822
   45MOL     C942337   0.817   5.361   6.124  0.5161 -0.5637  0.0884
   45MOL    N1042338   0.901   5.253   6.071 -0.2138  0.4494  0.0264
   45MOL    C1142339   0.977   5.268   5.965 -0.3651 -0.0189 -0.6458
   45MOL    O1242340   1.007   5.378   5.921  0.2350  0.3129  0.2355
   45MOL    C1342341   1.048   5.145   5.918 -0.3764  0.7213 -0.3622
   45MOL    C1442342   1.061   5.121   5.768  0.3952  0.3831  0.5346
   45MOL    C1542343   1.134   4.993   5.721  0.4214 -0.1128  0.0437
   45MOL    C1642344   1.282   5.013   5.754 -0.1567  0.8685 -0.0783
   45MOL    C1742345   1.373   4.892   5.731  0.3706  0.0678  0.2232
   45MOL    C1842346   1.496   4.896   5.824 -0.1447 -0.3892  0.4055
   45MOL    C1942347   1.605   4.804   5.761  0.1179 -1.0148 -0.1994
   45MOL    C2042348   1.669   4.850   5.627 -0.3612  0.0782 -0.5914
   45MOL    C2142349   1.807   4.792   5.618 -0.0455 -0.0929  0.7586
   45MOL    O2242350   1.882   4.796   5.717  0.7426  0.1108  0.3033
   45MOL    H2342351   0.715   5.006   6.258 -2.0664  0.9579  0.8565
   45MOL    H2442352   0.796   5.200   6.464  1.6488 -0.5629  0.7987
   45MOL    H2542353   0.879   5.183   6.315 -0.8224 -2.7289 -4.5061
   45MOL    H2642354   0.521   5.131   6.404 -0.3678  1.2955  0.3782
   45MOL    H2742355   0.329   5.230   6.299 -0.5117 -0.7523 -1.3921
   45MOL    H2842356   0.369   5.397   6.082  0.6285  1.2782 -0.4658
   45MOL    H2942357   0.586   5.442   6.022 -1.9752  0.5107 -0.3294
   45MOL    H3042358   0.879   5.402   6.204 -0.9655  2.9073 -0.4486
   45MOL    H3142359   0.806   5.446   6.057  1.8336  0.8119  1.5538
   45MOL    H3242360   0.892   5.164   6.117  1.8083 -0.0405 -0.5023
   45MOL    H3342361   1.006   5.054   5.963 -0.7436  0.4097 -1.3382
   45MOL    H3442362   1.145   5.148   5.969 -0.8922 -1.9818  0.9015
   45MOL    H3542363   1.106   5.207   5.719  1.2116 -0.4613 -0.2160
   45MOL    H3642364   0.955   5.120   5.740  0.5785 -1.8096 -0.2076
   45MOL    H3742365   1.089   4.910   5.775 -0.7069 -0.0178 -0.7546
   45MOL    H3842366   1.118   4.962   5.617 -0.6630 -0.0428  0.1926
   45MOL    H3942367   1.328   5.095   5.699  1.6162 -0.7123 -1.0380
   45MOL    H4042368   1.299   5.043   5.857 -1.1074  1.9607 -0.2250
   45MOL    H4142369   1.317   4.799   5.740  0.5616 -0.0889 -0.2023
   45MOL    H4242370   1.400   4.906   5.627  1.1596 -0.6577  0.3206
   45MOL    H4342371   1.457   4.864   5.921 -2.0064  1.0540  0.1404
   45MOL    H4442372   1.538   4.996   5.827  1.1584 -0.9550  1.6734
   45MOL    H4542373   1.685   4.792   5.834  0.0771  0.4879  0.1148
   45MOL    H4642374   1.560   4.705   5.749  0.6345 -1.3406  0.5190
   45MOL    H4742375   1.690   4.957   5.632  0.3774 -0.0442 -0.9605
   45MOL    H4842376   1.600   4.829   5.545 -2.8813 -1.9841  1.9485
   45MOL    H4942377   0.859   4.968   6.311  0.8050 -0.9188  2.5147
   45MOL    N5042378   1.850   4.738   5.503 -0.3045 -0.2118  0.5376
   45MOL    C5142379   1.979   4.670   5.493 -0.0645 -0.1361 -0.4718
   45MOL    C5242380   1.970   4.517   5.473 -0.3041 -0.3224  0.4142
   45MOL    C5342381   1.918   4.476   5.351 -0.0672  0.2046  0.3068
   45MOL    C5442382   1.876   4.341   5.339 -0.4307  0.2881 -0.2080
   45MOL    C5542383   1.896   4.249   5.443  0.2926  0.7149  0.4124
   45MOL    C5642384   1.962   4.286   5.561  0.0475 -0.6962  0.3758
   45MOL    C5742385   1.999   4.423   5.578 -0.3202  0.2920 -0.1849
   45MOL    C5842386   2.065   4.466   5.716  0.4034 -0.3519  0.2829
   45MOL    N5942387   1.971   4.529   5.805  0.1591 -0.0045 -0.0033
   45MOL    C6042388   1.980   4.536   5.938  0.0040  0.0484  0.1374
   45MOL    O6142389   2.066   4.476   6.006 -0.2188  0.3435 -0.0859
   45MOL    C6242390   1.890   4.633   6.012  0.9377 -0.0642 -0.5342
   45MOL    C6342391   1.798   4.559   6.108 -0.0048 -0.0228  0.4004
   45MOL    C6442392   1.689   4.475   6.029  0.1449 -0.3661  0.0953
   45MOL    C6542393   1.613   4.386   6.128 -0.0326  0.2929  0.1771
   45MOL    C6642394   1.499   4.444   6.213 -0.5976  0.2096 -0.0392
   45MOL    C6742395   1.415   4.338   6.291  0.4152  0.1837  0.2341
   45MOL    C6842396   1.297   4.403   6.369  0.0625  0.0064 -0.2374
   45MOL    C6942397   1.347   4.500   6.476  0.2532 -0.3856  0.2163
   45MOL    C7042398   1.237   4.565   6.562  0.0302  0.5413 -0.0660
   45MOL    O7142399   1.139   4.502   6.602  0.1856  0.4498 -0.2308
   45MOL    H7242400   1.790   4.726   5.423  1.3420  0.9603 -0.9205
   45MOL    H7342401   2.049   4.696   5.572  0.8354 -0.1223 -1.2649
   45MOL    H7442402   2.024   4.700   5.399  5.0009  1.1360  2.1737
   45MOL    H7542403   1.880   4.540   5.273 -0.9071 -0.0748  0.4886
   45MOL    H7642404   1.828   4.310   5.247  1.2411  1.0807 -1.3634
   45MOL    H7742405   1.866   4.147   5.427  1.5804  0.3291  0.3875
   45MOL    H7842406   1.991   4.206   5.628  1.5632 -0.3018  0.2150
   45MOL    H7942407   2.145   4.540   5.710  0.9860 -0.8232  1.9920
   45MOL    H8042408   2.130   4.390   5.759 -0.2137  0.0743  2.0096
   45MOL    H8142409   1.896   4.583   5.766  0.5628 -1.1174 -2.4170
   45MOL    H8242410   1.849   4.711   5.948 -0.7904 -0.4973  0.0414
   45MOL    H8342411   1.961   4.697   6.066 -1.4800  1.9168  0.3909
   45MOL    H8442412   1.738   4.625   6.170  1.9414  0.8260  1.4407
   45MOL    H8542413   1.855   4.490   6.171 -1.3099 -0.8059  0.7363
   45MOL    H8642414   1.627   4.551   5.982 -1.0999 -1.8822 -0.7819
   45MOL    H8742415   1.729   4.431   5.937  2.4615 -0.3099  1.0234
   45MOL    H8842416   1.584   4.297   6.071 -1.1861  0.8927 -0.1902
   45MOL    H8942417   1.691   4.334   6.183 -0.7188  0.3594  1.2229
   45MOL    H9042418   1.539   4.521   6.279 -0.3061  0.4371 -0.4814
   45MOL    H9142419   1.420   4.492   6.156 -0.7071  1.3766  1.0734
   45MOL    H9242420   1.487   4.288   6.356 -0.1681  2.4964  2.8035
   45MOL    H9342421   1.371   4.267   6.221  0.3132  1.7878 -1.3562
   45MOL    H9442422   1.243   4.322   6.419  2.3675 -2.1207 -1.0867
   45MOL    H9542423   1.227   4.462   6.309 -0.8883 -1.6885 -0.8459
   45MOL    H9642424   1.401   4.585   6.433 -0.5780  0.2935  0.4924
   45MOL    H9742425   1.427   4.456   6.536 -0.3276 -0.8567  0.6479
   45MOL    N9842426   1.253   4.694   6.591 -0.3693  0.1748 -0.0985
   45MOL    C9942427   1.165   4.775   6.666  0.6614  0.2663 -0.0862
   45MOL   C10042428   1.215   4.911   6.701 -0.0218  0.1216  0.6163
   45MOL   C10142429   1.267   4.932   6.830  0.4008 -0.6600 -0.4052
   45MOL   C10242430   1.308   5.061   6.875  0.4407  0.6855 -0.3328
   45MOL   C10342431   1.291   5.166   6.783 -0.3488 -0.0579  0.0293
   45MOL   C10442432   1.233   5.142   6.658 -0.3016  0.2090  0.1419
   45MOL   C10542433   1.191   5.018   6.613  0.0525 -0.4250  0.5526
   45MOL   C10642434   1.115   4.999   6.479  0.1818  0.3642 -0.1438
   45MOL   N10742435   1.196   4.941   6.371  0.5357  0.8275  0.3804
   45MOL   C10842436   1.147   4.936   6.248 -0.1197 -0.4763  0.5090
   45MOL   O10942437   1.031   4.960   6.216  0.0114 -0.4328  0.2321
   45MOL   C11042438   1.242   4.883   6.138 -0.4618  0.8683 -1.1780
   45MOL   C11142439   1.226   4.729   6.127  0.5827 -0.6260  0.7657
   45MOL   C11242440   1.100   4.681   6.046  0.6980 -0.2169 -0.5090
   45MOL   C11342441   1.040   4.545   6.076  0.4713 -0.4305  0.2419
   45MOL   C11442442   0.966   4.535   6.211 -0.0193  0.3342  0.5316
   45MOL   C11542443   0.960   4.387   6.265  0.1013  0.1113  0.0162
   45MOL   C11642444   0.851   4.310   6.194 -0.1551 -0.8625  0.2014
   45MOL   C11742445   0.800   4.186   6.261 -0.0353 -1.3368 -0.6641
   45MOL   C11842446   0.703   4.105   6.179  0.7027 -0.5673  0.2870
   45MOL   O11942447   0.710   4.106   6.058  0.5167  0.2823 -0.1915
   45MOL   H12042448   1.352   4.716   6.587 -0.4346  0.3137 -1.2160
   45MOL   H12142449   1.068   4.782   6.617  0.6279 -0.4965 -0.1349
   45MOL   H12242450   1.139   4.725   6.760 -2.1310  0.6582 -0.5899
   45MOL   H12342451   1.267   4.854   6.905  0.3453  1.2802  1.6702
   45MOL   H12442452   1.351   5.085   6.971 -3.4373  3.7231  0.7963
   45MOL   H12542453   1.310   5.268   6.811  1.2863  0.2753 -2.1311
   45MOL   H12642454   1.209   5.228   6.597 -0.1634  1.0025  1.1977
   45MOL   H12742455   1.082   5.095   6.441 -1.1212  0.5617  1.4613
   45MOL   H12842456   1.031   4.930   6.487 -1.5597  2.3065 -1.2286
   45MOL   H12942457   1.288   4.914   6.402 -0.6791 -3.7986  0.4103
   45MOL   H13042458   1.341   4.920   6.163 -0.7737  1.4095 -0.7214
   45MOL   H13142459   1.211   4.925   6.043 -1.7200 -1.8124 -1.9861
   45MOL   H13242460   1.216   4.689   6.228  1.8452 -1.1269  0.7042
   45MOL   H13342461   1.316   4.685   6.083  0.3459 -1.3704  1.0204
   45MOL   H13442462   1.013   4.736   6.082 -0.6529 -0.1974 -3.5840
   45MOL   H13542463   1.107   4.710   5.941 -1.5704  0.6104 -0.4512
   45MOL   H13642464   0.975   4.518   5.993 -0.5438 -0.1888  0.9452
   45MOL   H13742465   1.114   4.467   6.062  1.4663  0.2256  1.7215
   45MOL   H13842466   1.031   4.587   6.282 -1.1495 -1.8844  3.2441
   45MOL   H13942467   0.869   4.584   6.212  0.2113  0.7765  1.2066
   45MOL   H14042468   0.943   4.406   6.371  1.1946 -0.8502  0.3715
   45MOL   H14142469   1.058   4.341   6.252 -1.0018 -2.1577 -0.5218
   45MOL   H14242470   0.761   4.368   6.177 -0.8134 -1.6593  0.8985
   45MOL   H14342471   0.892   4.287   6.095 -0.1966 -1.1125  0.2404
   45MOL   H14442472   0.739   4.201   6.350 -0.1683 -1.1125 -0.7935
   45MOL   H14542473   0.881   4.118   6.288  1.3401 -0.5156 -2.5785
   45MOL   N14642474   0.613   4.026   6.244 -0.7395 -0.1570 -0.1727
   45MOL   C14742475   0.510   3.951   6.171 -0.1887 -0.1134 -0.3507
   45MOL   C14842476   0.402   4.041   6.117 -0.1799  0.0262  0.2919
   45MOL   C14942477   0.354   4.151   6.195  0.1718  0.7575 -0.1173
   45MOL   C15042478   0.249   4.225   6.145  1.1523 -0.3843 -0.2322
   45MOL   C15142479   0.197   4.203   6.016  0.2274 -0.2620 -0.0905
   45MOL   C15242480   0.252   4.101   5.932  0.3015  0.5508 -0.1120
   45MOL   C15342481   0.347   4.012   5.987  0.0415  0.1857  0.9803
   45MOL   C15442482   0.377   3.894   5.899 -0.0776  0.2208  0.4009
   45MOL   N15542483   0.466   3.916   5.787  0.1756  1.1678 -0.5525
   45MOL   C15642484   0.425   3.921   5.655 -0.0245  0.3211  0.5541
   45MOL   O15742485   0.315   3.892   5.615  0.4810  0.5467  0.1506
   45MOL   C15842486   0.537   3.942   5.555 -0.4703  0.1851 -0.4892
   45MOL   C15942487   0.485   3.944   5.402 -0.0272  0.0959 -0.2495
   45MOL   C16042488   0.589   3.988   5.298 -1.1676 -0.2040 -0.4983
   45MOL   C16142489   0.509   4.023   5.168 -0.2613 -0.3967  0.5400
   45MOL   C16242490   0.603   4.070   5.060  0.4228  0.3145  0.8636
   45MOL   C16342491   0.533   4.111   4.933 -0.0426 -0.0297 -0.0451
   45MOL   C16442492   0.625   4.131   4.809  0.2588  0.5511  0.0585
   45MOL   C16542493   0.544   4.177   4.686 -0.1371 -0.5579 -0.9378
   45MOL   C16642494   0.639   4.163   4.565  0.0775 -0.1423  0.1000
   45MOL   O16742495   0.734   4.239   4.559 -0.3511 -0.0206  0.6658
   45MOL   H16842496   0.617   4.032   6.345  0.3889 -2.5527 -0.0590
   45MOL   H16942497   0.470   3.889   6.251 -0.2732 -0.2960 -0.5356
   45MOL   H17042498   0.545   3.884   6.093  0.0009  1.3053 -1.5161
   45MOL   H17142499   0.375   4.168   6.299 -0.5987  2.1297 -0.1890
   45MOL   H17242500   0.203   4.306   6.199  1.1851 -0.3515 -0.2527
   45MOL   H17342501   0.119   4.262   5.970  1.7257  2.0591  0.2801
   45MOL   H17442502   0.220   4.091   5.830 -0.5399 -2.9640  0.4286
   45MOL   H17542503   0.282   3.845   5.881 -1.0856  1.1096  3.0191
   45MOL   H17642504   0.423   3.812   5.955 -1.7812 -2.3115 -1.7925
   45MOL   H17742505   0.562   3.942   5.801  0.5244  0.1288 -0.9876
   45MOL   H17842506   0.605   3.857   5.561 -1.2487 -0.6707 -3.0534
   45MOL   H17942507   0.599   4.026   5.584  1.1025 -0.3231 -2.2278
   45MOL   H18042508   0.396   4.007   5.404 -0.0905  0.1167 -2.9082
   45MOL   H18142509   0.446   3.848   5.367 -0.5829 -0.4946  1.9026
   45MOL   H18242510   0.651   4.070   5.335 -0.1078 -0.6327 -1.2915
   45MOL   H18342511   0.654   3.902   5.284 -2.7238 -1.0576 -2.7890
   45MOL   H18442512   0.465   3.932   5.128  0.0982 -0.3586  0.0464
   45MOL   H18542513   0.428   4.090   5.195 -0.9906  0.0398 -2.5717
   45MOL   H18642514   0.672   4.148   5.094  2.9902 -2.8040  3.1758
   45MOL   H18742515   0.667   3.989   5.025 -0.5938 -0.4220  0.7012
   45MOL   H18842516   0.473   4.199   4.955  1.3434  1.0041 -0.3725
   45MOL   H18942517   0.457   4.040   4.901 -0.0467  0.1025 -0.3291
   45MOL   H19042518   0.693   4.211   4.836  0.4463  0.5095 -0.2834
   45MOL   H19142519   0.682   4.044   4.774  2.0277  2.1518 -1.1314
   45MOL   H19242520   0.524   4.283   4.704  0.4450 -0.2919 -1.7904
   45MOL   H19342521   0.452   4.120   4.675 -0.7803 -0.8117  4.5175
   45MOL   N19442522   0.619   4.058   4.489  0.4362  0.4604 -0.1798
   45MOL   C19542523   0.700   4.021   4.378  0.5111 -0.2054 -0.3496
   45MOL   C19642524   0.784   3.894   4.398  0.0874  0.1415  0.0115
   45MOL   C19742525   0.806   3.846   4.531 -0.1698  0.0132  0.0958
   45MOL   C19842526   0.890   3.736   4.546  0.0336  0.0143 -0.0545
   45MOL   C19942527   0.948   3.669   4.441  0.3184  0.6702 -0.0285
   45MOL   C20042528   0.926   3.714   4.306  0.0926  0.5730 -1.1612
   45MOL   C20142529   0.848   3.832   4.286  0.0711 -0.1893  1.1040
   45MOL   C20242530   0.832   3.894   4.145 -0.0074  0.3507  0.2518
   45MOL   N20342531   0.905   3.840   4.032 -0.2665 -0.2536  0.4573
   45MOL   C20442532   1.037   3.849   4.010 -0.1513 -0.1770  1.0484
   45MOL   O20542533   1.114   3.908   4.083 -0.0880  0.2070  0.1213
   45MOL   C20642534   1.085   3.790   3.878  0.1281 -0.4388  0.3715
   45MOL   C20742535   1.204   3.869   3.820  0.2786 -0.0234  0.0557
   45MOL   C20842536   1.246   3.817   3.684 -0.2575 -0.1312 -0.2915
   45MOL   C20942537   1.380   3.884   3.644  0.0475 -0.5551  1.1964
   45MOL   C21042538   1.413   3.834   3.503  0.7309  0.7989 -0.9300
   45MOL   C21142539   1.551   3.868   3.456  0.4768  0.0380  0.7017
   45MOL   C21242540   1.617   3.767   3.357 -0.0083  0.0242  0.2101
   45MOL   C21342541   1.626   3.612   3.409 -0.1262 -0.5638  0.2867
   45MOL   C21442542   1.690   3.591   3.543  0.1256 -0.6838 -0.2162
   45MOL   O21542543   1.814   3.591   3.557 -0.4071  0.3856 -0.5701
   45MOL   H21642544   0.541   4.000   4.518  1.8519 -2.0407 -1.2179
   45MOL   H21742545   0.626   3.995   4.302  1.3866 -0.9906 -0.9468
   45MOL   H21842546   0.763   4.098   4.336  3.6787 -1.7317  1.4351
   45MOL   H21942547   0.752   3.890   4.613 -1.2964 -0.2776 -0.4880
   45MOL   H22042548   0.898   3.683   4.639  2.8609  0.6698  0.1107
   45MOL   H22142549   1.000   3.575   4.453 -3.0282 -1.3237 -0.7000
   45MOL   H22242550   0.966   3.648   4.230 -0.1223 -0.3233 -0.5133
   45MOL   H22342551   0.869   3.997   4.142  0.5547  0.1322 -3.2066
   45MOL   H22442552   0.726   3.914   4.131 -0.3188 -0.2151  1.7966
   45MOL   H22542553   0.853   3.781   3.968  0.2771 -1.2159  0.8909
   45MOL   H22642554   1.004   3.801   3.805  1.0524  1.6324 -0.4035
   45MOL   H22742555   1.104   3.684   3.892  0.9654 -0.1786  1.1914
   45MOL   H22842556   1.181   3.976   3.818  0.1067 -0.0739 -1.3890
   45MOL   H22942557   1.287   3.879   3.889 -0.2074 -1.3579  0.8450
   45MOL   H23042558   1.265   3.710   3.692 -0.0250  0.0086  1.2392
   45MOL   H23142559   1.165   3.810   3.612  0.0439  0.1562 -0.6584
   45MOL   H23242560   1.372   3.991   3.630  0.5519 -0.9481 -2.6972
   45MOL   H23342561   1.453   3.856   3.721  1.1749  0.8360  0.6542
   45MOL   H23442562   1.394   3.727   3.505  2.9730  0.3883 -0.7513
   45MOL   H23542563   1.328   3.866   3.442  1.5595  1.5634 -1.6985
   45MOL   H23642564   1.618   3.883   3.541  1.6661 -1.2201  0.0120
   45MOL   H23742565   1.544   3.969   3.417  0.2823  0.4452  1.7641
   45MOL   H23842566   1.722   3.792   3.341  0.5826 -1.0301  2.2696
   45MOL   H23942567   1.562   3.774   3.264  1.4979 -0.6573 -0.7644
   45MOL   H24042568   1.529   3.563   3.407  0.4292 -1.7702  1.3748
   45MOL   H24142569   1.695   3.560   3.342 -1.5157 -0.1785 -1.4727
   45MOL   N24242570   1.607   3.563   3.649 -0.7965 -0.4687  0.8245
   45MOL   C24342571   1.648   3.554   3.786 -0.0444  0.1380  0.1141
   45MOL   C24442572   1.534   3.575   3.885 -0.7510 -0.0559 -0.0209
   45MOL   C24542573   1.532   3.691   3.968 -0.0857  0.5804  0.0843
   45MOL   C24642574   1.422   3.716   4.049 -0.1094  0.6050 -0.3553
   45MOL   C24742575   1.313   3.627   4.055 -0.2367 -0.2727  0.2285
   45MOL   C24842576   1.313   3.511   3.974  0.6383 -0.3614  0.2106
   45MOL   C24942577   1.425   3.483   3.887  0.2006  0.2073  0.1215
   45MOL   C25042578   1.411   3.353   3.806 -1.0998  0.0121 -0.2818
   45MOL   N25142579   1.368   3.369   3.665 -0.0118 -0.8013 -0.2928
   45MOL   C25242580   1.249   3.414   3.627 -0.3144 -0.4561 -0.4167
   45MOL   O25342581   1.161   3.457   3.703  0.4549 -0.3436 -0.1296
   45MOL   C25442582   1.229   3.434   3.478 -0.9515 -0.1492  0.6053
   45MOL   C25542583   1.142   3.321   3.417  0.3827  0.0449 -0.0692
   45MOL   C25642584   1.104   3.353   3.272  0.3708 -0.5432 -0.3698
   45MOL   C25742585   1.014   3.243   3.214  0.3829  0.3445 -0.4967
   45MOL   C25842586   0.981   3.286   3.065  0.7584 -0.3601  0.0743
   45MOL   C25942587   0.860   3.225   2.992 -1.0741  1.1524  0.4816
   45MOL   C26042588   0.847   3.264   2.842 -0.3406  0.4554  0.0728
   45MOL   C26142589   0.720   3.230   2.769 -0.0302  0.3217 -0.0003
   45MOL   C26242590   0.590   3.293   2.819  0.6528  0.1844 -0.4943
   45MOL   O26342591   0.568   3.412   2.808  0.1281  0.4992 -0.1208
   45MOL   H26442592   1.513   3.530   3.629 -0.5877 -0.6311  0.0966
   45MOL   H26542593   1.701   3.459   3.796 -0.9400 -0.5257 -1.3169
   45MOL   H26642594   1.721   3.630   3.812  1.3814 -1.0135 -0.4018
   45MOL   H26742595   1.609   3.767   3.972 -0.5309  0.9915  1.1027
   45MOL   H26842596   1.418   3.807   4.107  0.9284 -0.2382  1.0567
   45MOL   H26942597   1.236   3.652   4.127 -0.6080  1.4941 -0.7461
   45MOL   H27042598   1.240   3.432   3.962  0.4320 -0.5168  2.3578
   45MOL   H27142599   1.335   3.283   3.842 -1.7929  0.7979 -0.1908
   45MOL   H27242600   1.509   3.306   3.796 -0.7820  0.6865 -0.3629
   45MOL   H27342601   1.434   3.343   3.593 -0.3408 -0.2534 -0.7981
   45MOL   H27442602   1.322   3.445   3.422 -0.4385 -1.8769  1.1066
   45MOL   H27542603   1.190   3.536   3.471 -0.9683 -0.1954 -0.0177
   45MOL   H27642604   1.055   3.318   3.482 -0.4124  1.8509 -1.0122
   45MOL   H27742605   1.191   3.224   3.420  1.1420  0.2271 -3.6357
   45MOL   H27842606   1.196   3.354   3.213  1.1412 -0.3424  0.8234
   45MOL   H27942607   1.060   3.452   3.280  2.7545  0.5741 -0.5994
   45MOL   H28042608   1.064   3.146   3.219 -0.1182  0.0834 -0.4837
   45MOL   H28142609   0.924   3.237   3.275  0.9632 -2.3412  0.1728
   45MOL   H28242610   0.977   3.395   3.065 -2.1697 -0.4152 -0.3462
   45MOL   H28342611   1.069   3.263   3.006  1.3864  0.3847  0.7159
   45MOL   H28442612   0.769   3.240   3.052 -0.3846  1.0443  1.5735
   45MOL   H28542613   0.867   3.117   2.991  0.7684  1.2702 -0.3330
   45MOL   H28642614   0.849   3.373   2.836  2.0211  0.5340  1.7724
   45MOL   H28742615   0.934   3.238   2.781 -1.4859 -1.9988 -0.5678
   45MOL   H28842616   0.730   3.261   2.665 -1.2784 -1.2378 -0.5850
   45MOL   H28942617   0.702   3.123   2.776  0.7261  0.0024 -2.4862
   45MOL   N29042618   0.511   3.202   2.880  0.3872  0.1672  0.1823
   45MOL   C29142619   0.403   3.240   2.970  0.7561 -0.4777  0.1707
   45MOL   C29242620   0.360   3.132   3.068 -0.3606 -0.3943 -0.0593
   45MOL   C29342621   0.463   3.068   3.143 -0.0230 -0.3688 -0.1165
   45MOL   C29442622   0.429   2.975   3.243  0.0988  0.3385 -0.0664
   45MOL   C29542623   0.292   2.942   3.263  0.2284  0.9301  0.1356
   45MOL   C29642624   0.184   3.009   3.193  0.0531 -0.2180  0.9551
   45MOL   C29742625   0.218   3.103   3.093 -0.6530  0.5144  0.5866
   45MOL   C29842626   0.109   3.174   3.015 -0.4267  0.1128  0.8740
   45MOL   N29942627   0.068   3.310   3.057  0.1001 -0.5001 -0.1298
   45MOL   C30042628   0.026   3.408   2.971  0.3540  0.5241 -0.7070
   45MOL   O30142629   0.045   3.391   2.850 -0.0664  0.5514  0.0514
   45MOL   C30242630   7.740   3.531   3.028  0.5867 -0.2870  0.8453
   45MOL   C30342631   7.654   3.591   2.914  0.5838  0.2683  0.1260
   45MOL   C30442632   7.546   3.687   2.964 -0.4488  0.2343 -0.8397
   45MOL   C30542633   7.601   3.823   3.019 -0.5005 -0.3812 -0.8073
   45MOL   C30642634   7.639   3.814   3.168 -0.2581 -0.2823 -0.0001
   45MOL   C30742635   7.665   3.954   3.230 -0.2246  0.1775  0.2061
   45MOL   C30842636   7.702   3.945   3.379  0.6002  0.1438  0.0537
   45MOL   C30942637   7.572   3.911   3.457  0.5405  0.3000  0.0766
   45MOL   C31042638   7.568   3.779   3.528 -0.3644 -0.0584  0.6317
   45MOL   O31142639   7.647   3.763   3.621  0.0433  0.4061  0.4718
   45MOL   H31242640   0.554   3.110   2.881 -3.0825 -1.5455 -1.7579
   45MOL   H31342641   0.439   3.323   3.030 -1.3777 -0.3202  1.2876
   45MOL   H31442642   0.318   3.271   2.909 -1.3043 -0.0717  3.1277
   45MOL   H31542643   0.564   3.090   3.110  0.3307 -0.5164  0.8663
   45MOL   H31642644   0.498   2.919   3.305 -0.1581  2.1155  1.8858
   45MOL   H31742645   0.265   2.865   3.334  1.8555  1.4374  1.3185
   45MOL   H31842646   0.080   2.980   3.203 -0.2131  0.2035 -0.5728
   45MOL   H31942647   0.022   3.111   3.028 -0.1231 -0.5427 -0.2819
   45MOL   H32042648   0.141   3.160   2.912  0.1541  0.3230  1.0238
   45MOL   H32142649   0.053   3.342   3.152 -1.6605 -1.0000 -0.2271
   45MOL   H32242650   7.679   3.500   3.112  1.9492 -1.6700  1.3568
   45MOL   H32342651   0.021   3.607   3.060 -0.1149 -0.1236  2.0195
   45MOL   H32442652   7.598   3.517   2.857  1.1619  1.1056 -1.5778
   45MOL   H32542653   7.717   3.649   2.846 -1.4685  1.0424 -1.1387
   45MOL   H32642654   7.482   3.635   3.036  1.6029  1.4495  1.9733
   45MOL   H32742655   7.490   3.709   2.873  0.2616  0.2212 -1.2834
   45MOL   H32842656   7.683   3.850   2.952  0.5040 -0.8764  0.2005
   45MOL   H32942657   7.516   3.892   3.018  0.4313  0.8405  0.8553
   45MOL   H33042658   7.567   3.758   3.227  0.9551 -1.2981  0.5165
   45MOL   H33142659   7.733   3.760   3.173 -0.6308 -0.9249  0.0751
   45MOL   H33242660   7.577   4.017   3.220 -1.5544 -1.2804  2.2583
   45MOL   H33342661   7.750   4.004   3.184 -0.8792  0.5801 -0.5790
   45MOL   H33442662   7.772   3.863   3.397 -2.2997 -2.2219  1.0077
   45MOL   H33542663   7.760   4.033   3.408  1.1308 -0.3221  0.4280
   45MOL   H33642664   7.563   3.977   3.543 -0.5564  2.0847 -1.3690
   45MOL   H33742665   7.481   3.920   3.398  0.5903  0.8386  0.0802
   45MOL   N33842666   7.473   3.684   3.499 -0.2350 -0.1851 -0.5188
   45MOL   C33942667   7.459   3.546   3.551 -0.2983  0.5583  0.0457
   45MOL   C34042668   7.485   3.436   3.445  0.7632 -0.0739  0.1837
   45MOL   C34142669   7.377   3.396   3.362 -0.0964 -0.9853  0.1153
   45MOL   C34242670   7.382   3.309   3.258 -0.4763  0.2871  0.2565
   45MOL   C34342671   7.506   3.244   3.235  0.6646  0.6484 -1.0300
   45MOL   C34442672   7.617   3.283   3.312 -0.8846 -0.1568  0.2360
   45MOL   C34542673   7.613   3.389   3.409  0.6762  0.4280 -0.7142
   45MOL   C34642674   7.740   3.442   3.480 -0.2445 -0.4258 -0.2348
   45MOL   N34742675   0.069   3.353   3.480  0.3731  1.3341  0.4216
   45MOL   C34842676   0.161   3.352   3.386 -0.1121 -0.2893 -0.0173
   45MOL   O34942677   0.150   3.419   3.284 -0.4950  0.0465 -0.2513
   45MOL   C35042678   0.284   3.277   3.416 -0.3923  0.2381  0.2714
   45MOL   C35142679   0.382   3.369   3.485  0.0159 -0.7460 -0.0636
   45MOL   C35242680   0.525   3.320   3.481  0.0609  0.3182 -0.5384
   45MOL   C35342681   0.588   3.345   3.339  0.0427  0.7308 -0.8649
   45MOL   C35442682   0.667   3.481   3.320 -0.0900 -0.1953 -0.3956
   45MOL   C35542683   0.674   3.540   3.177  0.1921  0.2357  0.0414
   45MOL   C35642684   0.781   3.639   3.140  0.3680 -0.0128  0.3483
   45MOL   C35742685   0.763   3.679   2.986 -0.6084  0.1259  0.8362
   45MOL   C35842686   0.897   3.695   2.914  0.5566  0.3981 -0.3023
   45MOL   O35942687   0.967   3.597   2.901 -0.2090  0.0530  0.1449
   45MOL   H36042688   7.408   3.706   3.424  1.0524 -1.3163 -2.0033
   45MOL   H36142689   7.526   3.523   3.634  0.9550  1.4585 -0.6988
   45MOL   H36242690   7.358   3.532   3.590 -0.0695 -0.2477  0.3689
   45MOL   H36342691   7.279   3.437   3.378 -0.6191 -1.6259 -1.3831
   45MOL   H36442692   7.294   3.279   3.203 -0.0067 -1.5989  0.5077
   45MOL   H36542693   7.498   3.171   3.156 -1.5145 -0.3907  0.0849
   45MOL   H36642694   7.712   3.236   3.287 -1.5163  0.7220 -4.2429
   45MOL   H36742695   7.724   3.468   3.585  0.8460 -0.8402  0.0419
   45MOL   H36842696   7.770   3.529   3.422  0.0048  0.4293  1.1518
   45MOL   H36942697   0.102   3.311   3.566  0.2720  0.7604  0.1834
   45MOL   H37042698   0.328   3.255   3.319 -0.5112 -1.3895  0.5641
   45MOL   H37142699   0.269   3.197   3.489  0.1176 -0.7299 -0.6749
   45MOL   H37242700   0.344   3.377   3.587  0.7307 -1.4225  0.2604
   45MOL   H37342701   0.375   3.470   3.445  3.5041  0.4265  2.0676
   45MOL   H37442702   0.589   3.374   3.551  2.5441 -1.0195 -1.6950
   45MOL   H37542703   0.534   3.216   3.516  0.5456  0.4281 -0.3242
   45MOL   H37642704   0.514   3.332   3.261 -0.0888 -0.5891 -0.5334
   45MOL   H37742705   0.663   3.267   3.325 -0.0834  0.5237 -0.4002
   45MOL   H37842706   0.606   3.549   3.380  1.7599 -0.3186  1.6825
   45MOL   H37942707   0.769   3.476   3.357 -0.2548 -2.2628 -0.1276
   45MOL   H38042708   0.576   3.580   3.153  0.4764 -0.6550 -2.8495
   45MOL   H38142709   0.683   3.457   3.106 -4.7941 -0.2914 -0.0934
   45MOL   H38242710   0.786   3.722   3.210  4.4143  1.3075 -1.3612
   45MOL   H38342711   0.877   3.588   3.149 -0.4298 -1.4224  1.2370
   45MOL   H38442712   0.715   3.777   2.991  1.2964  1.1319 -0.0813
   45MOL   H38542713   0.715   3.601   2.925 -0.8383  1.1981 -0.3873
   45MOL   N38642714   0.936   3.815   2.877  0.2762 -0.1560 -0.3882
   45MOL   C38742715   1.072   3.841   2.828  0.6158 -0.0602 -0.7634
   45MOL   C38842716   1.094   3.901   2.693 -0.9887  0.1545 -0.5523
   45MOL   C38942717   0.985   3.976   2.640 -0.6727  0.4182  0.2126
   45MOL   C39042718   1.005   4.057   2.531 -0.0510  0.4241 -0.1995
   45MOL   C39142719   1.134   4.065   2.476  0.8776  0.0194  0.3807
   45MOL   C39242720   1.238   3.986   2.523 -1.0046 -0.1239  0.8093
   45MOL   C39342721   1.217   3.899   2.636  0.8017 -0.7522  0.5440
   45MOL   C39442722   1.339   3.825   2.685  0.0843 -0.2154 -0.4783
   45MOL   N39542723   1.365   3.708   2.600  0.2078  0.1125  0.0842
   45MOL   C39642724   1.479   3.632   2.605  0.3895  0.4647 -0.7414
   45MOL   O39742725   1.554   3.644   2.700 -0.1884  0.5441  0.4637
   45MOL   C39842726   1.498   3.533   2.496 -0.5530  0.1939 -0.3840
   45MOL   C39942727   1.651   3.519   2.472 -0.0906  0.4495  0.0204
   45MOL   C40042728   1.688   3.427   2.353 -0.4039  1.0001  0.6455
   45MOL   C40142729   1.832   3.414   2.315 -0.0144  0.5193 -0.1129
   45MOL   C40242730   1.857   3.311   2.214 -0.2008 -0.6572 -0.0230
   45MOL   C40342731   1.852   3.373   2.070  0.5817  0.2048  0.2463
   45MOL   C40442732   1.858   3.283   1.957  0.1015 -0.2361  0.0938
   45MOL   C40542733   1.879   3.345   1.820  0.0961  0.6317  0.0353
   45MOL   C40642734   1.786   3.456   1.766  0.3168  0.5534  0.7266
   45MOL   O40742735   1.829   3.548   1.700  0.0571  0.0320  0.2401
   45MOL   H40842736   0.874   3.885   2.914 -1.0777 -0.8831 -1.2315
   45MOL   H40942737   1.106   3.916   2.898  1.5295 -1.0243 -0.1599
   45MOL   H41042738   1.134   3.756   2.857  0.9398  1.1333  2.2188
   45MOL   H41142739   0.883   3.973   2.676 -1.6844  0.3893 -2.5120
   45MOL   H41242740   0.923   4.117   2.493 -0.2152 -0.0082 -0.5260
   45MOL   H41342741   1.141   4.129   2.390 -0.2558  1.4737  1.3331
   45MOL   H41442742   1.332   3.980   2.470 -1.7760 -0.8192 -0.5099
   45MOL   H41542743   1.328   3.794   2.789  0.3692 -0.3501 -0.4896
   45MOL   H41642744   1.420   3.897   2.683  0.2179 -0.3538 -0.1802
   45MOL   H41742745   1.298   3.688   2.527 -0.7955 -0.2559  1.0924
   45MOL   H41842746   1.475   3.429   2.518  2.0830 -0.2496  0.4136
   45MOL   H41942747   1.444   3.575   2.412 -0.5773  1.0095  0.0294
   45MOL   H42042748   1.690   3.468   2.560 -1.9587  0.8037  1.0895
   45MOL   H42142749   1.699   3.616   2.456  0.5191 -0.1558 -1.8738
   45MOL   H42242750   1.635   3.469   2.267  2.0520  0.0159 -1.4150
   45MOL   H42342751   1.645   3.333   2.387 -1.4992  1.0380 -0.5946
   45MOL   H42442752   1.868   3.513   2.285 -2.0374  1.7077  1.2949
   45MOL   H42542753   1.895   3.399   2.403 -2.4139 -1.2974  1.3605
   45MOL   H42642754   1.952   3.262   2.233 -0.3741 -1.3060 -0.7847
   45MOL   H42742755   1.785   3.229   2.225  0.5935 -1.2361  0.9482
   45MOL   H42842756   1.925   3.453   2.062 -2.8519  3.5371  0.5681
   45MOL   H42942757   1.758   3.428   2.077  0.9598  1.0151 -0.9850
   45MOL   H43042758   1.774   3.213   1.954  0.5981 -0.8102 -0.9837
   45MOL   H43142759   1.939   3.211   1.969  0.7987  0.8173  1.7720
   45MOL   H43242760   1.878   3.267   1.744  0.4462 -1.1493  1.8134
   45MOL   H43342761   1.977   3.393   1.810  1.2450 -1.1888  2.1188
   45MOL   N43442762   1.653   3.450   1.800 -0.3997 -0.5838 -0.0164
   45MOL   C43542763   1.556   3.539   1.744 -0.6273  0.3069  0.6757
   45MOL   C43642764   1.441   3.473   1.679 -0.2125  0.5701 -0.2583
   45MOL   C43742765   1.329   3.433   1.756  0.2918 -0.0024 -0.1408
   45MOL   C43842766   1.221   3.367   1.699  0.0600 -0.5971  0.6465
   45MOL   C43942767   1.224   3.337   1.564 -0.0391 -0.1213  0.1757
   45MOL   C44042768   1.338   3.361   1.482  0.1825 -1.1313  0.0244
   45MOL   C44142769   1.445   3.440   1.543  0.5795 -0.4528  0.3366
   45MOL   C44242770   1.563   3.484   1.455 -0.8636 -0.4229  0.2284
   45MOL   N44342771   1.562   3.439   1.320  0.7466  0.2746 -0.5001
   45MOL   C44442772   1.610   3.517   1.224  0.0867  0.2195  0.1157
   45MOL   O44542773   1.656   3.627   1.241 -0.2345  0.2728  0.0144
   45MOL   C44642774   1.605   3.462   1.081  0.6126  0.7094  0.3548
   45MOL   C44742775   1.734   3.465   1.008 -1.1936 -0.6254 -0.2415
   45MOL   C44842776   1.857   3.406   1.094  0.1405  0.3952 -0.3426
   45MOL   C44942777   1.982   3.397   1.016 -0.6670 -0.0930  0.6376
   45MOL   C45042778   2.070   3.528   1.030  0.4555 -0.2149  0.5778
   45MOL   C45142779   2.170   3.525   1.143  0.0433 -0.5242  0.2601
   45MOL   C45242780   2.251   3.655   1.176  0.1178  0.1847  0.1347
   45MOL   C45342781   2.301   3.743   1.050 -0.1629 -0.1411  0.1934
   45MOL   C45442782   2.404   3.847   1.087 -0.1115 -0.3152  0.4623
   45MOL   O45542783   2.437   3.863   1.204 -0.6427 -0.1406 -0.4845
   45MOL   H45642784   1.630   3.405   1.888 -0.7340  1.7592  1.1235
   45MOL   H45742785   1.598   3.611   1.674  1.1344 -0.2159  1.1611
   45MOL   H45842786   1.517   3.592   1.831  0.6666 -2.6290  3.1381
   45MOL   H45942787   1.325   3.457   1.861  1.8663  2.8032 -0.6897
   45MOL   H46042788   1.139   3.331   1.759 -1.3539  0.4319 -0.6499
   45MOL   H46142789   1.147   3.279   1.515  1.9814 -1.8343 -1.0890
   45MOL   H46242790   1.338   3.340   1.376  0.7133  1.7534 -0.5777
   45MOL   H46342791   1.657   3.455   1.502 -0.6584 -2.1783 -1.1900
   45MOL   H46442792   1.566   3.592   1.466  1.4192 -0.6418  2.1279
   45MOL   H46542793   1.525   3.349   1.293 -1.0349  1.0964 -0.8333
   45MOL   H46642794   1.531   3.520   1.027 -0.9286  0.6516  2.3590
   45MOL   H46742795   1.564   3.361   1.085 -0.7461  1.0662 -3.0354
   45MOL   H46842796   1.756   3.571   1.000 -0.5608 -0.6946  0.5741
   45MOL   H46942797   1.745   3.430   0.905 -0.9222 -1.3158  0.0204
   45MOL   H47042798   1.872   3.454   1.190 -1.3021 -0.5107  0.3558
   45MOL   H47142799   1.831   3.303   1.120  0.9063  0.2024 -0.3161
   45MOL   H47242800   2.045   3.314   1.049 -0.7682  0.0350  1.1458
   45MOL   H47342801   1.956   3.375   0.912  0.5715  0.2606  0.2526
   45MOL   H47442802   2.123   3.547   0.936  0.7809 -1.1742  0.5649
   45MOL   H47542803   2.000   3.609   1.047  1.9957  1.5945 -1.3700
   45MOL   H47642804   2.246   3.456   1.108  0.6633  1.1593 -1.8358
   45MOL   H47742805   2.118   3.496   1.234 -0.5039 -1.1854 -0.2466
   45MOL   H47842806   2.193   3.733   1.226  1.3712  1.2195 -0.0151
   45MOL   H47942807   2.333   3.626   1.241  0.7303 -0.0401 -0.7267
   45MOL   H48042808   2.362   3.676   0.989  2.4418  0.7272  1.7894
   45MOL   H48142809   2.216   3.794   1.004 -0.5828 -0.9740  0.0115
   45MOL   N48242810   2.459   3.913   0.992  0.4703 -0.6131  0.2542
   45MOL   C48342811   2.545   4.027   1.016  0.3938  0.6600  0.4661
   45MOL   C48442812   2.700   4.001   1.012  0.6832  0.3609  0.0620
   45MOL   C48542813   2.753   3.946   0.894  0.0214 -0.8019 -0.0586
   45MOL   C48642814   2.894   3.935   0.877 -0.3924  0.3477 -0.3436
   45MOL   C48742815   2.976   3.964   0.987 -0.0544  0.2654 -0.4864
   45MOL   C48842816   2.922   4.013   1.109 -0.5701  0.3238 -0.1595
   45MOL   C48942817   2.785   4.041   1.121  0.2282  0.4403 -0.2431
   45MOL   C49042818   2.735   4.104   1.246  0.1387  0.1606 -0.0098
   45MOL   N49142819   2.651   4.026   1.337  0.1501 -0.1508 -0.4150
   45MOL   C49242820   2.637   4.047   1.470 -0.3122 -0.1067 -0.0022
   45MOL   O49342821   2.697   4.134   1.531  0.0796 -0.0824 -0.1007
   45MOL   C49442822   2.527   3.960   1.536 -0.1526 -0.0900 -0.8359
   45MOL   C49542823   2.563   3.855   1.647 -0.7026  0.4868 -0.6382
   45MOL   C49642824   2.457   3.754   1.675 -0.1957 -0.7575 -0.3279
   45MOL   C49742825   2.442   3.661   1.554 -0.9203 -0.4017  0.2136
   45MOL   C49842826   2.369   3.535   1.593  0.2188  0.1533  0.5262
   45MOL   C49942827   2.333   3.456   1.465 -0.4160 -0.6342 -0.2426
   45MOL   C50042828   2.236   3.331   1.487  0.1589 -0.4233  0.0709
   45MOL   C50142829   2.309   3.216   1.570 -0.1543  0.4927 -0.0558
   45MOL   C50242830   2.421   3.148   1.497 -0.1465  0.2634 -0.2449
   45MOL   O50342831   2.438   3.171   1.379  0.0224  0.0500 -0.0659
   45MOL   H50442832   2.436   3.886   0.898 -0.8061 -0.3211  0.4639
   45MOL   H50542833   2.507   4.103   0.948 -0.8653  0.8491  1.3687
   45MOL   H50642834   2.519   4.078   1.109 -2.0350 -1.1806  0.8501
   45MOL   H50742835   2.695   3.923   0.806  1.9024 -1.1708 -1.2280
   45MOL   H50842836   2.931   3.899   0.782  1.5752 -2.1296  1.3175
   45MOL   H50942837   3.080   3.939   0.972  0.3544  0.8963  1.1232
   45MOL   H51042838   2.982   4.031   1.197 -2.0736  1.2367  0.6816
   45MOL   H51142839   2.681   4.197   1.225  0.2888  0.1449 -0.4696
   45MOL   H51242840   2.823   4.141   1.298 -0.5644  1.2403  0.4326
   45MOL   H51342841   2.597   3.950   1.298  0.0380 -1.0974  1.5513
   45MOL   H51442842   2.477   3.905   1.456 -2.2995  1.1383 -0.3880
   45MOL   H51542843   2.458   4.035   1.575  0.5310 -1.6871  3.7641
   45MOL   H51642844   2.587   3.911   1.737 -0.2644 -0.0650 -0.4052
   45MOL   H51742845   2.656   3.801   1.632  0.2731  1.9892 -0.0668
   45MOL   H51842846   2.482   3.698   1.765  0.8513 -0.1735 -0.2539
   45MOL   H51942847   2.366   3.794   1.718  1.5814 -0.5202  3.3732
   45MOL   H52042848   2.393   3.711   1.471  1.0404  2.9587  1.0006
   45MOL   H52142849   2.541   3.641   1.513 -0.7267 -0.4149  0.6850
   45MOL   H52242850   2.416   3.469   1.666  1.7354  1.6824  0.9677
   45MOL   H52342851   2.277   3.573   1.637 -1.5146 -4.7123  1.4655
   45MOL   H52442852   2.424   3.429   1.411  0.1626  0.1488  0.3206
   45MOL   H52542853   2.279   3.523   1.397 -1.2821 -2.4766 -1.3921
   45MOL   H52642854   2.153   3.366   1.549  1.0666  2.1734 -0.0954
   45MOL   H52742855   2.188   3.298   1.395 -2.3235  1.2198  0.7045
   45MOL   H52842856   2.232   3.139   1.576 -0.2119  0.5517 -0.0349
   45MOL   H52942857   2.345   3.243   1.669  1.1014 -0.3749 -0.2681
   45MOL   N53042858   2.502   3.084   1.580  0.2994  0.0578  0.0421
   45MOL   C53142859   2.606   2.987   1.543  0.7693  0.3616  0.6550
   45MOL   C53242860   2.730   2.996   1.637  0.1977 -0.1818  0.3015
   45MOL   C53342861   2.766   2.888   1.713  0.8609  0.7171 -0.4978
   45MOL   C53442862   2.861   2.895   1.811  0.9471  0.1298  0.0694
   45MOL   C53542863   2.910   3.020   1.852 -0.3934  0.0550  0.4509
   45MOL   C53642864   2.884   3.127   1.764 -0.3090 -0.4723  0.0914
   45MOL   C53742865   2.794   3.120   1.656 -0.4919  0.4126  0.2791
   45MOL   C53842866   2.764   3.242   1.567 -0.0442 -0.8282 -0.3040
   45MOL   N53942867   2.837   3.357   1.605  0.0468 -0.0430 -0.3927
   45MOL   C54042868   2.796   3.468   1.675 -0.0465 -0.2364  0.3277
   45MOL   O54142869   2.682   3.491   1.712  0.5529 -0.9270 -0.2963
   45MOL   C54242870   2.914   3.560   1.712  0.5651  0.6319  0.1968
   45MOL   C54342871   2.974   3.622   1.582 -0.1942 -0.3316 -0.0775
   45MOL   C54442872   3.113   3.689   1.608  0.1777  0.4436  0.5465
   45MOL   C54542873   3.188   3.729   1.476 -0.4894  0.3719  0.2015
   45MOL   C54642874   3.322   3.811   1.492  0.3874  0.0975 -0.4473
   45MOL   C54742875   3.395   3.843   1.358  0.4265 -0.3025  0.3872
   45MOL   C54842876   3.395   3.989   1.328 -0.6167  0.2914  0.2287
   45MOL   C54942877   3.498   4.032   1.220 -0.0684  0.2040 -0.2338
   45MOL   C55042878   3.457   3.987   1.077  0.2345  0.3241  0.0919
   45MOL   O55142879   3.481   3.875   1.031  0.1024  0.6005 -0.0710
   45MOL   H55242880   2.479   3.094   1.678  0.4504 -1.2246  0.2120
   45MOL   H55342881   2.625   3.001   1.437  1.5766 -1.6431  0.5249
   45MOL   H55442882   2.582   2.881   1.547 -1.1613  0.7901  1.2552
   45MOL   H55542883   2.717   2.794   1.692 -0.7548  1.8859 -1.9531
   45MOL   H55642884   2.890   2.804   1.862  0.3943  0.1448  0.4166
   45MOL   H55742885   2.975   3.019   1.937  0.1376  1.8272  0.0933
   45MOL   H55842886   2.928   3.223   1.785 -2.5885  0.7108 -0.4433
   45MOL   H55942887   2.660   3.274   1.574  0.3456  0.3305  0.4808
   45MOL   H56042888   2.783   3.222   1.462  2.3323  0.5343 -0.1795
   45MOL   H56142889   2.927   3.367   1.560  0.3114  1.5799  0.4678
   45MOL   H56242890   2.991   3.499   1.758  1.4937  0.9595 -0.9070
   45MOL   H56342891   2.876   3.639   1.777  1.8163 -0.3542  2.1521
   45MOL   H56442892   2.907   3.697   1.540  1.5104  1.4245  0.2623
   45MOL   H56542893   2.974   3.543   1.507  3.3621  1.3888 -2.0480
   45MOL   H56642894   3.092   3.765   1.683  1.0451  1.7038 -0.4854
   45MOL   H56742895   3.178   3.616   1.657 -0.9258  0.6779  2.3955
   45MOL   H56842896   3.210   3.635   1.426  0.9075  1.3964 -1.2046
   45MOL   H56942897   3.118   3.779   1.409  0.6121 -0.1554 -1.3859
   45MOL   H57042898   3.300   3.903   1.546 -0.8618  0.3289 -1.3258
   45MOL   H57142899   3.389   3.755   1.557  0.2770  0.7578  0.2527
   45MOL   H57242900   3.372   3.789   1.266  1.5404 -0.3765  0.1413
   45MOL   H57342901   3.502   3.821   1.357  0.5146  0.1250  0.3812
   45MOL   H57442902   3.298   4.028   1.297 -2.5921 -2.5259  2.5147
   45MOL   H57542903   3.426   4.041   1.418  3.1414 -0.2640 -0.6782
   45MOL   H57642904   3.594   3.991   1.250 -1.5727 -1.2775  2.6875
   45MOL   H57742905   3.486   4.140   1.233 -3.7392 -0.1187 -0.5650
   45MOL   N57842906   3.383   4.077   1.005 -0.1728 -0.2742 -0.0173
   45MOL   C57942907   3.327   4.064   0.871  0.4560  0.5046  0.0835
   45MOL   C58042908   3.440   4.101   0.776  0.0797 -0.0666  0.4118
   45MOL   C58142909   3.524   4.205   0.800 -0.1365  0.0539  0.0626
   45MOL   C58242910   3.647   4.218   0.725  0.5433 -0.1068 -0.6558
   45MOL   C58342911   3.674   4.132   0.611 -0.0196 -0.4466 -0.0666
   45MOL   C58442912   3.593   4.021   0.595  0.4840 -0.3836  0.2272
   45MOL   C58542913   3.473   4.010   0.668 -0.4082 -0.2315  0.2489
   45MOL   C58642914   3.383   3.896   0.623 -0.2123  0.2353 -0.1428
   45MOL   N58742915   3.425   3.777   0.675  0.4176 -0.3885 -1.0073
   45MOL   C58842916   3.387   3.658   0.638 -0.3040  0.3072  0.4804
   45MOL   O58942917   3.303   3.635   0.550  0.0328  0.2309  0.5886
   45MOL   C59042918   3.459   3.548   0.711 -0.7863  0.2474  0.0623
   45MOL   C59142919   3.382   3.416   0.713 -0.4578 -0.0250  0.5701
   45MOL   C59242920   3.465   3.292   0.751 -0.6272  0.9421 -0.1778
   45MOL   C59342921   3.391   3.159   0.779 -0.5628  0.3039 -0.7920
   45MOL   C59442922   3.312   3.113   0.663  0.2962 -0.2610  0.8149
   45MOL   C59542923   3.233   2.983   0.685  0.2950  0.1861 -0.1897
   45MOL   C59642924   3.320   2.856   0.685 -0.2972 -0.1064  0.2333
   45MOL   C59742925   3.238   2.726   0.711 -0.7391 -0.2742  0.4337
   45MOL   C59842926   3.325   2.599   0.724  0.1094  0.0524  0.3198
   45MOL   O59942927   3.441   2.599   0.691  0.1941  0.1585 -0.5276
   45MOL   H60042928   3.389   4.173   1.034 -0.0416 -0.5453  0.8680
   45MOL   H60142929   3.243   4.131   0.855 -0.2385 -0.8071 -1.9686
   45MOL   H60242930   3.288   3.963   0.862 -0.1440  0.5974  1.4966
   45MOL   H60342931   3.509   4.262   0.891  4.1422  2.5291 -0.6338
   45MOL   H60442932   3.706   4.307   0.739 -0.6102  0.3234  1.7475
   45MOL   H60542933   3.770   4.135   0.562  0.0482  0.9436  0.1428
   45MOL   H60642934   3.620   3.941   0.527 -1.4233 -0.1007 -0.9146
   45MOL   H60742935   3.376   3.893   0.514 -0.5907  2.9241 -0.2173
   45MOL   H60842936   3.280   3.923   0.645 -0.3718  0.3525 -1.0138
   45MOL   H60942937   3.505   3.774   0.736  2.2038 -1.4256 -3.3109
   45MOL   H61042938   3.476   3.571   0.816 -0.3962  0.0520  0.0406
   45MOL   H61142939   3.558   3.528   0.671 -1.0879 -1.2548  0.0059
   45MOL   H61242940   3.338   3.389   0.618 -0.9127 -0.5684  0.9373
   45MOL   H61342941   3.292   3.420   0.774 -1.2123 -2.7007 -0.3427
   45MOL   H61442942   3.543   3.273   0.677  0.8141  0.0482  1.5270
   45MOL   H61542943   3.523   3.313   0.841 -1.1016  0.2914  0.2812
   45MOL   H61642944   3.463   3.084   0.814  0.0483 -0.1084 -2.8755
   45MOL   H61742945   3.320   3.174   0.861 -2.4378 -1.9222 -1.9332
   45MOL   H61842946   3.258   3.200   0.625 -1.1561 -2.4968 -2.4490
   45MOL   H61942947   3.388   3.092   0.587  0.5815  1.5780  0.5583
   45MOL   H62042948   3.160   2.972   0.604 -0.5264  1.1079  0.4091
   45MOL   H62142949   3.163   2.990   0.768  1.1907  2.3828  0.4045
   45MOL   H62242950   3.367   2.833   0.590  1.3529 -1.2560  1.3015
   45MOL   H62342951   3.408   2.871   0.747  1.9797 -4.4145 -1.7231
   45MOL   H62442952   3.171   2.730   0.797  0.4391  1.1272  1.3269
   45MOL   H62542953   3.165   2.709   0.632 -0.3892  0.1708  0.0085
   45MOL   N62642954   3.260   2.499   0.781  0.0981  0.4113  0.2738
   45MOL   C62742955   3.309   2.372   0.810  0.9544  0.0569  0.3098
   45MOL   C62842956   3.306   2.273   0.696 -0.2470 -0.1807  0.0781
   45MOL   C62942957   3.429   2.239   0.636 -0.6153 -0.8257  0.1453
   45MOL   C63042958   3.434   2.135   0.537 -0.9693 -0.5600 -0.3797
   45MOL   C63142959   3.316   2.068   0.501  0.3707  0.0656 -0.0432
   45MOL   C63242960   3.192   2.107   0.558  0.6590 -0.7963  0.4752
   45MOL   C63342961   3.189   2.207   0.662 -0.4013  0.1123  0.3894
   45MOL   C63442962   3.055   2.257   0.718 -0.8502 -0.0253 -0.0464
   45MOL   N63542963   2.944   2.197   0.681  0.3044  0.2091  0.5429
   45MOL   C63642964   2.841   2.251   0.617 -0.4700 -1.1093 -0.0808
   45MOL   O63742965   2.846   2.366   0.567  0.4606  0.3618 -0.5740
   45MOL   C63842966   2.715   2.170   0.603  0.1933 -0.4644  0.4826
   45MOL   C63942967   2.585   2.233   0.552 -0.5807  0.0926  0.5978
   45MOL   C64042968   2.462   2.143   0.515 -0.1605 -0.0609  0.3176
   45MOL   C64142969   2.341   2.210   0.457  0.0417  0.6138 -0.5117
   45MOL   C64242970   2.248   2.094   0.393  0.1230  0.9728  0.2043
   45MOL   C64342971   2.105   2.140   0.363  0.0198 -0.0816  0.0022
   45MOL   C64442972   2.087   2.261   0.269  0.5924  0.7163 -0.0370
   45MOL   C64542973   2.102   2.207   0.122 -0.1277  0.1582 -0.3363
   45MOL   C64642974   2.151   2.309   0.017 -0.2440 -0.3064  0.2934
   45MOL   O64742975   2.125   2.429   0.027 -0.0104 -0.1250 -0.5008
   45MOL   H64842976   3.169   2.521   0.818 -0.5218 -1.9465  0.2695
   45MOL   H64942977   3.260   2.319   0.891  1.4301 -0.8535  0.0079
   45MOL   H65042978   3.410   2.375   0.850  1.1977  1.8284 -0.3819
   45MOL   H65142979   3.518   2.289   0.672 -0.6479 -0.4042 -0.3530
   45MOL   H65242980   3.523   2.093   0.492 -1.5816 -2.2837 -0.0251
   45MOL   H65342981   3.318   2.000   0.417 -1.6287 -1.3687  1.0244
   45MOL   H65442982   3.101   2.062   0.521  1.0322  0.5269 -2.1424
   45MOL   H65542983   3.044   2.365   0.708 -0.2297 -0.1100 -1.7821
   45MOL   H65642984   3.062   2.230   0.824  1.1534  1.6261  0.2868
   45MOL   H65742985   2.936   2.102   0.715  1.4788 -0.6993 -1.6435
   45MOL   H65842986   2.704   2.121   0.700  2.4663 -1.0046  0.5098
   45MOL   H65942987   2.733   2.079   0.546 -1.9051  0.1239 -1.1697
   45MOL   H66042988   2.612   2.293   0.466  2.6263 -0.6260  1.0621
   45MOL   H66142989   2.551   2.296   0.634  0.1007  0.7961  0.3322
   45MOL   H66242990   2.499   2.066   0.447  1.3611  0.1348  0.9002
   45MOL   H66342991   2.425   2.092   0.603 -2.3344  0.6573 -0.1572
   45MOL   H66442992   2.295   2.275   0.532 -2.2756 -2.3058  0.7112
   45MOL   H66542993   2.367   2.278   0.376 -1.2961  0.5810 -0.9821
   45MOL   H66642994   2.290   2.047   0.304 -1.9015 -0.1969 -0.1638
   45MOL   H66742995   2.239   2.003   0.452 -0.9956 -0.2680 -1.8306
   45MOL   H66842996   2.054   2.166   0.456 -0.7237 -0.9404 -0.1574
   45MOL   H66942997   2.051   2.059   0.313  0.5230 -0.0997 -0.5104
   45MOL   H67042998   1.991   2.306   0.291 -0.5154 -1.8824  0.5779
   45MOL   H67142999   2.167   2.330   0.298  1.4845 -0.5969  0.6934
   45MOL   H67243000   2.007   2.173   0.079  0.6046  1.3543 -2.9798
   45MOL   H67343001   2.160   2.115   0.124 -0.8001 -0.2837 -0.8759
   45MOL   N67443002   2.233   2.272   7.712 -0.7967  0.2553 -0.0532
   45MOL   C67543003   2.294   2.350   7.603 -0.0923 -0.0755 -0.7892
   45MOL   C67643004   2.237   2.307   7.473 -0.0203 -0.1675  0.2553
   45MOL   C67743005   2.130   2.217   7.457 -0.0167 -0.1703  0.0113
   45MOL   C67843006   2.065   2.203   7.337  0.0968  0.1840  0.1833
   45MOL   C67943007   2.116   2.257   7.215 -0.0094 -0.6829  0.0280
   45MOL   C68043008   2.223   2.351   7.229  0.5300  0.1592  0.2207
   45MOL   C68143009   2.286   2.369   7.356 -0.5115 -0.3334  0.0300
   45MOL   C68243010   2.406   2.468   7.353 -0.1467 -0.0076  0.4533
   45MOL   N68343011   2.373   2.606   7.338  0.3883 -0.1378  0.2795
   45MOL   C68443012   2.400   2.697   7.432 -0.0073 -0.3495  0.1771
   45MOL   O68543013   2.432   2.667   7.545 -0.6333  0.0344  0.2005
   45MOL   C68643014   2.381   2.851   7.395  0.4912 -0.3723  0.2313
   45MOL   C68743015   2.414   2.939   7.507  0.7022 -0.0639  0.4806
   45MOL   C68843016   2.354   3.078   7.479 -0.0410  0.3142 -0.5128
   45MOL   C68943017   2.395   3.185   7.578 -0.6463 -0.4307 -0.1004
   45MOL   C69043018   2.545   3.230   7.559 -0.2994  0.5163  0.3892
   45MOL   C69143019   2.594   3.333   7.661 -0.2753  0.2125 -0.3425
   45MOL   C69243020   2.725   3.411   7.621  0.2740 -0.2009 -0.4263
   45MOL   C69343021   2.696   3.519   7.518  1.0575 -0.0520 -0.4130
   45MOL   C69443022   2.624   3.632   7.576  0.9334 -0.7561 -0.1582
   45MOL   O69543023   2.658   3.688   7.684  0.1234 -0.3215  0.1853
   45MOL   H69643024   2.258   2.175   7.707  0.6137  0.5210  1.2998
   45MOL   H69743025   2.402   2.342   7.619 -0.4667 -0.3727  1.8412
   45MOL   H69843026   2.271   2.455   7.617 -0.8766 -0.4380  0.6867
   45MOL   H69943027   2.077   2.175   7.541 -1.0229 -0.6094 -0.8248
   45MOL   H70043028   1.982   2.134   7.331 -0.3991  0.4405  3.5069
   45MOL   H70143029   2.067   2.241   7.120  0.6106  1.4356 -0.6646
   45MOL   H70243030   2.259   2.399   7.139  0.7846  1.9195  1.2289
   45MOL   H70343031   2.464   2.449   7.262  1.6536 -0.4561  1.6659
   45MOL   H70443032   2.487   2.450   7.423  1.8150  0.1080 -1.7051
   45MOL   H70543033   2.357   2.641   7.245 -0.4543  1.8428  1.1297
   45MOL   H70643034   2.273   2.860   7.381  0.6817 -0.9142 -1.7063
   45MOL   H70743035   2.425   2.883   7.300 -1.1085  0.9041 -0.0912
   45MOL   H70843036   2.522   2.949   7.516  0.7610 -0.5175  0.2838
   45MOL   H70943037   2.360   2.897   7.592 -1.4972 -1.5833 -1.6087
   45MOL   H71043038   2.376   3.117   7.379 -0.4887  3.0843  0.4173
   45MOL   H71143039   2.246   3.069   7.488  0.1371 -1.1753  0.3292
   45MOL   H71243040   2.325   3.268   7.573 -1.8006 -1.3379  0.6252
   45MOL   H71343041   2.379   3.157   7.682  1.5083 -1.4473 -0.0138
   45MOL   H71443042   2.615   3.148   7.571 -1.5926 -0.5304  0.9761
   45MOL   H71543043   2.562   3.254   7.454  2.5764  0.1766  0.7428
   45MOL   H71643044   2.613   3.293   7.761  2.3282  2.2039  0.0161
   45MOL   H71743045   2.515   3.406   7.683  1.2358  1.0378  2.5752
   45MOL   H71843046   2.801   3.342   7.584 -0.3018 -1.0289 -0.0639
   45MOL   H71943047   2.767   3.455   7.713 -0.0305 -3.2955  1.2461
   45MOL   H72043048   2.633   3.476   7.440  1.4167  1.2431 -1.4246
   45MOL   H72143049   2.788   3.554   7.473  0.6017  0.1972 -1.1536
   45MOL   N72243050   2.519   3.687   7.509  0.1788 -0.1854 -0.1055
   45MOL   C72343051   2.440   3.805   7.555 -0.2792  0.1127  0.5386
   45MOL   C72443052   2.294   3.805   7.512 -1.0352  0.2696 -0.8650
   45MOL   C72543053   2.253   3.896   7.414 -0.4548 -0.2113  0.0378
   45MOL   C72643054   2.117   3.903   7.379  0.0214 -0.5979  0.0710
   45MOL   C72743055   2.024   3.819   7.443  0.7620  0.0677 -0.0967
   45MOL   C72843056   2.065   3.740   7.546 -0.3756  0.8549 -0.5238
   45MOL   C72943057   2.201   3.723   7.577  0.4214 -0.4003  0.4368
   45MOL   C73043058   2.244   3.622   7.687  0.2208  0.6062 -0.2764
   45MOL   N73143059   2.134   3.570   7.766 -0.4961 -0.7163 -0.5378
   45MOL   C73243060   2.101   3.615   0.095 -0.2450  0.4912  0.3924
   45MOL   O73343061   2.155   3.712   0.148  0.0209  0.2307 -0.1430
   45MOL   C73443062   2.001   3.529   0.174 -0.3994  0.5566 -0.2230
   45MOL   C73543063   2.019   3.518   0.326  0.7835 -0.1996 -0.3885
   45MOL   C73643064   1.959   3.643   0.399  0.1294  0.3501  0.3028
   45MOL   C73743065   2.045   3.688   0.527 -0.3813 -0.1332  0.0574
   45MOL   C73843066   2.040   3.840   0.536  0.3909 -0.5837  0.2744
   45MOL   C73943067   2.073   3.897   0.671  0.6108 -0.0295  0.6208
   45MOL   C74043068   2.080   4.054   0.673  0.1754  0.2455  0.3908
   45MOL   C74143069   1.946   4.119   0.644  0.2364 -0.5920  0.4679
   45MOL   C74243070   1.941   4.263   0.679 -0.0742 -0.3129 -0.7510
   45MOL   O74343071   2.019   4.313   0.768  0.9193 -0.4016 -0.2185
   45MOL   H74443072   2.484   3.644   7.425  1.2213  0.6038 -0.9622
   45MOL   H74543073   2.508   3.874   7.505  0.7339 -1.3913 -0.2106
   45MOL   H74643074   2.457   3.834   7.659  0.6799 -0.8699  0.6776
   45MOL   H74743075   2.337   3.950   7.372 -0.9365  0.1750 -0.4330
   45MOL   H74843076   2.089   3.968   7.297  0.0902 -0.9534 -0.2376
   45MOL   H74943077   1.925   3.807   7.401  0.3064 -0.2008  1.0419
   45MOL   H75043078   1.989   3.673   7.582  1.4184 -1.2732 -0.6117
   45MOL   H75143079   2.311   3.678   7.753  1.1799  0.7088 -1.3201
   45MOL   H75243080   2.300   3.538   7.646  2.3330  1.5145  0.6420
   45MOL   H75343081   2.079   3.502   7.715  0.9057  0.1156 -3.2673
   45MOL   H75443082   2.025   3.429   0.137 -2.2362 -0.4131  1.1332
   45MOL   H75543083   1.897   3.552   0.149  0.0041  1.3997 -1.1515
   45MOL   H75643084   2.124   3.506   0.353  0.9926 -0.9967 -1.5274
   45MOL   H75743085   1.964   3.430   0.358  0.9334 -0.6122 -1.2376
   45MOL   H75843086   1.954   3.711   0.315 -0.8774 -0.6715 -0.4799
   45MOL   H75943087   1.854   3.637   0.428 -0.1974 -0.9693 -1.0908
   45MOL   H76043088   1.989   3.647   0.611 -2.7711 -0.1009 -1.4740
   45MOL   H76143089   2.145   3.647   0.531 -0.7047 -0.7404  2.7344
   45MOL   H76243090   2.113   3.864   0.459 -0.3310 -0.4282 -0.3656
   45MOL   H76343091   1.941   3.869   0.504  0.6057  0.8482  0.8587
   45MOL   H76443092   2.161   3.858   0.723  0.3640  2.5103  3.0650
   45MOL   H76543093   1.997   3.854   0.737  0.2698 -1.8903 -0.9409
   45MOL   H76643094   2.099   4.077   0.778 -0.8205  1.2207  0.3645
   45MOL   H76743095   2.161   4.093   0.611 -1.4618  2.8321 -0.1964
   45MOL   H76843096   1.908   4.096   0.544  1.2671  2.2874 -0.6300
   45MOL   H76943097   1.875   4.078   0.716 -2.1756 -1.5638 -2.3716
   45MOL   N77043098   1.850   4.334   0.617 -0.0763  0.0585  0.3064
   45MOL   C77143099   1.797   4.461   0.647 -0.3078  0.2689 -0.5572
   45MOL   C77243100   1.651   4.453   0.695 -0.2480  0.3558  0.4910
   45MOL   C77343101   1.618   4.492   0.823 -0.1914  0.3212 -0.0439
   45MOL   C77443102   1.494   4.473   0.881  0.4059 -0.0938 -0.5583
   45MOL   C77543103   1.388   4.430   0.802 -0.0289  0.4978  0.4076
   45MOL   C77643104   1.414   4.386   0.663  0.4210 -0.1214  0.1963
   45MOL   C77743105   1.543   4.399   0.617 -0.0106  0.8158 -0.3438
   45MOL   C77843106   1.570   4.363   0.463  0.5788  0.4185 -0.0651
   45MOL   N77943107   1.604   4.221   0.451  0.8427 -0.0282 -0.3115
   45MOL   C78043108   1.517   4.124   0.462  0.2232 -1.1247 -0.0674
   45MOL   O78143109   1.397   4.138   0.470 -0.1122 -0.1757 -0.5739
   45MOL   C78243110   1.571   3.985   0.479 -0.5489  0.3947  0.5318
   45MOL   C78343111   1.593   3.907   0.355  0.0421  0.6140  0.0009
   45MOL   C78443112   1.459   3.846   0.313  0.5429  0.0933 -1.0983
   45MOL   C78543113   1.477   3.766   0.183  0.0913 -0.2208  0.4861
   45MOL   C78643114   1.539   3.619   0.195  0.1504 -0.4224  0.1655
   45MOL   C78743115   1.567   3.565   0.053  0.4583  0.1461 -0.0091
   45MOL   C78843116   1.640   3.429   0.059  0.8019  0.5335 -0.1468
   45MOL   C78943117   1.676   3.356   7.713 -0.4561  0.0589  0.3130
   45MOL   C79043118   1.749   3.441   7.618  0.0583 -0.4767 -0.2526
   45MOL   O79143119   1.860   3.483   7.655  0.0112 -0.3950  0.5310
   45MOL   H79243120   1.794   4.294   0.543  1.1389  0.3480 -0.7683
   45MOL   H79343121   1.863   4.499   0.725 -0.3811 -3.3710  1.3570
   45MOL   H79443122   1.797   4.529   0.562 -0.8713  0.4499 -0.4178
   45MOL   H79543123   1.693   4.535   0.887 -2.6501  1.1328  2.3709
   45MOL   H79643124   1.478   4.501   0.984 -0.5110 -1.0476 -0.4248
   45MOL   H79743125   1.289   4.427   0.845  0.7118  0.4110  2.1222
   45MOL   H79843126   1.334   4.344   0.602 -0.6182 -0.2364  1.6170
   45MOL   H79943127   1.635   4.428   0.405  0.7255 -0.4535 -0.8800
   45MOL   H80043128   1.474   4.379   0.415  0.9571  1.5025 -0.4575
   45MOL   H80143129   1.701   4.204   0.430  1.2715  0.5661  1.1220
   45MOL   H80243130   1.504   3.931   0.547  1.6285 -1.0234  1.6286
   45MOL   H80343131   1.669   3.992   0.525  0.0955  3.4125 -1.1801
   45MOL   H80443132   1.648   3.815   0.377  0.3793  0.9729  0.6607
   45MOL   H80543133   1.648   3.951   0.272  0.4979 -0.1378 -0.1044
   45MOL   H80643134   1.387   3.925   0.292  2.5293  2.0682 -0.6902
   45MOL   H80743135   1.413   3.792   0.396  1.5698  2.4007  1.0547
   45MOL   H80843136   1.383   3.759   0.127 -0.2285  1.2121  0.8276
   45MOL   H80943137   1.538   3.825   0.115 -1.9041  1.4916  0.1220
   45MOL   H81043138   1.630   3.611   0.255  1.0096 -1.3975 -1.2379
   45MOL   H81143139   1.461   3.562   0.246 -0.6382 -0.0756 -0.6348
   45MOL   H81243140   1.638   3.626   7.786  0.6910  0.5009  0.6496
   45MOL   H81343141   1.478   3.542   7.785  1.1843  0.5751 -1.3311
   45MOL   H81443142   1.566   3.365   0.107  0.6522  0.4372 -0.5022
   45MOL   H81543143   1.727   3.445   0.122  2.1131 -0.1187 -1.7707
   45MOL   H81643144   1.581   3.339   7.663  0.8028 -2.7798 -1.2477
   45MOL   H81743145   1.735   3.268   7.740 -0.5395  0.3949  1.6553
   45MOL   N81843146   1.692   3.461   7.501 -0.0228 -0.3544 -0.0901
   45MOL   C81943147   1.745   3.534   7.383 -0.0393 -0.3166  0.6297
   45MOL   C82043148   1.688   3.493   7.245  0.0093  1.4519  0.2243
   45MOL   C82143149   1.632   3.361   7.225 -0.1524 -0.2772  0.5952
   45MOL   C82243150   1.584   3.325   7.100 -1.1327 -0.5962 -0.5003
   45MOL   C82343151   1.585   3.412   6.990  0.9731 -0.4986 -0.2388
   45MOL   C82443152   1.647   3.539   7.003 -0.9846 -0.2289 -0.2808
   45MOL   C82543153   1.697   3.576   7.131 -0.3482 -0.0480 -0.7288
   45MOL   C82643154   1.764   3.716   7.147  0.0505 -0.3140 -0.0024
   45MOL   N82743155   1.858   3.739   7.034 -0.0172 -0.1466 -0.3800
   45MOL   C82843156   1.917   3.858   7.007 -1.0498 -0.0214 -0.1440
   45MOL   O82943157   1.916   3.955   7.081  0.0274  0.5448 -0.1182
   45MOL   C83043158   1.963   3.879   6.862  0.0631 -0.4882 -0.1939
   45MOL   C83143159   2.095   3.803   6.831 -0.2967 -0.3779 -0.5843
   45MOL   C83243160   2.226   3.886   6.858  0.0652  0.2729  0.0501
   45MOL   C83343161   2.239   3.901   7.011  0.8350 -0.5510  0.2793
   45MOL   C83443162   2.380   3.934   7.065 -0.1930 -0.3001 -0.2554
   45MOL   C83543163   2.462   3.802   7.081  0.0577 -0.3058  0.2048
   45MOL   C83643164   2.600   3.800   7.164  0.2306 -0.4649 -0.4281
   45MOL   C83743165   2.664   3.666   7.192  0.7025  0.1920  0.1352
   45MOL   C83843166   2.674   3.587   7.061  0.2521  0.1280 -0.2690
   45MOL   O83943167   2.594   3.498   7.029  0.4002 -0.8951 -0.7152
   45MOL   H84043168   1.599   3.424   7.489 -1.0499  1.9342  0.5664
   45MOL   H84143169   1.730   3.641   7.394  1.4452 -0.0598  0.2952
   45MOL   H84243170   1.854   3.536   7.383  0.0360 -2.4079  1.8515
   45MOL   H84343171   1.618   3.291   7.305 -2.6249 -0.8040 -0.2521
   45MOL   H84443172   1.534   3.229   7.093 -1.3598 -0.3886 -1.9184
   45MOL   H84543173   1.525   3.392   6.902 -0.1013  0.4345  0.2619
   45MOL   H84643174   1.647   3.615   6.926 -0.5520  1.1873  1.0865
   45MOL   H84743175   1.828   3.729   7.234  0.5796  0.6607 -0.5347
   45MOL   H84843176   1.689   3.795   7.151 -0.4597 -0.7006 -1.8252
   45MOL   H84943177   1.873   3.664   6.969 -1.6873 -0.6061 -0.2654
   45MOL   H85043178   1.976   3.987   6.847  2.0229 -0.4589  1.3632
   45MOL   H85143179   1.878   3.849   6.801 -0.6585  1.0732  0.0091
   45MOL   H85243180   2.083   3.767   6.728 -0.0826 -1.8457 -0.1053
   45MOL   H85343181   2.103   3.715   6.895  4.0967  1.6029  1.7791
   45MOL   H85443182   2.225   3.981   6.807  0.8498 -0.5226 -1.4724
   45MOL   H85543183   2.312   3.841   6.808  0.3140  0.6239  0.1638
   45MOL   H85643184   2.161   3.969   7.045 -1.5490 -2.6529 -0.8818
   45MOL   H85743185   2.204   3.812   7.063 -0.3024 -0.8184 -0.9313
   45MOL   H85843186   2.432   3.998   6.993  1.1958  0.1354  1.0967
   45MOL   H85943187   2.359   3.983   7.160 -0.3573  0.5691 -0.7339
   45MOL   H86043188   2.467   3.754   6.983  0.2665  1.7988 -0.8241
   45MOL   H86143189   2.397   3.748   7.150  0.9393 -0.5555  0.8500
   45MOL   H86243190   2.581   3.853   7.257 -0.2170  0.4230 -1.0179
   45MOL   H86343191   2.670   3.861   7.107 -0.4542  1.8538  1.1214
   45MOL   H86443192   2.761   3.690   7.236  0.2418  1.2205  0.6138
   45MOL   H86543193   2.591   3.608   7.249 -0.0573  1.1456  0.1600
   45MOL   N86643194   2.767   3.634   6.978 -0.1521  0.8493 -0.2544
   45MOL   C86743195   2.764   3.631   6.835  0.9484  0.6707 -0.2641
   45MOL   C86843196   2.748   3.776   6.783 -0.4131  0.3508  0.7131
   45MOL   C86943197   2.617   3.809   6.737 -0.9533 -0.6377 -0.2469
   45MOL   C87043198   2.587   3.944   6.713 -0.3296  0.0017  0.0842
   45MOL   C87143199   2.683   4.046   6.718 -0.7488 -0.0273 -0.2137
   45MOL   C87243200   2.812   4.011   6.762 -0.7729 -0.4001  0.3592
   45MOL   C87343201   2.847   3.880   6.796 -0.6457  0.9247 -0.2390
   45MOL   C87443202   2.991   3.853   6.844  1.0349 -0.1454  0.8927
   45MOL   N87543203   3.060   3.971   6.895  0.5943 -0.2935 -0.4241
   45MOL   C87643204   3.024   4.020   7.016 -0.1349 -0.2333 -0.1066
   45MOL   O87743205   2.976   3.952   7.105 -0.0756 -0.2105  0.0679
   45MOL   C87843206   3.075   4.159   7.043 -0.5163  0.7283  0.3382
   45MOL   C87943207   2.980   4.248   7.129 -0.3746 -0.8381 -0.2125
   45MOL   C88043208   2.842   4.271   7.062 -0.0029  0.1446  0.8340
   45MOL   C88143209   2.846   4.367   6.941  0.0131  0.2494 -0.5443
   45MOL   C88243210   2.707   4.416   6.897  0.4897 -0.1807 -0.0641
   45MOL   C88343211   2.718   4.506   6.781  0.0059 -0.3878  0.0547
   45MOL   C88443212   2.580   4.514   6.709  0.0859  0.7337 -0.4045
   45MOL   C88543213   2.460   4.572   6.786 -0.5988  0.6843 -0.3819
   45MOL   C88643214   2.463   4.712   6.842 -0.0437 -0.1055  0.1621
   45MOL   O88743215   2.458   4.814   6.771 -0.5358  0.0710  0.3545
   45MOL   H88843216   2.830   3.706   7.011  1.3861 -0.9140  0.7809
   45MOL   H88943217   2.853   3.583   6.795  0.4305 -1.2825  0.8177
   45MOL   H89043218   2.686   3.571   6.787 -0.1762  0.8482  1.2994
   45MOL   H89143219   2.542   3.731   6.737  0.4410 -2.0488  2.8099
   45MOL   H89243220   2.482   3.962   6.696 -0.8209  1.0213  3.7098
   45MOL   H89343221   2.650   4.148   6.707  0.2424  0.1582 -1.6298
   45MOL   H89443222   2.894   4.081   6.764 -0.2181 -0.9771 -1.4147
   45MOL   H89543223   3.042   3.810   6.757 -1.7738 -1.0955 -0.3387
   45MOL   H89643224   2.996   3.772   6.918 -0.3479 -0.6029  0.4995
   45MOL   H89743225   3.111   4.029   6.829  1.5147 -2.3798 -1.5774
   45MOL   H89843226   3.078   4.210   6.947 -1.6300  0.2792  0.0683
   45MOL   H89943227   3.176   4.168   7.084 -1.0930  0.2256  1.9282
   45MOL   H90043228   3.020   4.346   7.154  0.7224 -1.8041  1.9704
   45MOL   H90143229   2.964   4.199   7.225 -0.8043 -0.4476 -0.0829
   45MOL   H90243230   2.804   4.170   7.044 -0.7389  0.2928  1.5429
   45MOL   H90343231   2.767   4.302   7.134 -0.4832 -1.8521  1.2279
   45MOL   H90443232   2.918   4.449   6.949  2.9501 -2.2340 -0.6196
   45MOL   H90543233   2.887   4.318   6.853 -0.8163 -2.3961  0.5220
   45MOL   H90643234   2.642   4.330   6.882  0.0842  0.3511 -1.4251
   45MOL   H90743235   2.660   4.455   6.987  0.8971 -1.1045  0.5641
   45MOL   H90843236   2.789   4.463   6.710  0.9696  1.1096  0.0792
   45MOL   H90943237   2.766   4.600   6.809  1.1132 -1.2459  1.0680
   45MOL   H91043238   2.603   4.572   6.620  0.1446  2.3793  0.6547
   45MOL   H91143239   2.536   4.421   6.671 -0.9207  1.4908 -1.1423
   45MOL   H91243240   2.372   4.562   6.722 -1.4232  0.1926  0.8113
   45MOL   H91343241   2.432   4.504   6.866 -0.4568  0.3867 -0.5872
   45MOL   N91443242   2.496   4.716   6.972  0.0914  0.0259 -0.2581
   45MOL   C91543243   2.544   4.830   7.045  0.2022  0.2803  0.2894
   45MOL   C91643244   2.697   4.829   7.051  0.1278  0.0134 -0.1521
   45MOL   C91743245   2.759   4.887   6.938 -0.7994 -0.2046  0.7471
   45MOL   C91843246   2.899   4.873   6.923  0.3976  0.5536 -0.4395
   45MOL   C91943247   2.981   4.801   7.016 -0.2039  0.9563 -0.4644
   45MOL   C92043248   2.913   4.741   7.127  0.0189  0.4807  0.3283
   45MOL   C92143249   2.774   4.757   7.149  0.1185  0.1264 -0.3233
   45MOL   C92243250   2.710   4.684   7.263  0.1601 -0.4302  0.5548
   45MOL   N92343251   2.788   4.692   7.388  0.8845  0.9940 -0.0311
   45MOL   C92443252   2.784   4.598   7.485 -0.5791  0.6226 -0.0851
   45MOL   O92543253   2.706   4.501   7.493  0.2598 -0.0818  0.8128
   45MOL   C92643254   2.879   4.619   7.600  0.1992 -0.6559 -0.7234
   45MOL   C92743255   3.010   4.555   7.576 -0.0994  0.3063 -0.0274
   45MOL   C92843256   3.105   4.538   7.698  0.4606  0.0179 -0.1451
   45MOL   C92943257   3.247   4.490   7.666 -0.3338 -0.3752  0.5609
   45MOL   C93043258   3.318   4.444   0.006  0.3114 -0.0297  0.3911
   45MOL   C93143259   3.466   4.429   7.761  0.0816  0.2376 -0.2339
   45MOL   C93243260   3.533   4.416   0.107  0.7839  0.6517  0.6928
   45MOL   C93343261   3.684   4.383   0.097 -0.2081 -0.1116 -0.2151
   45MOL   C93443262   3.748   4.426   0.225 -0.1892 -0.0568 -0.2931
   45MOL   O93543263   3.722   4.368   0.332 -0.4232 -0.3239 -0.0908
   45MOL   H93643264   2.491   4.627   7.020 -0.7913 -1.4177 -2.9238
   45MOL   H93743265   2.520   4.920   6.990  1.9178  0.0899 -0.7724
   45MOL   H93843266   2.492   4.841   7.141 -1.5415 -0.2062 -0.5799
   45MOL   H93943267   2.701   4.945   6.867  0.3705 -1.5061 -1.3272
   45MOL   H94043268   2.940   4.925   6.838 -0.2249  0.8511 -0.5636
   45MOL   H94143269   3.088   4.791   7.009 -0.1777  1.9930 -1.9343
   45MOL   H94243270   2.967   4.687   7.202  0.3728  0.0936 -0.2033
   45MOL   H94343271   2.707   4.582   7.226  1.0966 -0.1340 -0.3510
   45MOL   H94443272   2.607   4.713   7.284  0.0504  1.2167 -2.0740
   45MOL   H94543273   2.862   4.760   7.388  1.8491 -0.0082  0.9812
   45MOL   H94643274   2.834   4.570   7.686  0.1956  0.2010 -0.2356
   45MOL   H94743275   2.888   4.723   7.630  0.8020 -0.8369 -0.2813
   45MOL   H94843276   3.065   4.606   7.497  0.1434  1.8726  1.1243
   45MOL   H94943277   3.010   4.458   7.526  0.3086  0.3711 -0.1523
   45MOL   H95043278   3.112   4.638   7.741  0.4860 -0.3039  0.6087
   45MOL   H95143279   3.055   4.475   7.771  2.3970 -2.1369 -0.5963
   45MOL   H95243280   3.240   4.405   7.598 -1.7958  0.2351 -0.0760
   45MOL   H95343281   3.299   4.570   7.613 -0.9754 -0.7211 -0.6213
   45MOL   H95443282   3.275   4.356   0.052  0.9708 -1.2566 -1.2632
   45MOL   H95543283   3.296   4.524   0.076 -0.1124 -0.1649  0.4150
   45MOL   H95643284   3.490   4.340   7.703  2.3317  0.9811 -0.5162
   45MOL   H95743285   3.512   4.514   7.712 -1.4979  1.8373  1.0055
   45MOL   H95843286   3.486   4.331   0.158  0.6732 -0.0812 -0.6217
   45MOL   H95943287   3.534   4.510   0.163 -0.7870  0.7577  0.5404
   45MOL   H96043288   3.722   4.444   0.015  1.2512  1.1982  1.3924
   45MOL   H96143289   3.709   4.279   0.074  1.7577  0.3407 -0.2513
   45MOL   H96243290   3.804   4.520   0.223  1.3142 -0.9108  0.9871
   46MOL     N143291   2.626   1.663   3.311  0.1119  0.4441 -0.1981
   46MOL     C243292   2.591   1.803   3.291 -0.2977 -0.1735 -0.7014
   46MOL     C343293   2.454   1.826   3.237 -0.4995 -0.1138 -0.4178
   46MOL     C443294   2.434   1.843   3.095  0.0740 -0.1654 -0.0587
   46MOL     C543295   2.306   1.879   3.051  0.0661  0.7317 -0.0885
   46MOL     C643296   2.193   1.886   3.142  0.4352  0.1472  0.0067
   46MOL     C743297   2.215   1.868   3.281 -0.8243 -0.3557 -0.1497
   46MOL     C843298   2.345   1.841   3.329  0.0048  0.4805 -0.2556
   46MOL     C943299   2.375   1.824   3.482 -0.2247 -0.1013 -0.2542
   46MOL    N1043300   2.428   1.697   3.512  0.0343  0.1022 -0.7425
   46MOL    C1143301   2.430   1.639   3.629 -0.1975  0.0743 -0.6900
   46MOL    O1243302   2.391   1.687   3.737 -0.5069 -0.1921 -0.1013
   46MOL    C1343303   2.470   1.493   3.630 -0.1748 -0.6506  0.3272
   46MOL    C1443304   2.429   1.418   3.760  0.1530 -0.3067  0.1860
   46MOL    C1543305   2.453   1.263   3.748  0.5461 -0.1386 -0.5753
   46MOL    C1643306   2.594   1.216   3.707  0.4089 -0.0355 -0.1349
   46MOL    C1743307   2.630   1.233   3.559  0.1967  0.0736  0.0641
   46MOL    C1843308   2.740   1.142   3.495 -0.0745  0.0560  0.6829
   46MOL    C1943309   2.749   1.173   3.346  0.6600  0.2087  0.1918
   46MOL    C2043310   2.647   1.126   3.247 -0.5369  0.8892  0.6297
   46MOL    C2143311   2.557   1.235   3.191  0.3562  0.2265 -0.2687
   46MOL    O2243312   2.553   1.341   3.252 -0.1688 -0.2422 -0.2361
   46MOL    H2343313   2.695   1.646   3.240 -0.7190  2.0665 -1.4419
   46MOL    H2443314   2.618   1.862   3.378 -0.6853  1.1954 -1.4993
   46MOL    H2543315   2.668   1.849   3.229  0.4326  0.6248  0.7702
   46MOL    H2643316   2.519   1.841   3.028 -1.1739 -0.3155 -1.6664
   46MOL    H2743317   2.298   1.917   2.950  2.1233 -0.4028 -0.6995
   46MOL    H2843318   2.092   1.918   3.120  1.4384  2.4941 -1.4285
   46MOL    H2943319   2.135   1.874   3.353 -0.2717 -0.4367  0.4796
   46MOL    H3043320   2.279   1.834   3.532 -1.7078 -1.1393 -2.8013
   46MOL    H3143321   2.447   1.900   3.512 -0.2303 -0.3030  0.2683
   46MOL    H3243322   2.484   1.648   3.444  0.8998 -0.9416  0.7028
   46MOL    H3343323   2.578   1.506   3.632 -0.0605 -1.4080 -0.6772
   46MOL    H3443324   2.434   1.446   3.539  1.1084 -0.6246 -0.2013
   46MOL    H3543325   2.327   1.438   3.793 -0.1756 -0.6423 -0.6202
   46MOL    H3643326   2.488   1.462   3.841  0.4993  0.2437 -0.3694
   46MOL    H3743327   2.443   1.218   3.847 -0.9577 -1.1388 -1.1578
   46MOL    H3843328   2.378   1.215   3.684  0.0653  0.9387 -0.8407
   46MOL    H3943329   2.666   1.269   3.770  1.8750  0.1835 -1.9462
   46MOL    H4043330   2.619   1.116   3.741 -0.7667 -0.3244 -0.0904
   46MOL    H4143331   2.536   1.231   3.504  0.4001  1.3215 -0.3310
   46MOL    H4243332   2.660   1.336   3.540 -1.6091  0.3534 -1.3727
   46MOL    H4343333   2.706   1.039   3.508 -1.1508  0.2862 -0.2836
   46MOL    H4443334   2.834   1.164   3.546  1.1812 -2.0364 -0.6499
   46MOL    H4543335   2.775   1.279   3.346  0.5472  0.2774  3.0700
   46MOL    H4643336   2.842   1.124   3.319 -0.4688 -1.1981 -1.1679
   46MOL    H4743337   2.576   1.050   3.281  1.1096 -0.9842 -0.0885
   46MOL    H4843338   2.705   1.090   3.163 -1.9461  0.8821 -0.3561
   46MOL    H4943339   2.552   1.600   3.282  1.4982 -1.3340  0.0708
   46MOL    N5043340   2.481   1.213   3.082  0.2372  0.2442  0.6777
   46MOL    C5143341   2.433   1.323   3.000  0.5181 -0.1693 -0.3168
   46MOL    C5243342   2.531   1.357   2.891  0.7025  0.3881  0.4284
   46MOL    C5343343   2.609   1.471   2.909 -0.7150  0.2110  0.4266
   46MOL    C5443344   2.712   1.491   2.813 -0.5700 -0.7951 -0.7276
   46MOL    C5543345   2.731   1.404   2.706  0.0645 -0.0259 -0.8704
   46MOL    C5643346   2.648   1.298   2.689 -0.1693 -0.3387 -0.3785
   46MOL    C5743347   2.550   1.272   2.784  0.2550  0.9276 -0.8645
   46MOL    C5843348   2.462   1.153   2.755 -0.3966  0.1860  0.2544
   46MOL    N5943349   2.533   1.028   2.774 -0.1141 -0.3446 -0.3492
   46MOL    C6043350   2.531   0.934   2.872 -0.1051  0.2298 -0.2503
   46MOL    O6143351   2.461   0.946   2.970 -0.3531 -0.5843  0.1117
   46MOL    C6243352   2.636   0.818   2.855  0.2750  0.5304 -1.3384
   46MOL    C6343353   2.652   0.735   2.989 -0.2234 -0.4229  0.0879
   46MOL    C6443354   2.754   0.624   2.973 -1.0724 -0.3994  0.4615
   46MOL    C6543355   2.894   0.657   2.910  0.3581  0.5747  0.6640
   46MOL    C6643356   2.977   0.768   2.986  0.3617 -0.3864  0.1520
   46MOL    C6743357   3.120   0.776   2.941  0.4242  0.0141  0.0423
   46MOL    C6843358   3.130   0.816   2.799 -0.1050 -0.5547  0.5844
   46MOL    C6943359   3.276   0.811   2.757  0.1242 -0.2207  0.4598
   46MOL    C7043360   3.297   0.887   2.619 -0.3586  0.5673 -0.6572
   46MOL    O7143361   3.208   0.906   2.543  0.3001 -0.2775  0.6506
   46MOL    H7243362   2.482   1.121   3.041  0.8998 -0.0543  1.3357
   46MOL    H7343363   2.418   1.415   3.057 -3.2436 -1.3583  0.7206
   46MOL    H7443364   2.337   1.297   2.954 -0.3729 -0.5256  1.7124
   46MOL    H7543365   2.608   1.526   3.002  1.4040 -3.0954  2.5139
   46MOL    H7643366   2.789   1.566   2.826 -0.1198 -1.4130  0.2858
   46MOL    H7743367   2.806   1.438   2.636 -0.2815 -0.4851 -1.4730
   46MOL    H7843368   2.663   1.232   2.605  2.7388  0.5337 -0.6020
   46MOL    H7943369   2.440   1.163   2.648 -3.1212 -2.7979  0.4770
   46MOL    H8043370   2.366   1.144   2.804 -0.8206  0.0476 -0.5857
   46MOL    H8143371   2.595   1.005   2.697  0.6367 -1.2230  0.4979
   46MOL    H8243372   2.732   0.849   2.815  0.8640  6.1194  3.7247
   46MOL    H8343373   2.596   0.746   2.784 -2.8654  1.5907 -0.7426
   46MOL    H8443374   2.553   0.703   3.021 -0.7168 -0.6708 -1.6421
   46MOL    H8543375   2.689   0.804   3.065  1.2527 -0.1485 -0.8610
   46MOL    H8643376   2.750   0.563   3.063 -0.6358  1.3951  1.7355
   46MOL    H8743377   2.705   0.555   2.906 -2.4652  1.1962 -0.2073
   46MOL    H8843378   2.955   0.567   2.899 -0.0659  0.1798  1.4495
   46MOL    H8943379   2.880   0.686   2.806  1.0289  1.1221  0.7247
   46MOL    H9043380   2.924   0.863   2.971  0.9994 -0.2369 -1.2953
   46MOL    H9143381   2.974   0.741   3.091 -0.9870 -0.4075  0.1283
   46MOL    H9243382   3.177   0.687   2.967 -1.6971 -0.9033  1.7164
   46MOL    H9343383   3.168   0.851   3.004  1.0953 -0.9841  0.7357
   46MOL    H9443384   3.078   0.910   2.778 -1.7812 -1.0046  2.4828
   46MOL    H9543385   3.089   0.741   2.731 -0.0919  0.0088 -0.0410
   46MOL    H9643386   3.297   0.706   2.740 -0.7836 -0.5708  1.4417
   46MOL    H9743387   3.335   0.858   2.836 -1.6047 -0.2789  1.8264
   46MOL    N9843388   3.425   0.913   2.601 -0.1032 -0.0284 -0.3088
   46MOL    C9943389   3.475   0.964   2.477 -0.4122 -0.6595 -0.0195
   46MOL   C10043390   3.570   1.085   2.494 -0.2550  0.6361 -0.0134
   46MOL   C10143391   3.704   1.061   2.529  0.4178 -0.1352  0.1029
   46MOL   C10243392   3.791   1.166   2.561  0.2320 -0.1588  0.6189
   46MOL   C10343393   3.737   1.298   2.570  0.3824 -0.0066 -0.8400
   46MOL   C10443394   3.605   1.323   2.531 -0.4644 -0.4268  0.6210
   46MOL   C10543395   3.521   1.218   2.490 -0.4932  0.2144 -0.1190
   46MOL   C10643396   3.378   1.246   2.446 -0.2086 -0.2363 -0.8356
   46MOL   N10743397   3.361   1.225   2.300  0.9186 -0.4120  0.2435
   46MOL   C10843398   3.385   1.312   2.205 -1.2427 -0.1094  0.0250
   46MOL   O10943399   3.405   1.430   2.223  0.0862 -0.0974 -0.2351
   46MOL   C11043400   3.372   1.262   2.059 -0.3416  0.2274  0.0310
   46MOL   C11143401   3.333   1.370   1.952  0.5251  0.1658 -0.0398
   46MOL   C11243402   3.448   1.439   1.863  0.2572  0.1674 -0.0830
   46MOL   C11343403   3.400   1.553   1.774  0.0663  0.6621  0.0707
   46MOL   C11443404   3.359   1.673   1.854 -0.5053  0.6309 -0.1124
   46MOL   C11543405   3.313   1.790   1.763  0.8790 -0.8391  0.2525
   46MOL   C11643406   3.418   1.834   1.662 -0.9377  0.3031 -0.4936
   46MOL   C11743407   3.407   1.972   1.603 -0.1146  0.9241  0.3713
   46MOL   C11843408   3.271   2.010   1.552  0.1455 -0.1944 -0.8252
   46MOL   O11943409   3.203   1.932   1.491 -0.5746  0.5133  0.1716
   46MOL   H12043410   3.485   0.909   2.682  1.4109  1.5328 -1.3261
   46MOL   H12143411   3.538   0.885   2.437 -0.2939  0.7636 -2.7967
   46MOL   H12243412   3.400   0.986   2.401  1.3391  3.0292 -0.8077
   46MOL   H12343413   3.749   0.963   2.525  0.2493 -0.2095  0.0310
   46MOL   H12443414   3.894   1.143   2.585  0.4342 -1.3575 -1.3191
   46MOL   H12543415   3.796   1.384   2.598 -0.0624 -0.3500  1.2953
   46MOL   H12643416   3.572   1.426   2.534  1.1558  0.1776 -1.4139
   46MOL   H12743417   3.350   1.351   2.456  0.8603 -0.1344  1.1655
   46MOL   H12843418   3.305   1.182   2.496  2.3963 -3.0253 -0.4530
   46MOL   H12943419   3.318   1.140   2.269 -2.1243  1.1766 -0.0546
   46MOL   H13043420   3.290   1.190   2.064  1.3880 -1.7572  0.5228
   46MOL   H13143421   3.455   1.197   2.029 -0.4218 -0.7173  1.7252
   46MOL   H13243422   3.275   1.446   2.003 -0.5406 -0.3218 -0.5114
   46MOL   H13343423   3.266   1.321   1.881  0.3098  1.5336 -0.8089
   46MOL   H13443424   3.525   1.475   1.931 -1.7463  1.4591  1.5623
   46MOL   H13543425   3.496   1.364   1.801  2.7759 -0.2436  2.2829
   46MOL   H13643426   3.485   1.581   1.713  0.5798  0.6465  0.7671
   46MOL   H13743427   3.313   1.522   1.717  0.7463  0.7664 -1.0247
   46MOL   H13843428   3.275   1.643   1.917  0.8101  0.6773  1.7047
   46MOL   H13943429   3.440   1.701   1.921 -0.4691 -0.8213  0.4645
   46MOL   H14043430   3.261   1.873   1.810  1.2844 -0.7703  0.5826
   46MOL   H14143431   3.234   1.757   1.696 -0.1395  0.0914  0.9885
   46MOL   H14243432   3.507   1.826   1.724 -1.0091  1.1704 -0.2664
   46MOL   H14343433   3.432   1.763   1.580 -1.0043 -2.5798  1.9155
   46MOL   H14443434   3.472   1.986   1.516 -1.6511  0.9035 -0.8048
   46MOL   H14543435   3.439   2.034   1.687 -2.4186  2.4845  0.1378
   46MOL   N14643436   3.224   2.133   1.586  0.2800 -0.3178 -0.5838
   46MOL   C14743437   3.084   2.179   1.557  0.1961  0.8195  0.0098
   46MOL   C14843438   3.030   2.287   1.653 -0.5556  0.1916 -0.2308
   46MOL   C14943439   3.110   2.405   1.668  0.3023 -0.0353 -0.0938
   46MOL   C15043440   3.058   2.508   1.749  0.5966 -0.5956 -0.8743
   46MOL   C15143441   2.936   2.498   1.823  0.5263 -0.1578 -0.1427
   46MOL   C15243442   2.860   2.382   1.804  0.0000  0.1078 -0.3851
   46MOL   C15343443   2.908   2.277   1.719 -0.2666  0.2342 -0.4849
   46MOL   C15443444   2.820   2.154   1.699  0.4524  0.1457  0.1185
   46MOL   N15543445   2.782   2.133   1.558 -0.5792  0.3964 -0.2292
   46MOL   C15643446   2.759   2.014   1.492 -0.3010 -0.5174  0.1433
   46MOL   O15743447   2.784   1.901   1.539 -0.1607 -0.3193 -0.6724
   46MOL   C15843448   2.697   2.028   1.354 -0.8595 -0.0832 -0.7499
   46MOL   C15943449   2.583   1.926   1.320 -0.1916 -0.5909  0.3793
   46MOL   C16043450   2.464   1.912   1.422 -0.3979  0.1788  0.7356
   46MOL   C16143451   2.383   2.039   1.453 -0.6085  1.0820  0.3532
   46MOL   C16243452   2.336   2.102   1.314 -0.4091  0.7961  0.9958
   46MOL   C16343453   2.238   2.216   1.351 -0.0941  0.2368  0.8341
   46MOL   C16443454   2.180   2.298   1.227 -0.4733 -0.1358  0.0464
   46MOL   C16543455   2.060   2.385   1.271  0.1242 -0.5732 -0.8783
   46MOL   C16643456   2.083   2.519   1.346  0.1933 -0.2203 -0.0895
   46MOL   O16743457   2.192   2.576   1.341  0.4802  0.7944  0.4141
   46MOL   H16843458   3.287   2.207   1.612 -1.1014  0.0199  1.9932
   46MOL   H16943459   3.014   2.098   1.535  1.8404 -0.9589  1.2221
   46MOL   H17043460   3.089   2.229   1.460 -2.8458 -0.3540 -0.8169
   46MOL   H17143461   3.209   2.419   1.628  0.1106 -2.0924 -1.3780
   46MOL   H17243462   3.109   2.603   1.740  0.7777 -0.8890 -3.4839
   46MOL   H17343463   2.896   2.581   1.879  0.1872  1.4494 -2.6863
   46MOL   H17443464   2.762   2.380   1.848  0.2932 -2.4268  0.2253
   46MOL   H17543465   2.730   2.158   1.760 -0.4507 -0.3902 -1.1792
   46MOL   H17643466   2.884   2.073   1.733  1.2272  0.2040 -1.1699
   46MOL   H17743467   2.762   2.214   1.501 -0.4094  0.9917  0.5416
   46MOL   H17843468   2.772   2.031   1.274  0.1164 -1.3488  0.1059
   46MOL   H17943469   2.652   2.127   1.359 -0.2834  0.1573 -0.2814
   46MOL   H18043470   2.641   1.834   1.316 -0.2744 -0.6489  0.5151
   46MOL   H18143471   2.545   1.956   1.222  1.6075 -0.3414 -0.2540
   46MOL   H18243472   2.398   1.842   1.371  0.0323  0.4970 -0.2824
   46MOL   H18343473   2.504   1.864   1.511 -1.4856 -1.7970  0.1827
   46MOL   H18443474   2.304   2.010   1.523 -0.6939 -0.1373 -0.2284
   46MOL   H18543475   2.449   2.107   1.506 -0.0138  0.2825  0.6544
   46MOL   H18643476   2.423   2.142   1.262 -1.0665 -0.1199 -0.8637
   46MOL   H18743477   2.283   2.040   1.242  2.9873  0.5065 -1.3246
   46MOL   H18843478   2.276   2.283   1.428  1.7640 -1.8777  1.8035
   46MOL   H18943479   2.151   2.168   1.396  0.3269  0.8306  2.2954
   46MOL   H19043480   2.257   2.359   1.179  2.2503 -3.7561 -0.4101
   46MOL   H19143481   2.145   2.224   1.154  1.3819 -0.6229 -0.3899
   46MOL   H19243482   2.003   2.322   1.338  2.5390 -4.1210 -2.0021
   46MOL   H19343483   2.000   2.426   1.190 -1.6193  0.2512  0.8026
   46MOL   N19443484   1.989   2.570   1.430 -0.2680  0.4797  0.1477
   46MOL   C19543485   1.994   2.704   1.485  0.1819 -0.4204  0.0269
   46MOL   C19643486   1.866   2.782   1.478  0.4954 -0.3867 -0.5000
   46MOL   C19743487   1.767   2.743   1.384 -0.5352  0.2500  0.2311
   46MOL   C19843488   1.639   2.809   1.386 -0.4836 -0.3089  0.0140
   46MOL   C19943489   1.621   2.919   1.470  0.0630 -0.4655  0.0332
   46MOL   C20043490   1.724   2.964   1.558  0.4419  0.3026  0.5687
   46MOL   C20143491   1.844   2.893   1.564 -0.0859 -0.4529 -0.1292
   46MOL   C20243492   1.964   2.946   1.657  0.5926  0.4079 -0.2202
   46MOL   N20343493   1.989   2.857   1.771  0.4468 -0.3771  0.3130
   46MOL   C20443494   2.083   2.884   1.860 -0.4877  0.2437  0.5969
   46MOL   O20543495   2.137   2.994   1.876  0.5531 -0.4401  0.5446
   46MOL   C20643496   2.128   2.770   1.956 -0.3839  0.6089  0.6654
   46MOL   C20743497   2.221   2.666   1.888  0.1537 -0.4654 -0.6118
   46MOL   C20843498   2.365   2.710   1.876 -0.2085  0.1966 -0.1987
   46MOL   C20943499   2.447   2.601   1.813 -0.5293 -0.2354 -0.2764
   46MOL   C21043500   2.443   2.585   1.659  0.4159  0.2701  0.3890
   46MOL   C21143501   2.535   2.477   1.602  0.6000 -0.6804  0.5288
   46MOL   C21243502   2.539   2.471   1.452 -0.0798 -0.1868 -0.3479
   46MOL   C21343503   2.625   2.573   1.383  0.1987  0.2510  1.0154
   46MOL   C21443504   2.781   2.559   1.408 -0.0615  0.3989 -0.2346
   46MOL   O21543505   2.829   2.447   1.431  0.2974  0.0463 -0.1323
   46MOL   H21643506   1.906   2.515   1.446 -0.3524  0.6083  0.1508
   46MOL   H21743507   2.031   2.690   1.587 -0.1662 -0.2273  0.1804
   46MOL   H21843508   2.062   2.763   1.424 -2.0382 -0.1010 -2.2078
   46MOL   H21943509   1.776   2.653   1.324  0.1598 -0.7270  1.7602
   46MOL   H22043510   1.557   2.768   1.329 -1.6028  1.1951  0.5187
   46MOL   H22143511   1.525   2.967   1.456 -1.2961 -3.2599 -0.3985
   46MOL   H22243512   1.707   3.049   1.622 -2.3479  0.5629 -0.4789
   46MOL   H22343513   1.932   3.044   1.693  0.7049  0.8065 -1.1787
   46MOL   H22443514   2.051   2.966   1.594 -1.0798  0.8878 -2.4717
   46MOL   H22543515   1.928   2.779   1.787 -2.8270  2.1317  0.5376
   46MOL   H22643516   2.037   2.728   1.999  0.0255 -0.8005  0.1791
   46MOL   H22743517   2.185   2.802   2.043  0.4428 -2.0769  1.1709
   46MOL   H22843518   2.221   2.573   1.944  0.4242 -0.8830 -1.2988
   46MOL   H22943519   2.184   2.657   1.785  1.5945 -0.8755 -1.1046
   46MOL   H23043520   2.378   2.794   1.808 -0.5013  0.8020  0.4869
   46MOL   H23143521   2.412   2.734   1.971  0.8148 -0.2965 -0.5708
   46MOL   H23243522   2.548   2.612   1.852 -1.8675  2.2165  2.7926
   46MOL   H23343523   2.416   2.512   1.868 -0.4122 -0.2517 -0.2386
   46MOL   H23443524   2.343   2.555   1.628  1.1445 -0.5358 -1.2170
   46MOL   H23543525   2.448   2.676   1.599  2.3214  0.8976  1.4430
   46MOL   H23643526   2.494   2.382   1.635 -1.7703 -0.6689 -2.1390
   46MOL   H23743527   2.632   2.491   1.651 -0.7356  0.9353  2.7971
   46MOL   H23843528   2.440   2.486   1.408 -0.6839  1.5240  1.5099
   46MOL   H23943529   2.567   2.371   1.421 -1.3261  0.3294 -3.3431
   46MOL   H24043530   2.599   2.565   1.278  0.9230 -1.1754  0.9217
   46MOL   H24143531   2.592   2.671   1.418 -0.7028  1.2429 -2.4811
   46MOL   N24243532   2.854   2.663   1.398 -0.1717 -0.6822  0.7744
   46MOL   C24343533   2.999   2.675   1.421 -0.4698 -0.0677 -0.2859
   46MOL   C24443534   3.061   2.729   1.299 -0.0178  0.3305 -0.2160
   46MOL   C24543535   3.044   2.869   1.285  0.2697  0.4606  0.0540
   46MOL   C24643536   3.107   2.941   1.178 -0.1726  0.0317  0.3393
   46MOL   C24743537   3.186   2.866   1.092 -0.3269 -0.6444  0.4224
   46MOL   C24843538   3.207   2.730   1.107  0.2798  0.3433  0.2761
   46MOL   C24943539   3.134   2.659   1.206  0.2346 -0.4101  0.5255
   46MOL   C25043540   3.151   2.506   1.221 -0.1156 -0.7860  0.3498
   46MOL   N25143541   3.024   2.431   1.204  0.0192 -0.3542  0.0032
   46MOL   C25243542   2.966   2.414   1.084 -0.1429  0.4062 -0.4056
   46MOL   O25343543   3.006   2.467   0.983  0.1174  0.0779 -0.0956
   46MOL   C25443544   2.837   2.331   1.088  0.5798 -0.1442 -0.6678
   46MOL   C25543545   2.721   2.407   1.021 -0.0383 -0.4632 -0.2605
   46MOL   C25643546   2.590   2.320   1.006 -0.6547 -0.3243 -0.0864
   46MOL   C25743547   2.469   2.407   0.967  0.1008 -0.0258  0.3624
   46MOL   C25843548   2.336   2.352   0.913 -0.5950  0.0390  0.2307
   46MOL   C25943549   2.231   2.464   0.900  0.2500  0.0087  0.2787
   46MOL   C26043550   2.092   2.413   0.875  0.0856 -0.2473  0.6618
   46MOL   C26143551   2.071   2.356   0.733  0.3878 -0.4247  0.0701
   46MOL   C26243552   1.927   2.393   0.684 -0.5300  0.7499 -0.8058
   46MOL   O26343553   1.899   2.507   0.662 -0.0003  0.6461 -0.2654
   46MOL   H26443554   2.799   2.743   1.370  0.6651  0.9257  3.4856
   46MOL   H26543555   3.013   2.750   1.500 -1.3743  0.4070 -0.5715
   46MOL   H26643556   3.043   2.585   1.462 -0.2213  0.5233  0.7846
   46MOL   H26743557   2.977   2.923   1.350  0.0557  0.9200 -0.5421
   46MOL   H26843558   3.099   3.047   1.158 -2.6855 -0.5924 -2.3173
   46MOL   H26943559   3.254   2.924   1.030 -0.9519  2.2185  2.3138
   46MOL   H27043560   3.282   2.676   1.050  1.0430  1.3143  0.3503
   46MOL   H27143561   3.208   2.483   1.311 -0.4953  0.8046  1.0212
   46MOL   H27243562   3.211   2.482   1.133 -2.3298 -0.3168 -1.3180
   46MOL   H27343563   2.976   2.412   1.290 -0.8016 -1.4050 -0.6708
   46MOL   H27443564   2.800   2.304   1.187 -0.3355  0.6441 -0.7881
   46MOL   H27543565   2.852   2.239   1.032  0.3010  0.6382 -2.0498
   46MOL   H27643566   2.735   2.438   0.918  0.0143  2.2436  0.5280
   46MOL   H27743567   2.690   2.497   1.074  0.9161 -1.2544  1.7044
   46MOL   H27843568   2.566   2.275   1.103  0.3092 -0.7636 -0.0499
   46MOL   H27943569   2.611   2.232   0.945  0.5962  0.8512 -1.3548
   46MOL   H28043570   2.448   2.470   1.054  1.9884  2.1507 -0.6759
   46MOL   H28143571   2.496   2.481   0.891 -1.4262  1.8069  1.5331
   46MOL   H28243572   2.345   2.328   0.807  2.0128 -0.5633  0.5617
   46MOL   H28343573   2.301   2.262   0.964 -0.9479 -0.5362 -1.0055
   46MOL   H28443574   2.255   2.538   0.823  0.3944 -0.6068 -0.2732
   46MOL   H28543575   2.227   2.520   0.993  0.8428 -0.1192  0.3866
   46MOL   H28643576   2.052   2.347   0.953  0.5748 -0.9257  0.3435
   46MOL   H28743577   2.031   2.503   0.888 -0.4380 -0.1335 -2.2589
   46MOL   H28843578   2.134   2.399   0.655 -1.7758 -1.4217 -2.3340
   46MOL   H28943579   2.080   2.247   0.733 -2.0301 -0.6535  0.3874
   46MOL   N29043580   1.842   2.294   0.667 -0.1609  0.0998  0.1076
   46MOL   C29143581   1.700   2.308   0.635 -0.1431  0.0828  0.3725
   46MOL   C29243582   1.668   2.345   0.495  0.0778 -0.3544  0.3803
   46MOL   C29343583   1.721   2.262   0.389  0.0441  0.0810  0.3796
   46MOL   C29443584   1.687   2.286   0.258 -0.5863  0.7608  0.1692
   46MOL   C29543585   1.582   2.378   0.233  0.0432 -0.3728  0.0011
   46MOL   C29643586   1.517   2.454   0.333 -0.0903 -0.1160 -0.8112
   46MOL   C29743587   1.574   2.451   0.471  0.1528 -0.0782  0.2544
   46MOL   C29843588   1.528   2.556   0.573  0.3048 -0.1410 -0.5020
   46MOL   N29943589   1.642   2.637   0.611 -0.2917 -0.2175 -0.7280
   46MOL   C30043590   1.640   2.755   0.686 -0.3881 -0.1867 -0.6387
   46MOL   O30143591   1.536   2.809   0.724 -0.4543 -0.6464  0.2148
   46MOL   C30243592   1.769   2.826   0.714 -0.6402 -0.1404 -0.8208
   46MOL   C30343593   1.824   2.786   0.848  0.0290 -0.5576  0.0969
   46MOL   C30443594   1.964   2.842   0.869 -0.4384  0.3902 -0.1983
   46MOL   C30543595   2.028   2.834   1.005 -0.8575  0.1513  0.0542
   46MOL   C30643596   2.185   2.842   1.017 -0.5138 -0.3494  0.5159
   46MOL   C30743597   2.241   2.860   1.156  0.4914  0.2585 -0.2922
   46MOL   C30843598   2.388   2.895   1.172 -0.2195 -0.2676  0.1265
   46MOL   C30943599   2.484   2.808   1.087 -0.9865 -0.6331  0.7294
   46MOL   C31043600   2.634   2.831   1.107  0.1982  0.2645 -0.0495
   46MOL   O31143601   2.675   2.892   1.208 -0.3577  0.6431  0.1073
   46MOL   H31243602   1.861   2.195   0.671 -1.7656 -0.2506 -0.5868
   46MOL   H31343603   1.647   2.214   0.651  0.5300 -0.1555  1.1965
   46MOL   H31443604   1.650   2.377   0.703 -0.1179  0.5464 -0.0748
   46MOL   H31543605   1.793   2.185   0.415  1.1633  1.1637  0.5311
   46MOL   H31643606   1.722   2.232   0.171 -0.8934  1.1565 -0.2006
   46MOL   H31743607   1.537   2.386   0.135  3.2076 -0.3416 -1.5173
   46MOL   H31843608   1.441   2.526   0.311  1.2577  1.1631 -1.3744
   46MOL   H31943609   1.473   2.521   0.661  2.1231 -0.8980  0.3765
   46MOL   H32043610   1.451   2.622   0.535 -1.1390 -0.8865  1.0485
   46MOL   H32143611   1.726   2.600   0.571 -0.9321 -1.1536 -1.2305
   46MOL   H32243612   1.845   2.805   0.638 -0.7728  0.6271 -1.1670
   46MOL   H32343613   1.744   2.930   0.695 -1.6713 -0.2204  0.1174
   46MOL   H32443614   1.840   2.679   0.841 -1.9221 -0.6900 -3.4062
   46MOL   H32543615   1.754   2.813   0.927  0.4113  0.0839  0.2250
   46MOL   H32643616   1.981   2.942   0.828  1.0043  0.6098  0.8996
   46MOL   H32743617   2.035   2.784   0.809 -1.4482 -0.5959 -0.4407
   46MOL   H32843618   1.988   2.906   1.076  2.7373 -0.3192  2.6507
   46MOL   H32943619   1.990   2.741   1.047 -0.6771  0.8412  1.7914
   46MOL   H33043620   2.244   2.765   0.967  1.1793 -0.7566  3.0472
   46MOL   H33143621   2.220   2.927   0.959  0.8631 -0.7495  0.7453
   46MOL   H33243622   2.229   2.762   1.203  0.4665  0.8755  1.0143
   46MOL   H33343623   2.181   2.935   1.207 -1.0197 -0.1058 -1.4754
   46MOL   H33443624   2.396   2.997   1.134 -0.2330 -0.7271 -1.1529
   46MOL   H33543625   2.409   2.902   1.278 -0.3392 -0.7922  0.1856
   46MOL   H33643626   2.460   2.703   1.100 -2.4140 -0.4784 -0.5185
   46MOL   H33743627   2.469   2.828   0.980 -1.0532 -3.1683  0.2407
   46MOL   N33843628   2.707   2.778   1.009 -0.3288  1.0016 -0.1139
   46MOL   C33943629   2.852   2.780   0.982 -0.3161  0.3858  0.1176
   46MOL   C34043630   2.885   2.866   0.862  0.3816  0.6423 -0.3911
   46MOL   C34143631   2.925   3.003   0.885  0.2271  0.4341 -0.1556
   46MOL   C34243632   2.943   3.091   0.780 -0.4865 -0.7656  1.0985
   46MOL   C34343633   2.904   3.052   0.650 -0.6172 -0.1148  0.1027
   46MOL   C34443634   2.872   2.920   0.625  0.4259  0.0820 -0.5732
   46MOL   C34543635   2.861   2.824   0.727  0.3063 -0.3870  0.1479
   46MOL   C34643636   2.827   2.681   0.685  0.3073 -0.2538 -0.2446
   46MOL   N34743637   2.706   2.666   0.613  0.2510  0.2867  0.4486
   46MOL   C34843638   2.587   2.649   0.677  0.3236  0.7729 -0.4520
   46MOL   O34943639   2.579   2.674   0.795 -0.3618  0.3311  0.3913
   46MOL   C35043640   2.469   2.614   0.591 -0.3560  0.5131  0.0874
   46MOL   C35143641   2.371   2.731   0.589  0.1648  0.9586 -0.9198
   46MOL   C35243642   2.231   2.700   0.530 -0.1627 -0.4768 -0.0141
   46MOL   C35343643   2.229   2.676   0.380 -0.1257 -0.4029 -0.8204
   46MOL   C35443644   2.097   2.611   0.328  0.1037 -0.4824  0.0082
   46MOL   C35543645   1.982   2.707   0.355 -0.2968  0.2082  1.0943
   46MOL   C35643646   1.848   2.669   0.294 -0.4785  0.2770 -0.6995
   46MOL   C35743647   1.852   2.635   0.148 -1.6390  0.1007 -0.1136
   46MOL   C35843648   1.899   2.742   0.058 -0.2926 -0.0873 -0.5024
   46MOL   O35943649   1.851   2.855   0.061 -0.1214 -0.0535  0.0051
   46MOL   H36043650   2.645   2.742   0.937 -0.9392 -1.3835  1.5501
   46MOL   H36143651   2.922   2.802   1.063 -0.2147  2.4918 -0.5123
   46MOL   H36243652   2.873   2.674   0.968 -1.2433  0.2056  0.1169
   46MOL   H36343653   2.955   3.041   0.982  0.5784 -0.3303  0.0394
   46MOL   H36443654   2.982   3.190   0.799  1.5960 -0.9558 -1.9689
   46MOL   H36543655   2.914   3.125   0.571  1.7242 -1.8909 -1.3041
   46MOL   H36643656   2.860   2.889   0.522  0.7769  2.8721 -1.4865
   46MOL   H36743657   2.847   2.608   0.764 -1.6678 -1.5804 -0.9181
   46MOL   H36843658   2.906   2.657   0.614  0.3601  1.1763 -0.6824
   46MOL   H36943659   2.710   2.643   0.515 -0.0232 -0.4602  0.6075
   46MOL   H37043660   2.425   2.523   0.632  2.0516 -1.0577 -0.6810
   46MOL   H37143661   2.510   2.595   0.491  0.3688 -2.0037  0.8135
   46MOL   H37243662   2.418   2.814   0.536  1.0056  1.2234  0.2182
   46MOL   H37343663   2.363   2.757   0.694 -0.0238 -0.1741 -0.6531
   46MOL   H37443664   2.186   2.609   0.572  1.2959 -1.6564 -0.9453
   46MOL   H37543665   2.159   2.775   0.560  0.0640 -0.7515  1.2480
   46MOL   H37643666   2.311   2.607   0.362 -0.0857 -0.3677 -0.7747
   46MOL   H37743667   2.258   2.765   0.324  1.7079 -0.5060 -0.0756
   46MOL   H37843668   2.122   2.586   0.225  1.2302 -2.9578  0.8582
   46MOL   H37943669   2.084   2.514   0.375  1.7418 -0.4747  0.4980
   46MOL   H38043670   2.004   2.808   0.321 -3.0173  0.2120 -0.7791
   46MOL   H38143671   1.969   2.732   0.461 -1.7031  0.4402  0.8812
   46MOL   H38243672   1.813   2.580   0.347  1.9025  0.6213  1.5418
   46MOL   H38343673   1.775   2.746   0.319 -2.5373 -1.8227 -0.0286
   46MOL   H38443674   1.753   2.602   0.119 -2.3514  0.8954  1.3478
   46MOL   H38543675   1.908   2.541   0.138  1.2862  1.8415 -0.7016
   46MOL   N38643676   1.997   2.713   7.763 -0.2203 -0.2914  0.4519
   46MOL   C38743677   2.067   2.813   7.677  0.1433  0.4188 -0.0506
   46MOL   C38843678   2.116   2.940   7.752 -0.0079  0.4531 -0.7800
   46MOL   C38943679   2.197   2.931   0.078  0.6732  0.5152 -0.1455
   46MOL   C39043680   2.228   3.043   0.162  0.6991 -0.0075  0.4354
   46MOL   C39143681   2.191   3.167   0.117 -0.5853  0.5344 -0.0144
   46MOL   C39243682   2.105   3.181   0.005 -0.2928 -0.8334  0.2360
   46MOL   C39343683   2.069   3.068   7.717 -0.4471 -0.1519  0.1826
   46MOL   C39443684   1.984   3.085   7.596 -0.7554  0.4826  0.4274
   46MOL   N39543685   1.848   3.041   7.617  0.1676  0.5765 -0.6380
   46MOL   C39643686   1.749   3.053   7.530  1.1258 -0.5152  0.7306
   46MOL   O39743687   1.752   3.126   7.435  0.3843 -0.5925  0.4108
   46MOL   C39843688   1.626   2.971   7.572  0.1805 -1.1235  0.2623
   46MOL   C39943689   1.506   2.999   7.487  0.4336  0.1931  0.7063
   46MOL   C40043690   1.398   3.089   7.553 -0.3099  0.2098  0.0895
   46MOL   C40143691   1.258   3.082   7.477  0.0397  0.1477 -0.0647
   46MOL   C40243692   1.154   3.161   7.556 -1.2098  0.1334 -0.1329
   46MOL   C40343693   1.014   3.139   7.500 -0.3789  0.8548 -0.1345
   46MOL   C40443694   0.947   2.991   7.492  0.0031 -0.0313  1.1741
   46MOL   C40543695   0.835   2.980   7.387 -0.4738 -0.8013 -0.2131
   46MOL   C40643696   0.723   3.074   7.430  0.3416  0.5691  0.0038
   46MOL   O40743697   0.650   3.047   7.525 -0.2440  0.1325  0.1013
   46MOL   H40843698   2.030   2.618   7.748  1.4077  0.4214 -0.6399
   46MOL   H40943699   2.154   2.756   7.645  0.3193  1.4628 -1.4782
   46MOL   H41043700   2.022   2.828   7.579 -0.0204  1.5544  0.1914
   46MOL   H41143701   2.234   2.832   0.100  0.3648  0.2577 -0.7753
   46MOL   H41243702   2.280   3.029   0.255 -0.8793 -1.1676  1.1735
   46MOL   H41343703   2.220   3.255   0.172  1.4903 -0.6076  0.7911
   46MOL   H41443704   2.071   3.280   7.767  0.3732 -0.7224 -0.1866
   46MOL   H41543705   2.036   3.041   7.512  0.5730  1.8009  0.5415
   46MOL   H41643706   1.983   3.194   7.583 -1.8227  0.2559 -1.7074
   46MOL   H41743707   1.836   2.990   7.703  1.6051  4.0246  1.7170
   46MOL   H41843708   1.645   2.864   7.569 -0.7399 -1.4543  4.3360
   46MOL   H41943709   1.599   2.989   7.676 -0.5535  1.5498 -0.3427
   46MOL   H42043710   1.461   2.900   7.480  1.6244 -0.2325 -1.1416
   46MOL   H42143711   1.525   3.027   7.384  2.6393  1.6960  1.4877
   46MOL   H42243712   1.437   3.191   7.549 -3.2307  1.3608 -0.4331
   46MOL   H42343713   1.381   3.067   7.658 -3.4570 -1.4321 -0.6833
   46MOL   H42443714   1.265   3.139   7.384 -0.1666 -0.7425 -0.6376
   46MOL   H42543715   1.228   2.979   7.456 -1.7478  0.8313 -1.0149
   46MOL   H42643716   1.155   3.145   7.663 -1.1370 -2.1872 -0.4489
   46MOL   H42743717   1.180   3.266   7.538  2.0016 -0.4990  0.4263
   46MOL   H42843718   1.023   3.181   7.400  1.2542 -0.2051 -0.4559
   46MOL   H42943719   0.948   3.211   7.549 -1.8120  0.7856 -1.8862
   46MOL   H43043720   0.909   2.958   7.590 -0.5316 -3.2974 -0.0664
   46MOL   H43143721   1.022   2.915   7.473  0.6377  1.0225 -0.6334
   46MOL   H43243722   0.804   2.876   7.372  1.2969 -1.3936  0.0280
   46MOL   H43343723   0.863   3.016   7.288  2.2044  4.3818  2.2174
   46MOL   N43443724   0.701   3.181   7.357 -0.3708 -0.5672 -0.0339
   46MOL   C43543725   0.594   3.273   7.381  0.0449  0.2964  0.0899
   46MOL   C43643726   0.591   3.389   7.283 -0.0690  0.7657  0.0287
   46MOL   C43743727   0.496   3.389   7.178 -0.3993 -0.3961  0.0633
   46MOL   C43843728   0.499   3.500   7.088  0.4649 -0.2066 -0.0924
   46MOL   C43943729   0.588   3.605   7.106  0.1899 -0.4080 -0.7347
   46MOL   C44043730   0.682   3.600   7.207  0.2756  0.0587 -0.6579
   46MOL   C44143731   0.685   3.493   7.298  0.1649  0.5865 -0.5502
   46MOL   C44243732   0.794   3.499   7.402  0.0262  0.0374 -0.1638
   46MOL   N44343733   0.787   3.621   7.482 -0.0797  0.2926  0.0867
   46MOL   C44443734   0.874   3.721   7.481 -0.2375  0.1883  0.2980
   46MOL   O44543735   0.973   3.732   7.407  0.1031 -0.1469 -0.4185
   46MOL   C44643736   0.833   3.836   7.583  0.3378  0.1853 -0.7347
   46MOL   C44743737   0.877   3.979   7.534 -0.2484  0.3829  0.8245
   46MOL   C44843738   0.808   4.012   7.396  0.0816 -0.1735  0.1394
   46MOL   C44943739   0.656   3.988   7.394  0.0299  0.0307 -0.1271
   46MOL   C45043740   0.573   4.078   7.304  0.7229 -0.0971 -0.0181
   46MOL   C45143741   0.571   4.002   7.171 -0.0796  0.3311 -0.0941
   46MOL   C45243742   0.484   4.073   7.061 -0.2693  0.2130  0.2788
   46MOL   C45343743   0.457   3.986   6.940  0.0147 -0.2736  0.0184
   46MOL   C45443744   0.344   3.878   6.948  0.0261  0.7658 -0.0705
   46MOL   O45543745   0.352   3.766   6.887  0.1279  0.2436 -0.2087
   46MOL   H45643746   0.773   3.225   7.302 -0.6427  1.4852  1.2020
   46MOL   H45743747   0.615   3.316   7.479  2.4587  0.8044 -0.6234
   46MOL   H45843748   0.501   3.218   7.386  0.6727 -0.8953 -1.1206
   46MOL   H45943749   0.434   3.302   7.161 -0.0632 -0.8354  1.0888
   46MOL   H46043750   0.424   3.499   7.010  0.9508  0.0611 -0.5673
   46MOL   H46143751   0.594   3.688   7.037  2.2672  0.2912  0.2810
   46MOL   H46243752   0.769   3.665   7.205 -1.2233  2.1508  0.0921
   46MOL   H46343753   0.884   3.496   7.341 -0.2390  0.1575 -0.5616
   46MOL   H46443754   0.797   3.416   7.472 -1.1836  1.0923  1.1823
   46MOL   H46543755   0.716   3.627   7.553 -0.3217  2.1803 -0.3017
   46MOL   H46643756   0.894   3.806   7.668  0.8769 -0.0033 -1.1820
   46MOL   H46743757   0.726   3.833   7.604  0.3549 -1.7965 -0.8603
   46MOL   H46843758   0.985   3.991   7.526 -0.3197  0.4605 -0.0575
   46MOL   H46943759   0.836   4.051   7.605 -2.2853  0.5901 -0.5437
   46MOL   H47043760   0.827   4.117   7.374 -0.8288  0.4558  2.2596
   46MOL   H47143761   0.851   3.962   7.309 -1.2585 -1.5379  0.2386
   46MOL   H47243762   0.635   3.882   7.376 -0.6756  0.1902 -0.2619
   46MOL   H47343763   0.617   4.001   7.495 -4.2449  0.8159 -1.7781
   46MOL   H47443764   0.472   4.081   7.346 -0.5216  1.7554 -3.0302
   46MOL   H47543765   0.595   4.184   7.302 -0.6563  0.1912 -0.6546
   46MOL   H47643766   0.529   3.903   7.186  0.9195 -0.4609 -2.4100
   46MOL   H47743767   0.668   3.959   7.146  0.7852  2.1821  0.0148
   46MOL   H47843768   0.388   4.109   7.099  0.2137  1.3186  0.4478
   46MOL   H47943769   0.536   4.162   7.027 -0.0752 -0.4548 -1.1945
   46MOL   H48043770   0.454   4.051   6.853 -1.8145  0.1533  0.4002
   46MOL   H48143771   0.551   3.933   6.922 -1.6105 -2.3351 -2.7739
   46MOL   N48243772   0.240   3.912   7.020  0.0681  0.0262 -0.1654
   46MOL   C48343773   0.107   3.857   7.002  0.8538  0.0415 -0.1405
   46MOL   C48443774   0.077   3.726   7.074 -0.3658 -0.2672 -0.5414
   46MOL   C48543775   0.177   3.664   7.151 -0.2579 -0.2946 -0.4573
   46MOL   C48643776   0.160   3.538   7.204  0.1922 -0.7174 -0.3202
   46MOL   C48743777   0.039   3.467   7.192 -0.0334  0.3004  0.8556
   46MOL   C48843778   7.723   3.533   7.119 -0.2807 -0.7404 -0.7776
   46MOL   C48943779   7.741   3.667   7.065  0.2125  0.5806  0.1146
   46MOL   C49043780   7.625   3.732   6.986 -0.2365 -0.3862 -0.4891
   46MOL   N49143781   7.532   3.811   7.075  0.2983  0.5407  0.3193
   46MOL   C49243782   7.527   3.942   7.081  0.4143 -0.3490  0.4262
   46MOL   O49343783   7.581   4.010   6.994 -0.0919 -0.1832 -0.7689
   46MOL   C49443784   7.447   3.995   7.198 -0.6115 -0.2622  0.4137
   46MOL   C49543785   7.452   4.146   7.209  0.3818 -0.1233  0.1750
   46MOL   C49643786   7.410   4.199   7.348 -0.0770 -0.3065  1.0230
   46MOL   C49743787   7.468   4.336   7.380  0.4047 -0.0799  0.5632
   46MOL   C49843788   7.425   4.395   7.512  0.7840  0.1442 -0.1173
   46MOL   C49943789   7.483   4.539   7.521  0.1338 -0.3979 -0.0785
   46MOL   C50043790   7.639   4.549   7.538  0.2698  0.2584  0.0760
   46MOL   C50143791   7.700   4.480   7.662  0.2309  0.9636  0.2088
   46MOL   C50243792   0.061   4.479   7.672  0.7364  0.6655  1.2091
   46MOL   O50343793   0.124   4.457   7.572 -0.4458 -0.7454  0.0393
   46MOL   H50443794   0.241   4.006   7.057  1.0301  0.1742 -0.5298
   46MOL   H50543795   0.040   3.930   7.048  0.9453 -0.6365  1.0974
   46MOL   H50643796   0.085   3.856   6.896 -0.2562 -1.2838  0.0998
   46MOL   H50743797   0.264   3.723   7.177 -1.7895  0.7973  2.3637
   46MOL   H50843798   0.241   3.500   7.266 -0.3855 -2.6561 -0.7113
   46MOL   H50943799   0.021   3.373   7.242 -3.6008  0.2290 -0.4297
   46MOL   H51043800   7.628   3.484   7.111 -1.0443  0.8572 -1.6535
   46MOL   H51143801   7.560   3.648   6.963  1.3869 -1.8890  0.2756
   46MOL   H51243802   7.654   3.781   6.894 -0.6267 -3.4610 -2.3135
   46MOL   H51343803   7.475   3.758   7.140  2.3519 -2.0216  0.1213
   46MOL   H51443804   7.492   3.941   7.281  0.6917 -1.7430 -1.2234
   46MOL   H51543805   7.342   3.967   7.206 -0.7400  0.4047  1.1077
   46MOL   H51643806   7.399   4.181   7.121 -2.6589 -1.6265  1.3358
   46MOL   H51743807   7.549   4.192   7.191 -0.9747  1.8614 -2.1722
   46MOL   H51843808   7.302   4.210   7.343 -0.1125 -0.9266  0.1879
   46MOL   H51943809   7.434   4.130   7.429 -2.9494  0.1021  2.2737
   46MOL   H52043810   7.577   4.324   7.382  0.4333 -0.0981 -0.7114
   46MOL   H52143811   7.437   4.389   7.290  1.1233 -1.6125 -0.6286
   46MOL   H52243812   7.317   4.401   7.510  0.8021  1.2139  1.2039
   46MOL   H52343813   7.450   4.333   7.598 -0.4128 -0.1187  0.0475
   46MOL   H52443814   7.445   4.577   7.616 -1.8478 -1.9196 -0.2405
   46MOL   H52543815   7.450   4.613   7.447  1.2689  1.0128  0.7985
   46MOL   H52643816   7.690   4.522   7.445 -2.5905 -0.6313 -1.2927
   46MOL   H52743817   7.668   4.653   7.545 -0.6496  0.6190 -1.2088
   46MOL   H52843818   7.673   4.374   7.667  1.2526  0.7217  0.6312
   46MOL   H52943819   7.651   4.511   7.754  1.0820 -0.1557  1.0451
   46MOL   N53043820   0.119   4.499   7.787 -0.6355 -0.3690 -0.1066
   46MOL   C53143821   0.260   4.523   0.021 -0.4997 -0.5239  0.1782
   46MOL   C53243822   0.309   4.660   7.783 -1.0898  0.5638 -0.1269
   46MOL   C53343823   0.412   4.673   7.688  0.2785  0.6891  0.0048
   46MOL   C53443824   0.459   4.797   7.647  0.3131  0.2737  0.5038
   46MOL   C53543825   0.413   4.913   7.703 -0.2556  0.0182 -0.1728
   46MOL   C53643826   0.313   4.905   0.007 -0.2405 -0.4003 -0.6893
   46MOL   C53743827   0.253   4.783   0.046  0.0404  0.2456  1.0063
   46MOL   C53843828   0.131   4.784   0.138  0.6866 -0.2250  0.0237
   46MOL   N53943829   0.157   4.731   0.275  0.2941  0.3661 -0.4859
   46MOL   C54043830   0.072   4.640   0.328  0.5126  0.3506 -0.2126
   46MOL   O54143831   7.788   4.569   0.255  0.0047  0.1321  0.0889
   46MOL   C54243832   0.068   4.617   0.481 -0.6544 -0.3192 -0.5929
   46MOL   C54343833   0.127   4.480   0.515 -0.1459 -0.0235  0.1452
   46MOL   C54443834   0.281   4.472   0.515  0.1120 -0.5557  0.6465
   46MOL   C54543835   0.357   4.570   0.608 -0.4648  0.7519 -0.0203
   46MOL   C54643836   0.510   4.529   0.626 -0.1011 -0.5253  0.5464
   46MOL   C54743837   0.595   4.621   0.710  0.1913  0.3518  0.1240
   46MOL   C54843838   0.619   4.755   0.642  0.4918  0.7958  1.0007
   46MOL   C54943839   0.764   4.803   0.644  0.3167 -0.0387 -0.1258
   46MOL   C55043840   0.788   4.877   0.775  0.4383 -0.0039 -0.2568
   46MOL   O55143841   0.728   4.978   0.815  0.1463 -0.0034 -0.1743
   46MOL   H55243842   0.057   4.519   0.074 -2.7009 -2.1135 -1.2534
   46MOL   H55343843   0.334   4.452   7.772 -0.1345 -0.5410  0.8773
   46MOL   H55443844   0.263   4.504   0.129 -0.5878  0.3575  0.3384
   46MOL   H55543845   0.442   4.579   7.643 -1.2238  0.9565 -1.6155
   46MOL   H55643846   0.532   4.791   7.568 -1.1845  0.2259 -0.9046
   46MOL   H55743847   0.445   5.015   7.687  0.8763 -0.4490 -0.9614
   46MOL   H55843848   0.266   4.999   0.034 -0.6494 -0.2871 -1.7950
   46MOL   H55943849   0.050   4.736   0.082  0.7799 -1.2653  0.7740
   46MOL   H56043850   0.102   4.889   0.146 -1.5930 -0.7354 -1.0404
   46MOL   H56143851   0.226   4.774   0.334  1.4570 -1.5753 -0.3858
   46MOL   H56243852   7.753   4.635   0.507 -0.9416  0.6492 -2.3306
   46MOL   H56343853   0.118   4.696   0.535  0.1057  0.9787 -3.1057
   46MOL   H56443854   0.076   4.402   0.458 -0.5599  1.2224 -1.2377
   46MOL   H56543855   0.091   4.451   0.614 -0.2831 -1.7888 -0.4098
   46MOL   H56643856   0.305   4.370   0.543  0.7330 -0.3164  0.9911
   46MOL   H56743857   0.317   4.489   0.413 -0.4365 -0.3106  0.4889
   46MOL   H56843858   0.343   4.668   0.563 -1.9736  0.8334  0.5578
   46MOL   H56943859   0.315   4.582   0.708 -0.8904  0.7153 -0.1919
   46MOL   H57043860   0.514   4.432   0.676 -2.2157 -0.1760  1.4715
   46MOL   H57143861   0.557   4.512   0.529  0.3250 -2.6367  1.1059
   46MOL   H57243862   0.683   4.564   0.739  0.5982  1.3731  0.9303
   46MOL   H57343863   0.539   4.634   0.803 -0.3936  1.2147 -0.3413
   46MOL   H57443864   0.601   4.731   0.537 -1.2431  1.1154  1.1978
   46MOL   H57543865   0.541   4.827   0.669  0.0681  0.4338  0.7638
   46MOL   H57643866   0.777   4.866   0.556  0.2271  1.7447  1.1170
   46MOL   H57743867   0.822   4.711   0.638  0.2384 -0.0792 -0.2537
   46MOL   N57843868   0.879   4.820   0.851  0.6184  0.3200 -0.7791
   46MOL   C57943869   0.928   4.873   0.982 -0.0936 -0.2230 -0.2105
   46MOL   C58043870   1.053   4.961   0.955 -0.4161  0.4168 -0.2255
   46MOL   C58143871   1.040   5.100   0.950 -0.2349 -0.2412 -0.0056
   46MOL   C58243872   1.143   5.187   0.905  0.0899  0.9091 -1.0089
   46MOL   C58343873   1.260   5.133   0.850 -0.3616  0.1767  0.4311
   46MOL   C58443874   1.284   4.994   0.845  0.5577  0.0014 -0.0847
   46MOL   C58543875   1.179   4.909   0.904  0.1818 -0.3760 -0.3619
   46MOL   C58643876   1.206   4.756   0.888 -0.0549 -0.0956 -0.6484
   46MOL   N58743877   1.213   4.715   0.749 -1.1193  0.7432 -0.4170
   46MOL   C58843878   1.118   4.639   0.690 -0.3513  0.3332 -0.6349
   46MOL   O58943879   1.020   4.594   0.751 -0.1441 -0.0277  0.3230
   46MOL   C59043880   1.144   4.605   0.547  0.0442 -0.0036  0.2232
   46MOL   C59143881   1.080   4.475   0.502  0.2084 -1.0232  0.8430
   46MOL   C59243882   1.123   4.431   0.359  0.5874 -0.2708  0.0140
   46MOL   C59343883   1.105   4.278   0.358  0.4473 -0.0145  0.7420
   46MOL   C59443884   1.179   4.225   0.227 -0.5077  0.1186  0.3543
   46MOL   C59543885   1.157   4.076   0.197 -0.4949 -0.1281  0.3602
   46MOL   C59643886   1.019   4.045   0.140  0.3669 -0.3579  0.1949
   46MOL   C59743887   0.974   3.898   0.160 -0.1412 -0.5308 -0.0623
   46MOL   C59843888   0.932   3.872   0.308 -0.1413  1.1453  0.0307
   46MOL   O59943889   0.837   3.937   0.358  0.5148 -0.1092  0.4375
   46MOL   H60043890   0.923   4.738   0.812  0.1359 -0.5830  0.5184
   46MOL   H60143891   0.963   4.781   1.031 -1.0916 -0.6909 -0.3729
   46MOL   H60243892   0.852   4.921   1.043  0.3533 -1.8125  1.6862
   46MOL   H60343893   0.944   5.139   0.980  0.4747  0.6554  1.1179
   46MOL   H60443894   1.121   5.293   0.907  0.1914  0.9039  0.7651
   46MOL   H60543895   1.335   5.195   0.803  0.7942 -2.0543 -0.7163
   46MOL   H60643896   1.376   4.947   0.814 -1.1679 -2.6075 -1.4053
   46MOL   H60743897   1.145   4.696   0.956 -1.4828 -0.2058 -1.9910
   46MOL   H60843898   1.308   4.735   0.917  1.3279  3.6675 -2.4794
   46MOL   H60943899   1.283   4.750   0.685  0.3170  0.6178  1.0755
   46MOL   H61043900   1.249   4.606   0.518  0.0661 -0.7895  0.2482
   46MOL   H61143901   1.093   4.687   0.497 -0.3690  1.6289  3.2134
   46MOL   H61243902   0.972   4.480   0.517 -0.1626 -0.7628 -1.6403
   46MOL   H61343903   1.121   4.397   0.566 -1.0385 -0.5563  2.2266
   46MOL   H61443904   1.071   4.464   0.269  0.7357  0.7149  0.2807
   46MOL   H61543905   1.228   4.450   0.338  1.0964 -1.2338  1.6297
   46MOL   H61643906   1.145   4.229   0.447  1.1162 -1.4573 -0.3313
   46MOL   H61743907   0.999   4.255   0.352  0.4607  0.3538 -1.1256
   46MOL   H61843908   1.149   4.279   0.137 -3.0161 -0.3747  0.8689
   46MOL   H61943909   1.286   4.237   0.244 -0.0223 -1.0315 -1.8040
   46MOL   H62043910   1.201   4.014   0.275  0.8391 -0.3802 -0.5707
   46MOL   H62143911   1.222   4.051   0.113 -0.6275  1.4749 -0.2420
   46MOL   H62243912   0.950   4.106   0.199  0.8918  0.7557 -0.3226
   46MOL   H62343913   1.005   4.074   0.036 -6.1644  1.0869  1.2541
   46MOL   H62443914   0.885   3.878   0.101 -0.9928  0.1857  0.9490
   46MOL   H62543915   1.050   3.833   0.117  0.1398 -0.3188  0.1060
   46MOL   N62643916   1.001   3.776   0.372  0.2842 -0.2520 -0.0507
   46MOL   C62743917   0.997   3.764   0.515  0.6051 -0.3750 -0.1577
   46MOL   C62843918   0.980   3.622   0.557  0.8590 -0.4244 -0.2403
   46MOL   C62943919   0.898   3.541   0.475  0.2698 -0.4501  0.3530
   46MOL   C63043920   0.899   3.404   0.501  0.2340  0.2519  0.0282
   46MOL   C63143921   0.967   3.347   0.607 -0.0991 -0.2302 -0.1124
   46MOL   C63243922   1.037   3.432   0.692  0.2375 -0.1083 -0.4761
   46MOL   C63343923   1.047   3.568   0.669  0.5526 -0.1138 -0.3587
   46MOL   C63443924   1.128   3.651   0.762  0.0328 -0.3184  0.4713
   46MOL   N63543925   1.268   3.663   0.731 -0.7734  0.4580 -0.3642
   46MOL   C63643926   1.364   3.731   0.800  0.2168  0.2210  0.2151
   46MOL   O63743927   1.319   3.802   0.890  0.3635  0.3446 -0.0995
   46MOL   C63843928   1.507   3.714   0.770  0.6969 -0.3105 -0.1972
   46MOL   C63943929   1.595   3.791   0.872  0.2323 -0.2706  0.2614
   46MOL   C64043930   1.592   3.940   0.858  0.3970 -0.3319  0.2802
   46MOL   C64143931   1.664   4.016   0.966  0.5737  0.1597 -0.3279
   46MOL   C64243932   1.657   4.168   0.960 -0.6734  0.1882  0.3834
   46MOL   C64343933   1.726   4.225   1.078 -0.2462 -0.5241 -0.5594
   46MOL   C64443934   1.640   4.222   1.208 -0.3234  0.4727  0.0263
   46MOL   C64543935   1.720   4.211   1.339  0.0819 -0.0847 -0.1085
   46MOL   C64643936   1.809   4.329   1.380 -0.0343  0.2753  0.2286
   46MOL   O64743937   1.765   4.438   1.417  0.0166 -0.2687 -0.1355
   46MOL   H64843938   1.079   3.731   0.326  0.1241 -1.3844  0.7510
   46MOL   H64943939   0.924   3.828   0.564  0.7963 -0.8110  0.6960
   46MOL   H65043940   1.092   3.810   0.543 -0.3809  0.7916  1.3265
   46MOL   H65143941   0.867   3.572   0.376  1.7800 -0.7190 -0.2160
   46MOL   H65243942   0.843   3.336   0.439 -0.1457  1.0380 -0.4885
   46MOL   H65343943   0.966   3.239   0.617  2.8866 -0.5002 -2.0400
   46MOL   H65443944   1.091   3.386   0.774 -0.8169  0.0096  0.2962
   46MOL   H65543945   1.098   3.619   0.862 -0.7705 -1.8257 -0.2295
   46MOL   H65643946   1.095   3.755   0.764  2.0059  0.3035  1.9526
   46MOL   H65743947   1.298   3.606   0.653 -1.4751 -0.2084 -0.1546
   46MOL   H65843948   1.535   3.740   0.668 -2.0138  0.1792 -0.8604
   46MOL   H65943949   1.521   3.607   0.789  1.6001 -0.7588 -3.1069
   46MOL   H66043950   1.697   3.754   0.884  0.7889  1.6661  1.9281
   46MOL   H66143951   1.556   3.769   0.971 -0.4267 -0.7711 -0.1101
   46MOL   H66243952   1.626   3.973   0.760 -0.3393 -0.8766 -0.1657
   46MOL   H66343953   1.488   3.966   0.877  0.4383 -0.7779  1.1523
   46MOL   H66443954   1.635   3.994   1.069  0.8179  0.6096 -0.1606
   46MOL   H66543955   1.768   3.988   0.950  1.4451  1.7498  2.2486
   46MOL   H66643956   1.701   4.203   0.866  1.6717 -1.7285  0.7033
   46MOL   H66743957   1.552   4.197   0.962 -0.3434  1.3376  3.0438
   46MOL   H66843958   1.735   4.332   1.057 -1.5089 -0.4507 -0.7778
   46MOL   H66943959   1.823   4.176   1.080 -0.6296 -1.2562  0.3353
   46MOL   H67043960   1.575   4.309   1.216 -0.8089  0.1253 -0.0922
   46MOL   H67143961   1.573   4.136   1.203 -0.0826  0.2299  0.8091
   46MOL   H67243962   1.776   4.119   1.348 -0.5804 -0.5484 -0.6513
   46MOL   H67343963   1.643   4.190   1.414  1.6459 -0.9428  1.2816
   46MOL   N67443964   1.940   4.315   1.359  0.2996  0.0730 -0.3845
   46MOL   C67543965   2.035   4.426   1.374  0.1310 -0.0093  0.0222
   46MOL   C67643966   2.169   4.386   1.301 -0.5555  0.1350 -0.0400
   46MOL   C67743967   2.280   4.346   1.380 -0.5719  0.4289  0.0982
   46MOL   C67843968   2.403   4.317   1.317  0.1987  0.6192 -0.4890
   46MOL   C67943969   2.426   4.356   1.186  0.1959 -0.6400 -0.4796
   46MOL   C68043970   2.320   4.396   1.111  0.9688 -0.7119 -0.3816
   46MOL   C68143971   2.192   4.410   1.165  0.1900 -0.4512 -0.3718
   46MOL   C68243972   2.072   4.441   1.077 -0.7751  0.0542 -0.5795
   46MOL   N68343973   2.108   4.494   0.945  0.0570 -0.3890  0.2853
   46MOL   C68443974   2.118   4.621   0.907  0.6794  0.3197  0.2620
   46MOL   O68543975   2.105   4.709   0.987  0.9431  0.1088  0.3432
   46MOL   C68643976   2.151   4.647   0.766  0.1163  0.0834  0.5273
   46MOL   C68743977   2.257   4.759   0.748  0.5688  0.5583 -0.1216
   46MOL   C68843978   2.401   4.723   0.808  0.3409  0.2590  0.6661
   46MOL   C68943979   2.513   4.819   0.767  0.1046  0.4087  0.4805
   46MOL   C69043980   2.549   4.817   0.618 -0.6067 -0.1638 -0.2125
   46MOL   C69143981   2.634   4.920   0.562  0.2260 -0.3953  0.0128
   46MOL   C69243982   2.555   5.042   0.512 -0.1430  0.0862 -1.0535
   46MOL   C69343983   2.530   5.150   0.618 -0.1817 -0.3097  0.4200
   46MOL   C69443984   2.477   5.271   0.562  0.1721  0.5057 -0.2524
   46MOL   O69543985   2.505   5.303   0.450 -0.3613 -0.3129  0.3189
   46MOL   H69643986   1.971   4.220   1.345 -0.8346 -0.2951 -0.4781
   46MOL   H69743987   2.059   4.450   1.478 -4.0036 -1.8959  1.5038
   46MOL   H69843988   1.985   4.515   1.335 -0.1367  0.7116  1.9507
   46MOL   H69943989   2.254   4.326   1.483  1.0456  2.0633  0.8375
   46MOL   H70043990   2.484   4.290   1.384 -0.8892  2.1657  1.4860
   46MOL   H70143991   2.524   4.352   1.141  0.8064 -2.7075  0.9094
   46MOL   H70243992   2.336   4.407   1.005 -0.4880  1.7580 -0.3827
   46MOL   H70343993   2.005   4.514   1.123 -1.0512  0.8711 -2.2080
   46MOL   H70443994   2.023   4.344   1.071  0.2414 -0.3406 -3.2153
   46MOL   H70543995   2.113   4.430   0.866 -3.6146 -1.5584  0.9207
   46MOL   H70643996   2.066   4.672   0.702  1.0995  1.3184 -0.3298
   46MOL   H70743997   2.191   4.559   0.716 -0.9891 -0.2094  0.1408
   46MOL   H70843998   2.208   4.843   0.798  1.0599  1.2742 -0.8325
   46MOL   H70943999   2.278   4.793   0.647  2.6256  1.4416  0.5676
   46MOL   H71044000   2.409   4.721   0.917 -0.8220  0.9362  0.7795
   46MOL   H71144001   2.419   4.626   0.763 -0.5285  0.7718 -0.8295
   46MOL   H71244002   2.492   4.917   0.811 -2.3331 -1.1368  2.9507
   46MOL   H71344003   2.602   4.787   0.822  1.0265  1.5181 -0.3487
   46MOL   H71444004   2.603   4.722   0.608 -1.3234 -0.6302  0.2807
   46MOL   H71544005   2.463   4.808   0.553 -0.2928  2.5155 -1.0329
   46MOL   H71644006   2.688   4.881   0.477  1.0780 -0.9712  0.8084
   46MOL   H71744007   2.719   4.952   0.623 -0.1471 -2.3801  1.6151
   46MOL   H71844008   2.458   5.016   0.469 -0.0861 -3.8643  0.9795
   46MOL   H71944009   2.599   5.090   0.424 -0.3114  0.3788 -0.9794
   46MOL   H72044010   2.609   5.181   0.686 -0.8126  1.6303  0.2911
   46MOL   H72144011   2.463   5.105   0.691 -1.5904  2.0629  0.6560
   46MOL   N72244012   2.392   5.348   0.635  0.4327  0.7563  0.0159
   46MOL   C72344013   2.340   5.475   0.593  0.4168  0.1404  0.4302
   46MOL   C72444014   2.230   5.512   0.690 -0.2592 -0.1589  0.3033
   46MOL   C72544015   2.094   5.485   0.659  0.1175  0.3573 -0.8623
   46MOL   C72644016   1.990   5.517   0.748  0.2213  0.4054  0.4845
   46MOL   C72744017   2.026   5.573   0.874  0.0630 -0.0209 -0.3556
   46MOL   C72844018   2.164   5.598   0.903  0.2270  0.7939 -0.2739
   46MOL   C72944019   2.266   5.570   0.814 -0.1067 -1.0109  0.7308
   46MOL   C73044020   2.412   5.611   0.851  0.2765  0.2565  0.4739
   46MOL   N73144021   2.487   5.499   0.913  0.0051  0.0627  0.4482
   46MOL   C73244022   2.617   5.510   0.945  0.6600  0.2104  0.4179
   46MOL   O73344023   2.685   5.610   0.930  0.0157 -0.0445 -0.1785
   46MOL   C73444024   2.678   5.385   1.022  0.0464  0.3092 -0.0875
   46MOL   C73544025   2.832   5.362   0.994  0.1977 -0.0451  0.6095
   46MOL   C73644026   2.898   5.293   1.116 -0.1083  0.0413 -0.4727
   46MOL   C73744027   2.886   5.150   1.107  0.7858  0.1415 -0.4300
   46MOL   C73844028   2.929   5.063   1.232  0.0822  0.0247 -0.5711
   46MOL   C73944029   3.080   5.076   1.262  0.3254 -0.7074  0.1720
   46MOL   C74044030   3.166   5.018   1.146 -0.2754  0.4190 -0.6301
   46MOL   C74144031   3.316   4.996   1.186  0.2426 -0.5676  0.3377
   46MOL   C74244032   3.404   4.906   1.088 -0.7034 -0.0714 -0.7020
   46MOL   O74344033   3.426   4.935   0.970  0.1099 -0.7223  0.1484
   46MOL   H74444034   2.376   5.317   0.730 -0.2170  1.2959  0.0880
   46MOL   H74544035   2.300   5.474   0.492  1.4550  2.4590 -0.0223
   46MOL   H74644036   2.430   5.537   0.595 -0.4707  1.5493 -1.7994
   46MOL   H74744037   2.068   5.437   0.566  1.3566 -2.0134 -0.0216
   46MOL   H74844038   1.887   5.493   0.727 -0.1727  0.7348  1.9701
   46MOL   H74944039   1.948   5.600   0.944  0.6894  1.7745 -0.3217
   46MOL   H75044040   2.184   5.647   0.997 -2.3444  0.3595  0.5538
   46MOL   H75144041   2.408   5.691   0.925  0.4222  0.5470  0.1668
   46MOL   H75244042   2.463   5.646   0.761  0.4916  0.5700  0.7183
   46MOL   H75344043   2.435   5.415   0.933 -0.6056  0.2206 -0.4849
   46MOL   H75444044   2.629   5.289   1.009  0.5773 -0.1966  1.5659
   46MOL   H75544045   2.668   5.411   1.127  0.1590  0.5738 -0.1416
   46MOL   H75644046   2.890   5.452   0.971  0.7496 -0.6447 -0.3935
   46MOL   H75744047   2.836   5.308   0.899  0.5753  0.2819  0.4365
   46MOL   H75844048   3.003   5.320   1.125  0.2137 -2.0419  3.1985
   46MOL   H75944049   2.855   5.317   1.213  0.9371 -2.7869  0.7649
   46MOL   H76044050   2.782   5.120   1.089 -0.3274  2.6537  1.4729
   46MOL   H76144051   2.937   5.114   1.017 -1.6321 -2.1523 -0.9514
   46MOL   H76244052   2.870   5.073   1.323  0.1716 -0.0434 -0.5051
   46MOL   H76344053   2.926   4.959   1.200 -3.4477 -0.2492  0.4168
   46MOL   H76444054   3.093   5.009   1.347 -0.5267 -2.4570 -1.0397
   46MOL   H76544055   3.104   5.178   1.289 -0.7824 -0.1827 -0.7299
   46MOL   H76644056   3.130   4.917   1.124 -0.1139  0.0632  0.6806
   46MOL   H76744057   3.165   5.078   1.055 -1.0944  2.3139  0.5898
   46MOL   H76844058   3.355   5.097   1.175 -1.2093 -0.2863 -2.6207
   46MOL   H76944059   3.333   4.969   1.290 -1.0806 -0.4791  0.5786
   46MOL   N77044060   3.455   4.789   1.140 -0.0146 -0.6013  0.2855
   46MOL   C77144061   3.521   4.683   1.061  0.3633 -0.6466 -0.1575
   46MOL   C77244062   3.430   4.564   1.057  0.9067  0.4100 -0.5979
   46MOL   C77344063   3.375   4.527   0.930  0.4945 -1.2094 -0.1335
   46MOL   C77444064   3.276   4.426   0.930  0.1390 -0.3017 -0.7695
   46MOL   C77544065   3.237   4.360   1.045  0.1339  0.0400  0.5826
   46MOL   C77644066   3.309   4.382   1.163 -0.4416 -0.5914  0.2404
   46MOL   C77744067   3.408   4.483   1.173  0.3345  0.2743  0.7690
   46MOL   C77844068   3.476   4.496   1.305  0.5588  0.2809 -0.5985
   46MOL   N77944069   3.390   4.515   1.422 -0.3477  0.5696 -0.3960
   46MOL   C78044070   3.317   4.627   1.450  0.5507 -0.8483 -0.3562
   46MOL   O78144071   3.330   4.733   1.390  0.8967  0.3930  0.2068
   46MOL   C78244072   3.222   4.610   1.574 -0.6394  0.9147  0.2864
   46MOL   C78344073   3.254   4.709   1.689  0.6926 -0.7646  0.3060
   46MOL   C78444074   3.208   4.852   1.654 -0.2526 -0.0857 -0.0426
   46MOL   C78544075   3.057   4.859   1.603  0.1629  0.9216  0.5492
   46MOL   C78644076   2.952   4.791   1.682  0.0613  0.7620 -0.1303
   46MOL   C78744077   2.811   4.844   1.634  0.6300  0.1957 -0.6210
   46MOL   C78844078   2.704   4.801   1.729 -0.2328 -0.0818 -0.5570
   46MOL   C78944079   2.564   4.799   1.661 -0.4542 -0.9965  0.5487
   46MOL   C79044080   2.452   4.752   1.754  0.3792  0.2324  0.5599
   46MOL   O79144081   2.464   4.754   1.881 -0.6846 -0.1462 -0.1784
   46MOL   H79244082   3.423   4.754   1.229  0.5785 -2.5630 -0.2447
   46MOL   H79344083   3.545   4.720   0.961 -1.1703 -0.1666 -0.3546
   46MOL   H79444084   3.610   4.657   1.118 -0.6254 -1.5647  0.9809
   46MOL   H79544085   3.393   4.579   0.837  0.1763 -1.3162 -0.2539
   46MOL   H79644086   3.223   4.407   0.839 -0.6889 -0.4071 -0.2677
   46MOL   H79744087   3.159   4.286   1.040 -0.1036  0.3757 -0.8903
   46MOL   H79844088   3.292   4.324   1.253 -0.1814  0.8699  1.2629
   46MOL   H79944089   3.535   4.588   1.303 -1.8385  1.9043  0.5371
   46MOL   H80044090   3.532   4.403   1.314 -1.8605 -1.0681  1.2326
   46MOL   H80144091   3.372   4.430   1.472 -2.0445  3.1486  3.6739
   46MOL   H80244092   3.232   4.509   1.614  1.1621  1.1446  0.4724
   46MOL   H80344093   3.117   4.606   1.545 -0.6894 -1.0014  0.6935
   46MOL   H80444094   3.360   4.712   1.713  0.9737 -0.9429 -0.8844
   46MOL   H80544095   3.203   4.664   1.774  1.7351 -0.6963  0.9681
   46MOL   H80644096   3.269   4.897   1.576  0.2103 -0.8382 -0.1178
   46MOL   H80744097   3.228   4.915   1.741  1.0541 -0.5966  0.0259
   46MOL   H80844098   3.036   4.965   1.590 -1.2087  0.6621  0.6077
   46MOL   H80944099   3.045   4.819   1.502  0.5575  2.9272 -0.3095
   46MOL   H81044100   2.958   4.682   1.680  4.2616  0.8821  0.9106
   46MOL   H81144101   2.961   4.822   1.786 -0.4167 -0.3325  0.2392
   46MOL   H81244102   2.784   4.798   1.539  1.8499 -2.4401  0.2365
   46MOL   H81344103   2.822   4.950   1.614 -1.6273  0.7779  1.0642
   46MOL   H81444104   2.707   4.868   1.814 -0.3354 -0.2898 -0.3908
   46MOL   H81544105   2.724   4.701   1.767 -0.0653  0.1691  0.0162
   46MOL   H81644106   2.572   4.741   1.569 -0.0569 -0.0727  0.0009
   46MOL   H81744107   2.543   4.905   1.647  2.0595 -0.2943  1.8745
   46MOL   N81844108   2.343   4.691   1.697  0.0156  0.2748 -0.1467
   46MOL   C81944109   2.224   4.632   1.764 -0.2077 -0.6921 -0.3916
   46MOL   C82044110   2.211   4.486   1.748 -0.5034  0.3442  0.3550
   46MOL   C82144111   2.331   4.412   1.740  0.2028  0.0540  0.3779
   46MOL   C82244112   2.327   4.271   1.739 -0.3388  0.0583  0.2628
   46MOL   C82344113   2.203   4.201   1.743  0.1771 -0.3284  0.3040
   46MOL   C82444114   2.084   4.270   1.747  0.1096  0.5796  0.2123
   46MOL   C82544115   2.084   4.412   1.760 -0.4288  1.0770  0.0466
   46MOL   C82644116   1.948   4.480   1.800  0.2690 -0.4669  0.4807
   46MOL   N82744117   1.835   4.427   1.726 -0.0649  0.1222  0.6902
   46MOL   C82844118   1.712   4.403   1.775 -1.2450 -0.2119  0.1345
   46MOL   O82944119   1.677   4.418   1.891  0.4010 -0.2574 -0.2761
   46MOL   C83044120   1.600   4.369   1.673  0.1021  0.7108  0.1010
   46MOL   C83144121   1.466   4.332   1.733  0.4258 -0.5438 -0.1874
   46MOL   C83244122   1.346   4.322   1.640  0.4226  0.2180 -0.5944
   46MOL   C83344123   1.208   4.308   1.712 -0.2472  0.4780  0.6755
   46MOL   C83444124   1.092   4.305   1.620 -0.2326  0.5499  0.1648
   46MOL   C83544125   1.074   4.414   1.510  0.4570  0.0020 -0.1558
   46MOL   C83644126   0.930   4.415   1.442 -0.9479  0.3323 -0.3163
   46MOL   C83744127   0.913   4.506   1.317  0.0777 -0.1441  0.3813
   46MOL   C83844128   0.984   4.652   1.320  0.0917 -0.2451  0.7872
   46MOL   O83944129   1.102   4.661   1.281  0.8160  0.0292 -0.1805
   46MOL   H84044130   2.334   4.706   1.598 -0.7042 -2.1901 -0.4694
   46MOL   H84144131   2.223   4.652   1.871 -0.3206  0.6828 -0.6356
   46MOL   H84244132   2.142   4.686   1.717  0.1343  0.3343  0.1638
   46MOL   H84344133   2.426   4.461   1.727 -0.0631  1.1421  2.2668
   46MOL   H84444134   2.420   4.218   1.726  0.2619  1.2340 -0.3315
   46MOL   H84544135   2.206   4.093   1.743  1.5011 -0.3053 -1.3556
   46MOL   H84644136   1.999   4.203   1.753  0.6291 -0.0455  0.6663
   46MOL   H84744137   1.953   4.586   1.775 -1.5693 -1.0493 -2.6189
   46MOL   H84844138   1.932   4.446   1.902 -1.4288 -0.4082  0.2417
   46MOL   H84944139   1.847   4.427   1.626 -1.2846  1.0842  0.5399
   46MOL   H85044140   1.635   4.284   1.614  0.2687  0.4674  0.5558
   46MOL   H85144141   1.593   4.458   1.609  0.4657  0.1897 -0.6766
   46MOL   H85244142   1.440   4.415   1.798  2.1388 -0.3698  0.2891
   46MOL   H85344143   1.471   4.238   1.788 -2.1693 -1.4639 -1.4229
   46MOL   H85444144   1.362   4.246   1.562  3.9650  0.9110 -0.6423
   46MOL   H85544145   1.329   4.418   1.591  2.0393  0.7352 -0.1674
   46MOL   H85644146   1.201   4.212   1.764  1.3433  0.1207  0.2762
   46MOL   H85744147   1.187   4.383   1.788 -0.0811  0.3596  0.8405
   46MOL   H85844148   1.106   4.222   1.551 -3.1951 -1.1791  1.5600
   46MOL   H85944149   1.004   4.289   1.682  1.6439 -1.4825  2.4256
   46MOL   H86044150   1.153   4.406   1.436  0.5664 -2.2996  0.2003
   46MOL   H86144151   1.081   4.513   1.555  3.5301 -0.4323  0.3648
   46MOL   H86244152   0.858   4.447   1.517 -0.6570 -1.4119  0.7450
   46MOL   H86344153   0.902   4.316   1.407  2.0932 -0.5129 -0.4908
   46MOL   H86444154   0.960   4.451   1.236 -1.6589  3.0245 -2.9254
   46MOL   H86544155   0.808   4.520   1.291  0.8375  1.9256 -1.8024
   46MOL   N86644156   0.919   4.755   1.374 -0.0269 -0.6943 -0.0026
   46MOL   C86744157   0.964   4.891   1.384  1.1529  0.1195 -0.6662
   46MOL   C86844158   0.868   4.978   1.470 -0.4745  0.4808  0.2514
   46MOL   C86944159   0.811   5.086   1.406 -0.5232  0.1939  0.1681
   46MOL   C87044160   0.724   5.168   1.480  0.2969  0.1196 -0.6305
   46MOL   C87144161   0.696   5.143   1.613  0.2724 -0.1479  0.2710
   46MOL   C87244162   0.754   5.033   1.678  0.1908 -0.4996 -0.0034
   46MOL   C87344163   0.836   4.947   1.601 -0.5629  0.0835 -0.4086
   46MOL   C87444164   0.877   4.822   1.681  0.1025  0.0065 -0.6322
   46MOL   N87544165   0.790   4.714   1.660 -0.5049 -0.4348  0.2191
   46MOL   C87644166   0.763   4.610   1.741 -0.8228 -0.0419 -0.0375
   46MOL   O87744167   0.678   4.527   1.710  0.7983  0.1332 -0.5895
   46MOL   C87844168   0.844   4.585   1.872 -0.1535  0.1283 -0.0815
   46MOL   C87944169   0.823   4.447   1.936 -0.4231 -0.6782  0.5209
   46MOL   C88044170   0.933   4.424   2.047  0.2797  0.4492  0.2109
   46MOL   C88144171   0.967   4.271   2.061  0.6167  0.2775 -0.6627
   46MOL   C88244172   1.076   4.248   2.163 -0.4538  0.4519 -0.3615
   46MOL   C88344173   1.213   4.284   2.107  0.7013 -0.0205  0.6187
   46MOL   C88444174   1.333   4.235   2.188 -0.2267  0.2667  0.2279
   46MOL   C88544175   1.466   4.265   2.110 -0.2698  0.3012 -0.3740
   46MOL   C88644176   1.594   4.227   2.185 -0.7051  0.1658 -0.8790
   46MOL   O88744177   1.588   4.145   2.279 -1.3222 -0.2277  0.3535
   46MOL   H88844178   0.824   4.742   1.407 -0.7679  0.7804 -1.4615
   46MOL   H88944179   1.063   4.885   1.429  1.1895  1.0646 -0.6165
   46MOL   H89044180   0.982   4.926   1.283  0.4166 -1.1748 -1.2518
   46MOL   H89144181   0.830   5.116   1.304 -0.6168 -1.6509 -0.4043
   46MOL   H89244182   0.680   5.255   1.433  3.2790  2.7348  1.1580
   46MOL   H89344183   0.633   5.219   1.656 -2.1897 -1.5171 -0.8170
   46MOL   H89444184   0.735   5.017   1.783  1.0487 -2.6718 -0.1614
   46MOL   H89544185   0.900   4.834   1.786 -0.3603  1.9225 -0.7255
   46MOL   H89644186   0.974   4.785   1.649  0.0043 -0.5612 -0.2702
   46MOL   H89744187   0.728   4.715   1.580 -0.3197 -0.5796  0.0716
   46MOL   H89844188   0.818   4.667   1.938  0.6973 -0.4454  0.9711
   46MOL   H89944189   0.949   4.579   1.843 -0.1952  3.2167 -1.0940
   46MOL   H90044190   0.842   4.384   1.850  1.8908  1.4766 -0.6045
   46MOL   H90144191   0.718   4.436   1.962 -1.2239  2.5468 -1.1887
   46MOL   H90244192   1.025   4.475   2.018  0.3379  1.2633  1.7881
   46MOL   H90344193   0.897   4.476   2.136 -0.9706 -1.7485  1.0379
   46MOL   H90444194   0.868   4.229   2.082  1.0788 -0.7188 -0.4416
   46MOL   H90544195   0.995   4.232   1.963  2.9380 -1.0567  0.4864
   46MOL   H90644196   1.055   4.305   2.253 -1.9871 -1.4869  0.5310
   46MOL   H90744197   1.073   4.143   2.191  0.3401  0.1959 -1.2158
   46MOL   H90844198   1.233   4.391   2.099  0.5032 -0.0642 -0.5682
   46MOL   H90944199   1.224   4.249   2.004 -1.1064  1.5849 -0.1497
   46MOL   H91044200   1.335   4.302   2.274 -0.7886  1.0956 -0.3980
   46MOL   H91144201   1.332   4.132   2.225 -0.6604  0.6394  1.2633
   46MOL   H91244202   1.465   4.194   2.027  1.5244 -0.9072  0.6067
   46MOL   H91344203   1.480   4.371   2.091  0.6526  0.3673  0.6063
   46MOL   N91444204   1.708   4.277   2.133  0.6069  0.1134  0.5649
   46MOL   C91544205   1.853   4.263   2.165  0.0384  0.0877  0.3669
   46MOL   C91644206   1.935   4.386   2.151 -0.2975  0.5319 -0.1869
   46MOL   C91744207   1.877   4.512   2.161  0.0049 -0.1419 -0.6402
   46MOL   C91844208   1.944   4.634   2.144 -0.1095  0.5225  0.4373
   46MOL   C91944209   2.078   4.626   2.110 -0.1062  0.1159  0.8656
   46MOL   C92044210   2.140   4.499   2.103  0.3222 -0.0316  0.2472
   46MOL   C92144211   2.070   4.382   2.128 -0.5893  0.0796 -0.9295
   46MOL   C92244212   2.148   4.251   2.139 -0.5025 -1.0074 -0.2973
   46MOL   N92344213   2.213   4.250   2.261  0.0560 -0.3884 -0.3141
   46MOL   C92444214   2.181   4.160   2.359 -0.5894  0.1175  0.0221
   46MOL   O92544215   2.086   4.086   2.355 -0.6057 -0.2406  0.0876
   46MOL   C92644216   2.271   4.149   2.487  0.4999 -0.7049  0.1683
   46MOL   C92744217   2.308   4.011   2.522  0.0081 -0.2991  0.0829
   46MOL   C92844218   2.400   4.013   2.644  0.3305 -0.4583 -0.0681
   46MOL   C92944219   2.377   3.896   2.742 -0.3193 -0.1369 -0.5852
   46MOL   C93044220   2.429   3.910   2.882  0.2135 -0.2762  0.1367
   46MOL   C93144221   2.572   3.861   2.917  0.2519 -0.3139  0.2159
   46MOL   C93244222   2.673   3.949   2.848  0.5041 -0.5607  0.3624
   46MOL   C93344223   2.810   3.958   2.921  0.4110 -0.4666 -0.3836
   46MOL   C93444224   2.922   3.981   2.818 -0.2499  0.2793  0.0794
   46MOL   O93544225   3.007   3.894   2.806 -0.2816 -0.2120 -0.0123
   46MOL   H93644226   1.691   4.334   2.052 -1.4717 -0.5445  0.5234
   46MOL   H93744227   1.866   4.204   2.255  4.0412  0.9889  0.4559
   46MOL   H93844228   1.881   4.201   2.079 -0.0822 -1.1516  1.2066
   46MOL   H93944229   1.770   4.514   2.177  0.4723  1.8307  2.6070
   46MOL   H94044230   1.897   4.730   2.157 -0.1090  0.5660  0.1101
   46MOL   H94144231   2.142   4.713   2.103 -1.0011  0.6746 -0.4090
   46MOL   H94244232   2.247   4.493   2.090  0.1599 -0.6114 -0.8613
   46MOL   H94344233   2.217   4.253   2.054 -0.3844  1.6402 -0.1797
   46MOL   H94444234   2.090   4.160   2.123  0.9718 -1.7278 -1.7168
   46MOL   H94544235   2.289   4.316   2.274 -2.3745  2.6796 -1.1348
   46MOL   H94644236   2.206   4.185   2.567  0.3114  0.4140 -0.4693
   46MOL   H94744237   2.359   4.207   2.461 -0.8843  0.6749 -1.6247
   46MOL   H94844238   2.356   3.959   2.439  1.0829  0.9107 -0.0576
   46MOL   H94944239   2.218   3.949   2.532 -0.6543  0.5631 -0.3990
   46MOL   H95044240   2.505   4.011   2.613 -0.1881  1.0240 -1.9872
   46MOL   H95144241   2.388   4.109   2.694 -0.9191 -0.6785  0.0433
   46MOL   H95244242   2.269   3.887   2.742 -0.4156  0.9261 -1.5527
   46MOL   H95344243   2.415   3.796   2.719  1.6297  0.7523 -1.3902
   46MOL   H95444244   2.361   3.871   2.957  0.7020  0.5142  0.9941
   46MOL   H95544245   2.428   4.014   2.914  1.6432 -0.1046 -0.3332
   46MOL   H95644246   2.585   3.871   3.025  0.2961  2.4156 -0.0139
   46MOL   H95744247   2.590   3.756   2.893 -1.4589 -0.3805 -0.8275
   46MOL   H95844248   2.638   4.052   2.846 -0.7369 -0.9776  0.0740
   46MOL   H95944249   2.687   3.921   2.744 -0.5216  0.1334  0.0330
   46MOL   H96044250   2.829   3.859   2.963  2.6203  0.2010  0.2849
   46MOL   H96144251   2.818   4.030   3.002 -0.6619  1.8598 -2.2975
   46MOL   H96244252   2.914   4.070   2.756  0.3492 -0.6680 -1.4128
   47MOL     N144253   3.597   3.000   2.886  0.4525 -0.2519  0.5870
   47MOL     C244254   3.681   2.976   3.002  0.5301  0.0482  0.5444
   47MOL     C344255   3.644   3.076   3.111 -0.2184 -0.1860  0.4598
   47MOL     C444256   3.646   3.215   3.085 -0.6013 -0.2694  0.1791
   47MOL     C544257   3.611   3.308   3.180 -0.4370  0.2795  0.3569
   47MOL     C644258   3.570   3.263   3.302 -0.5490  0.6578 -0.3452
   47MOL     C744259   3.563   3.127   3.335 -0.5738 -0.3945  0.3078
   47MOL     C844260   3.610   3.030   3.241 -0.4137 -0.3888  0.3821
   47MOL     C944261   3.646   2.891   3.290 -0.0652  0.4522  0.6809
   47MOL    N1044262   3.670   2.878   3.436  0.2245  0.0847 -0.3534
   47MOL    C1144263   3.693   2.767   3.509  0.8368  0.1424  0.8106
   47MOL    O1244264   3.708   2.659   3.455 -0.0800  0.3445  0.5657
   47MOL    C1344265   3.706   2.791   3.660  0.4592  0.1270 -0.4929
   47MOL    C1444266   3.726   2.651   3.728  0.5804  0.3393  0.2187
   47MOL    C1544267   3.768   2.674   3.871  0.2669 -0.3782 -0.3853
   47MOL    C1644268   3.760   2.545   3.948  0.1209 -0.4122 -0.5720
   47MOL    C1744269   3.828   2.560   4.088 -0.9589  0.2499 -0.9339
   47MOL    C1844270   3.830   2.424   4.166  0.3094 -0.0504  0.8911
   47MOL    C1944271   3.881   2.436   4.313  0.3783 -0.0411  0.2155
   47MOL    C2044272   4.028   2.482   4.341  0.1681 -0.1750  0.6400
   47MOL    C2144273   4.120   2.369   4.291 -0.3414 -0.0469 -0.0700
   47MOL    O2244274   4.110   2.312   4.181  0.2799  0.2338 -0.0081
   47MOL    H2344275   3.508   3.016   2.931  0.6105  0.1354  0.7657
   47MOL    H2444276   3.658   2.875   3.033 -0.6812  0.2743  0.4172
   47MOL    H2544277   3.788   2.986   2.984  0.6752 -0.7656  0.9549
   47MOL    H2644278   3.685   3.244   2.989  1.0695 -2.3190  0.2175
   47MOL    H2744279   3.605   3.415   3.165  0.3007  0.0012 -2.1288
   47MOL    H2844280   3.549   3.335   3.379 -0.0526  0.4558 -0.0125
   47MOL    H2944281   3.536   3.103   3.437 -2.2359 -0.2036 -0.0766
   47MOL    H3044282   3.741   2.863   3.244  0.2511 -0.8200  2.0569
   47MOL    H3144283   3.570   2.821   3.256 -0.7310  0.7073  1.6213
   47MOL    H3244284   3.655   2.966   3.483 -1.7622 -1.1981  1.4686
   47MOL    H3344285   3.612   2.833   3.698 -0.5625 -1.6792 -0.9705
   47MOL    H3444286   3.787   2.863   3.673 -0.8711  1.3391  1.4731
   47MOL    H3544287   3.801   2.585   3.683  0.4836  0.2024  0.2581
   47MOL    H3644288   3.628   2.604   3.723 -0.0336  1.6145  0.0742
   47MOL    H3744289   3.860   2.732   3.879 -0.8454  1.3708  0.0082
   47MOL    H3844290   3.694   2.738   3.918 -1.1140 -2.2809  0.1143
   47MOL    H3944291   3.657   2.512   3.962 -0.9981  2.4730 -1.5465
   47MOL    H4044292   3.798   2.462   3.890 -0.9754 -2.4024  1.4578
   47MOL    H4144293   3.934   2.580   4.079 -0.9310  0.1081 -0.9209
   47MOL    H4244294   3.798   2.644   4.151  0.0167 -1.1310  1.4156
   47MOL    H4344295   3.888   2.346   4.118 -0.2768 -0.9867  1.6883
   47MOL    H4444296   3.726   2.392   4.180 -0.7193  2.9350  0.4013
   47MOL    H4544297   3.810   2.497   4.368  0.2898 -0.2338  0.3147
   47MOL    H4644298   3.871   2.338   4.359  0.6254 -0.1991 -0.0677
   47MOL    H4744299   4.033   2.512   4.446 -2.6135 -0.1556  0.7929
   47MOL    H4844300   4.051   2.576   4.291 -1.7759  1.5266  2.8347
   47MOL    H4944301   3.588   2.921   2.825 -0.2808  1.3778 -1.4542
   47MOL    N5044302   4.230   2.356   4.373  0.2176  0.0452  0.3760
   47MOL    C5144303   4.331   2.250   4.366 -0.1709 -0.4419  0.1496
   47MOL    C5244304   4.470   2.288   4.306 -0.2099 -0.5222  0.2446
   47MOL    C5344305   4.500   2.237   4.182  0.0323  0.2336 -0.3416
   47MOL    C5444306   4.606   2.284   4.111 -0.2324 -0.3887 -0.1597
   47MOL    C5544307   4.695   2.379   4.166  0.3054  0.2817  0.2121
   47MOL    C5644308   4.676   2.425   4.301 -0.1017 -0.1813 -0.4228
   47MOL    C5744309   4.559   2.381   4.366  0.1914  1.0786  0.2831
   47MOL    C5844310   4.538   2.426   4.506 -1.0990 -0.4928  0.5782
   47MOL    N5944311   4.651   2.476   4.575 -0.0652  0.1806  0.2764
   47MOL    C6044312   4.718   2.412   4.670 -0.0315 -0.8872 -0.2108
   47MOL    O6144313   4.702   2.293   4.694  0.2956  0.1507  0.4032
   47MOL    C6244314   4.818   2.496   4.753  0.0052 -0.0575 -0.9003
   47MOL    C6344315   4.933   2.405   4.811  0.4029  0.2593 -0.2450
   47MOL    C6444316   5.021   2.473   4.919 -0.0401  0.0561 -0.2008
   47MOL    C6544317   5.137   2.389   4.977  0.1165 -0.0671 -0.3114
   47MOL    C6644318   5.249   2.328   4.887  0.0248 -0.4614  0.2044
   47MOL    C6744319   5.376   2.293   4.970 -0.0907  0.6572  0.6668
   47MOL    C6844320   5.485   2.228   4.883  0.2800 -0.1899  0.3403
   47MOL    C6944321   5.619   2.244   4.944 -0.8507 -0.4270 -0.1737
   47MOL    C7044322   5.648   2.160   5.067 -0.4540 -0.3733 -0.4107
   47MOL    O7144323   5.658   2.209   5.176  0.1220 -0.3002 -0.6663
   47MOL    H7244324   4.239   2.422   4.449  0.2131  3.5176 -2.5503
   47MOL    H7344325   4.275   2.175   4.311  0.2237 -0.3438 -0.3962
   47MOL    H7444326   4.346   2.209   4.465  0.8867  2.9220  1.4475
   47MOL    H7544327   4.432   2.181   4.120  0.5517 -0.0360 -0.6793
   47MOL    H7644328   4.622   2.263   4.006 -0.5820 -0.6604 -0.1557
   47MOL    H7744329   4.774   2.427   4.110  1.8736 -2.1132  0.2828
   47MOL    H7844330   4.757   2.490   4.332  0.4965 -1.2192  0.2299
   47MOL    H7944331   4.480   2.352   4.560 -1.5909 -1.3262 -1.0614
   47MOL    H8044332   4.487   2.523   4.503  2.7358  1.6755  1.5230
   47MOL    H8144333   4.676   2.574   4.577 -1.0951  0.4258  1.2632
   47MOL    H8244334   4.759   2.546   4.830 -0.7164  0.4014 -1.7453
   47MOL    H8344335   4.875   2.576   4.706  0.7132  1.1513  1.9225
   47MOL    H8444336   5.004   2.379   4.733 -0.7104  0.4952 -1.3444
   47MOL    H8544337   4.887   2.317   4.855 -1.2546  1.1204 -0.1916
   47MOL    H8644338   5.073   2.563   4.885  2.4890 -0.7716  1.4146
   47MOL    H8744339   4.955   2.506   5.000  0.8170  2.9112 -0.5840
   47MOL    H8844340   5.181   2.444   5.061  1.1547 -1.5167  0.1255
   47MOL    H8944341   5.084   2.307   5.026  2.3640 -1.5885 -0.3398
   47MOL    H9044342   5.218   2.237   4.837 -2.3799  0.7853 -0.6332
   47MOL    H9144343   5.275   2.397   4.807  0.3174 -0.9209 -0.1013
   47MOL    H9244344   5.357   2.217   5.046 -0.1397 -0.4908 -0.4623
   47MOL    H9344345   5.407   2.376   5.033  1.1054  1.0498 -0.4141
   47MOL    H9444346   5.487   2.296   4.798  1.4665  1.7188  1.8534
   47MOL    H9544347   5.470   2.121   4.864 -0.6431 -0.3318  1.8487
   47MOL    H9644348   5.646   2.344   4.977  0.1256 -0.0201 -2.1288
   47MOL    H9744349   5.697   2.222   4.871 -0.7856  0.5116 -0.3959
   47MOL    N9844350   5.674   2.028   5.056 -0.6310  0.1130 -0.3451
   47MOL    C9944351   5.694   1.942   5.171  0.2077 -0.1967 -0.0690
   47MOL   C10044352   5.721   1.798   5.128  0.6215  0.1847 -0.1033
   47MOL   C10144353   5.652   1.703   5.212  0.2592  0.1639  1.1502
   47MOL   C10244354   5.678   1.570   5.180 -0.3502  0.6883  0.2656
   47MOL   C10344355   5.758   1.531   5.067 -0.3757 -0.2231 -0.2590
   47MOL   C10444356   5.824   1.627   4.993  1.2417  0.6006 -0.1027
   47MOL   C10544357   5.817   1.760   5.031 -0.6227  0.5503  0.2791
   47MOL   C10644358   5.911   1.864   4.957 -0.5579  0.5473  0.4479
   47MOL   N10744359   5.850   1.904   4.831  0.0458  0.2655 -0.1525
   47MOL   C10844360   5.928   1.942   4.730 -0.4039  0.1113 -0.1942
   47MOL   O10944361   6.052   1.932   4.739 -0.0119  0.0800  0.4043
   47MOL   C11044362   5.857   2.001   4.615 -0.2602  0.0594 -0.4075
   47MOL   C11144363   5.911   2.149   4.600  0.4849 -0.0658  0.0137
   47MOL   C11244364   5.811   2.243   4.526 -0.1795  0.5521 -0.1760
   47MOL   C11344365   5.814   2.206   4.378 -0.0984 -0.7638  0.2070
   47MOL   C11444366   5.722   2.304   4.299  0.2466  0.5449  0.3224
   47MOL   C11544367   5.712   2.294   4.146 -0.2975 -0.1321 -0.5650
   47MOL   C11644368   5.612   2.386   4.077  0.4650  0.2885 -0.8215
   47MOL   C11744369   5.628   2.396   3.923 -0.3974 -0.1500 -0.4134
   47MOL   C11844370   5.692   2.527   3.876  0.0612 -0.8688 -0.2663
   47MOL   O11944371   5.664   2.631   3.930  0.0153  0.3425 -0.2228
   47MOL   H12044372   5.646   1.972   4.977  2.1717  0.8137 -1.9004
   47MOL   H12144373   5.776   1.975   5.236 -0.0535 -0.8047  0.5821
   47MOL   H12244374   5.603   1.938   5.231 -0.2328 -1.4620 -0.8121
   47MOL   H12344375   5.577   1.724   5.286 -0.0213 -1.4959  1.3634
   47MOL   H12444376   5.631   1.499   5.246 -1.4275  0.6855 -0.5037
   47MOL   H12544377   5.763   1.430   5.028 -1.0503 -0.1055 -0.6596
   47MOL   H12644378   5.890   1.604   4.911  0.7652 -0.6715 -0.1427
   47MOL   H12744379   6.008   1.816   4.946 -0.8489 -0.3359  1.6489
   47MOL   H12844380   5.930   1.948   5.024 -0.7078  0.4306  0.6360
   47MOL   H12944381   5.750   1.893   4.819  0.1710 -0.4205 -0.6119
   47MOL   H13044382   5.750   1.987   4.630 -0.1560  0.0537  0.3687
   47MOL   H13144383   5.878   1.956   4.518 -0.7469  0.4687 -0.6960
   47MOL   H13244384   6.010   2.152   4.554  0.5872 -0.6494  0.1883
   47MOL   H13344385   5.929   2.204   4.692 -0.5154  1.2945 -0.5939
   47MOL   H13444386   5.708   2.245   4.562 -0.6570  0.9993 -1.5455
   47MOL   H13544387   5.857   2.341   4.534 -2.1540  1.5804 -1.0431
   47MOL   H13644388   5.913   2.201   4.332  0.0152 -1.8437  0.5670
   47MOL   H13744389   5.776   2.104   4.376 -0.2495 -0.7148  0.5193
   47MOL   H13844390   5.619   2.305   4.334 -0.7929  0.5693 -2.5673
   47MOL   H13944391   5.759   2.403   4.325  1.9561 -0.1989  0.8007
   47MOL   H14044392   5.682   2.196   4.106  0.1550 -0.7149  0.5083
   47MOL   H14144393   5.805   2.311   4.092  0.4107  0.0582  0.7006
   47MOL   H14244394   5.508   2.359   4.096  0.2398  1.5611 -0.1828
   47MOL   H14344395   5.612   2.483   4.126  0.9598 -0.1506  0.0671
   47MOL   H14444396   5.526   2.392   3.884 -0.3573 -1.1451 -0.4237
   47MOL   H14544397   5.683   2.310   3.885  0.8606  0.8415 -0.8698
   47MOL   N14644398   5.779   2.526   3.774  0.4003 -0.0134 -0.0567
   47MOL   C14744399   5.838   2.644   3.710  0.1017 -0.5195 -0.1152
   47MOL   C14844400   5.993   2.637   3.712 -0.3902  0.4456 -0.3509
   47MOL   C14944401   6.049   2.658   3.840 -0.0126  0.8998 -0.8404
   47MOL   C15044402   6.191   2.648   3.853 -0.1581  0.5420 -0.2282
   47MOL   C15144403   6.270   2.597   3.749  0.7037 -0.6167  0.3467
   47MOL   C15244404   6.213   2.574   3.620 -1.1470  0.4980 -0.4850
   47MOL   C15344405   6.079   2.602   3.598 -0.1751 -0.3493  0.4148
   47MOL   C15444406   6.032   2.595   3.455  0.0017  0.0654  0.6056
   47MOL   N15544407   6.022   2.723   3.390  0.2399  0.2853  0.2919
   47MOL   C15644408   5.920   2.804   3.376 -0.3428 -0.3454  0.3608
   47MOL   O15744409   5.817   2.793   3.447  0.5890 -0.4677  1.0603
   47MOL   C15844410   5.946   2.912   3.270  0.4271 -0.1041 -0.1943
   47MOL   C15944411   5.826   2.969   3.187 -0.4766 -0.1341  0.1324
   47MOL   C16044412   5.728   3.057   3.267 -0.1143  0.3499  0.6753
   47MOL   C16144413   5.775   3.204   3.297  0.1235 -0.3616  0.4772
   47MOL   C16244414   5.775   3.292   3.173  0.2878  0.0673  0.1813
   47MOL   C16344415   5.761   3.443   3.200  0.0337  1.1977 -0.0269
   47MOL   C16444416   5.748   3.523   3.071 -0.1097  0.1920  0.3833
   47MOL   C16544417   5.755   3.671   3.101  0.2517 -0.7368 -0.2438
   47MOL   C16644418   5.742   3.747   2.970 -0.0206  0.7245  0.2330
   47MOL   O16744419   5.838   3.739   2.892 -0.3628  0.3298 -0.2075
   47MOL   H16844420   5.765   2.449   3.710 -0.5738  0.5468 -0.5351
   47MOL   H16944421   5.808   2.742   3.746  0.2721 -1.3109  2.2917
   47MOL   H17044422   5.789   2.651   3.613  1.0603 -1.6533 -0.7027
   47MOL   H17144423   5.989   2.672   3.928 -0.7119 -2.0765 -0.7741
   47MOL   H17244424   6.231   2.661   3.953 -1.4086 -1.3109  0.5367
   47MOL   H17344425   6.377   2.586   3.754  0.7906 -0.0230 -0.1394
   47MOL   H17444426   6.277   2.544   3.538 -1.3606 -0.0803 -0.4438
   47MOL   H17544427   5.940   2.540   3.440  1.0599 -1.8514  0.9416
   47MOL   H17644428   6.097   2.533   3.393 -1.7602  0.7465 -1.9647
   47MOL   H17744429   6.086   2.736   3.313  0.0351  1.8962  0.3932
   47MOL   H17844430   6.011   2.880   3.188 -1.5955 -2.8370 -0.8192
   47MOL   H17944431   5.987   2.993   3.330 -0.0453 -1.8505  2.5864
   47MOL   H18044432   5.764   2.884   3.162 -1.1417 -0.7014  3.4857
   47MOL   H18144433   5.847   3.019   3.092  2.0039  0.0364  0.7365
   47MOL   H18244434   5.635   3.069   3.211  0.9161 -0.1289 -1.1656
   47MOL   H18344435   5.711   3.006   3.362  1.3392 -0.5276  0.4739
   47MOL   H18444436   5.708   3.252   3.368  0.5225 -0.5834  1.0067
   47MOL   H18544437   5.876   3.226   3.331 -0.6952  2.1705  1.3583
   47MOL   H18644438   5.858   3.268   3.106  0.7414 -0.3861  0.8956
   47MOL   H18744439   5.692   3.254   3.114 -1.0030  1.8857  0.7985
   47MOL   H18844440   5.839   3.488   3.262 -0.5227  1.6542  0.3442
   47MOL   H18944441   5.666   3.452   3.252 -0.2671 -0.5119 -0.2392
   47MOL   H19044442   5.832   3.507   3.003 -1.5611 -0.5853 -1.2524
   47MOL   H19144443   5.652   3.501   3.026  0.3313  0.2496 -0.6099
   47MOL   H19244444   5.848   3.711   3.141 -0.8245  1.5600  0.0327
   47MOL   H19344445   5.676   3.700   3.169  0.8514  1.2392 -0.3513
   47MOL   N19444446   5.633   3.822   2.946  0.5848  0.4756  0.5224
   47MOL   C19544447   5.597   3.899   2.828 -0.3505 -0.6593  0.3648
   47MOL   C19644448   5.460   3.859   2.775  0.3523 -0.0420  0.7995
   47MOL   C19744449   5.353   3.952   2.787 -0.4370 -0.2246  0.5145
   47MOL   C19844450   5.232   3.930   2.715 -0.0687  0.6509  0.5087
   47MOL   C19944451   5.210   3.811   2.646  0.4350 -0.1836 -0.7482
   47MOL   C20044452   5.312   3.717   2.642 -0.4367 -0.6561  0.4446
   47MOL   C20144453   5.439   3.741   2.696  0.5742 -0.3110 -0.2031
   47MOL   C20244454   5.558   3.649   2.665 -0.6530 -0.0985 -0.2992
   47MOL   N20344455   5.510   3.508   2.683  0.7189 -0.4993 -0.0145
   47MOL   C20444456   5.525   3.410   2.596 -0.0197 -0.3217 -0.4513
   47MOL   O20544457   5.565   3.422   2.483  0.0240 -0.1096  0.0610
   47MOL   C20644458   5.489   3.271   2.646 -0.4230 -0.4160  0.6560
   47MOL   C20744459   5.502   3.155   2.541 -0.0848  0.3441  0.2852
   47MOL   C20844460   5.437   3.031   2.596  0.3143  0.0646 -0.5690
   47MOL   C20944461   5.468   2.908   2.510  0.2784 -0.4483 -0.0531
   47MOL   C21044462   5.428   2.774   2.577 -0.1492 -0.2584  0.3297
   47MOL   C21144463   5.409   2.651   2.474 -0.9264  0.2772 -0.1957
   47MOL   C21244464   5.524   2.608   2.392  0.7745 -0.6299  0.4362
   47MOL   C21344465   5.494   2.513   2.282  1.2483  0.1502  0.7000
   47MOL   C21444466   5.453   2.373   2.324  0.0641 -0.1254  0.2344
   47MOL   O21544467   5.501   2.325   2.424  0.2333 -0.0685  0.0700
   47MOL   H21644468   5.554   3.787   3.000  1.3736 -2.1976 -0.0133
   47MOL   H21744469   5.598   4.003   2.861 -0.1945 -0.8521  0.9691
   47MOL   H21844470   5.674   3.895   2.752  0.2912 -0.5194  1.0018
   47MOL   H21944471   5.356   4.049   2.836 -1.2128  0.4528 -0.7518
   47MOL   H22044472   5.163   4.013   2.721  0.4966  1.2323 -0.9378
   47MOL   H22144473   5.117   3.801   2.592 -0.0029 -2.7811  0.3951
   47MOL   H22244474   5.295   3.633   2.577  0.1646 -1.1752  0.9508
   47MOL   H22344475   5.648   3.656   2.726 -0.6277  1.1061 -0.4671
   47MOL   H22444476   5.582   3.664   2.560  1.7093  1.3132  0.4018
   47MOL   H22544477   5.458   3.492   2.769  1.4922  1.3541  0.8136
   47MOL   H22644478   5.385   3.281   2.676 -0.6396  0.1258 -0.2678
   47MOL   H22744479   5.551   3.258   2.735  0.3212  1.1564  0.4063
   47MOL   H22844480   5.461   3.184   2.444  1.4026 -2.3667 -1.1984
   47MOL   H22944481   5.603   3.127   2.512 -0.2898 -2.1397  1.8639
   47MOL   H23044482   5.455   3.010   2.701  0.1690  0.4353 -0.4688
   47MOL   H23144483   5.331   3.053   2.585 -1.0652 -4.9043  1.2791
   47MOL   H23244484   5.410   2.912   2.418 -1.8007  2.5072  1.3085
   47MOL   H23344485   5.569   2.918   2.470 -0.4312  1.0448 -1.5184
   47MOL   H23444486   5.509   2.745   2.644  2.3380  1.4336 -1.8415
   47MOL   H23544487   5.335   2.798   2.630  2.1026  3.2299  2.8721
   47MOL   H23644488   5.330   2.684   2.405 -0.0537  0.7036 -1.0030
   47MOL   H23744489   5.374   2.565   2.530  1.1079  0.6194  1.6136
   47MOL   H23844490   5.589   2.559   2.464 -1.5299 -1.1167  2.2704
   47MOL   H23944491   5.566   2.702   2.355 -2.9353  0.9325 -0.0658
   47MOL   H24044492   5.420   2.553   2.212  1.3741 -2.3084 -0.9066
   47MOL   H24144493   5.579   2.501   2.216 -0.4310 -1.7995 -1.1691
   47MOL   N24244494   5.373   2.308   2.250 -0.3184  0.1737 -0.5318
   47MOL   C24344495   5.307   2.186   2.287  0.3523  0.2086  0.7046
   47MOL   C24444496   5.160   2.185   2.277  0.2245  1.2651  0.4162
   47MOL   C24544497   5.099   2.130   2.161  0.2089 -0.0377 -0.4054
   47MOL   C24644498   4.960   2.131   2.141 -0.1166  0.4771  0.0853
   47MOL   C24744499   4.876   2.176   2.247  0.1713  0.3992 -0.3483
   47MOL   C24844500   4.932   2.231   2.362 -0.4096  0.1641 -0.6866
   47MOL   C24944501   5.077   2.240   2.379  0.5111  0.5471 -0.4664
   47MOL   C25044502   5.119   2.324   2.498 -0.3320  0.7082  0.5192
   47MOL   N25144503   5.087   2.466   2.478 -0.1849  0.5093 -0.2386
   47MOL   C25244504   5.011   2.538   2.563 -1.2916 -0.3062  0.2351
   47MOL   O25344505   4.991   2.494   2.677 -0.8592 -0.3319 -0.2358
   47MOL   C25444506   4.954   2.671   2.505  0.4458  0.1882 -1.0970
   47MOL   C25544507   4.857   2.766   2.594 -0.8496 -0.7866 -0.6329
   47MOL   C25644508   4.920   2.817   2.720  0.0930  0.0352 -0.0793
   47MOL   C25744509   5.046   2.912   2.706  0.0669  0.7793  0.5740
   47MOL   C25844510   5.053   3.004   2.830  0.6902  0.1901 -0.1079
   47MOL   C25944511   4.934   3.110   2.851 -0.0911  0.6536  0.8009
   47MOL   C26044512   4.974   3.242   2.926  0.5442  0.7208 -0.1321
   47MOL   C26144513   4.863   3.348   2.924 -0.1367 -0.5897 -0.0764
   47MOL   C26244514   4.819   3.396   2.785  0.2125 -0.9271 -0.1302
   47MOL   O26344515   4.903   3.454   2.721  0.0785 -0.0073  0.1494
   47MOL   H26444516   5.339   2.358   2.170 -0.9236  0.8506  0.1318
   47MOL   H26544517   5.348   2.105   2.226  1.3575  2.6329 -1.9054
   47MOL   H26644518   5.341   2.161   2.388  1.7699  0.3186  0.2637
   47MOL   H26744519   5.164   2.076   2.093  1.7682  0.2454  0.8108
   47MOL   H26844520   4.917   2.095   2.048  2.9778  1.7900 -1.9292
   47MOL   H26944521   4.770   2.162   2.232  0.1111 -0.8641  1.1694
   47MOL   H27044522   4.872   2.275   2.440 -2.0925  1.3133 -2.5917
   47MOL   H27144523   5.226   2.318   2.514 -0.5530 -0.7237  1.5237
   47MOL   H27244524   5.068   2.279   2.583  1.2309 -1.2617  0.4447
   47MOL   H27344525   5.102   2.506   2.386  1.4408  0.7415  0.1162
   47MOL   H27444526   4.903   2.642   2.413 -0.4893 -1.5568 -0.0624
   47MOL   H27544527   5.048   2.717   2.475  0.3680  2.4372  1.8428
   47MOL   H27644528   4.770   2.705   2.618  0.1115 -0.9220  2.6945
   47MOL   H27744529   4.817   2.851   2.537  2.2766  0.4336 -1.0902
   47MOL   H27844530   4.938   2.736   2.790 -2.3851 -0.1458  0.4106
   47MOL   H27944531   4.843   2.877   2.769  2.1880  2.0972  0.7518
   47MOL   H28044532   5.140   2.857   2.700 -1.2724 -1.4483 -0.2037
   47MOL   H28144533   5.031   2.973   2.617 -1.1667  0.9676  0.9091
   47MOL   H28244534   5.055   2.948   2.923 -0.7070 -1.7272 -1.2034
   47MOL   H28344535   5.144   3.064   2.832 -0.1065  1.4243 -0.3579
   47MOL   H28444536   4.846   3.073   2.903 -0.6458 -2.2787 -2.0527
   47MOL   H28544537   4.890   3.133   2.754 -2.1894 -0.2621  1.4967
   47MOL   H28644538   5.002   3.206   3.025 -1.4347 -2.1749 -0.5751
   47MOL   H28744539   5.067   3.276   2.879  0.6937 -2.9700 -2.7624
   47MOL   H28844540   4.772   3.300   2.960  0.2809 -0.6795  0.8684
   47MOL   H28944541   4.875   3.439   2.982 -1.3378 -0.9154  0.7012
   47MOL   N29044542   4.695   3.381   2.738 -0.4961  0.4985  0.2210
   47MOL   C29144543   4.642   3.413   2.606 -1.1550 -0.5122 -0.6030
   47MOL   C29244544   4.628   3.274   2.541 -0.1570  0.4674  0.1233
   47MOL   C29344545   4.739   3.228   2.466 -0.4143  0.3359  0.4333
   47MOL   C29444546   4.732   3.107   2.392 -0.6172 -0.5148 -0.8998
   47MOL   C29544547   4.618   3.035   2.402  0.1191  0.3763  0.4817
   47MOL   C29644548   4.510   3.071   2.485  0.2359  0.4246  0.7711
   47MOL   C29744549   4.509   3.196   2.548 -0.4980 -0.1941  0.7749
   47MOL   C29844550   4.381   3.246   2.630 -0.2609  0.3174  0.5041
   47MOL   N29944551   4.399   3.288   2.765 -0.4793 -0.2021 -0.0512
   47MOL   C30044552   4.404   3.212   2.877  0.4159 -0.0901  0.4776
   47MOL   O30144553   4.397   3.093   2.877 -0.2422  0.3422  0.9192
   47MOL   C30244554   4.413   3.293   3.006  0.8757 -0.4504  0.7816
   47MOL   C30344555   4.462   3.202   3.118  0.7943  0.3554 -0.2996
   47MOL   C30444556   4.502   3.280   3.238 -0.5464  0.4434  0.0915
   47MOL   C30544557   4.637   3.352   3.226  1.0217 -0.0257  0.2779
   47MOL   C30644558   4.703   3.392   3.358 -0.6145  0.4042  0.4876
   47MOL   C30744559   4.847   3.460   3.340 -0.3892  0.1047 -0.8048
   47MOL   C30844560   4.880   3.539   3.472 -0.4444 -0.0683  0.1563
   47MOL   C30944561   5.023   3.597   3.485  0.5021 -0.3991  0.4906
   47MOL   C31044562   5.043   3.673   3.616  0.0808  0.0739  0.6319
   47MOL   O31144563   4.981   3.780   3.636  0.7956 -0.5018  0.3748
   47MOL   H31244564   4.630   3.318   2.785 -0.9871  1.1328  0.4004
   47MOL   H31344565   4.549   3.469   2.618 -0.6987  0.2413 -0.6218
   47MOL   H31444566   4.711   3.477   2.553 -0.0095 -1.9715 -0.9138
   47MOL   H31544567   4.831   3.283   2.475 -0.2497  0.3318 -1.2060
   47MOL   H31644568   4.827   3.080   2.349  0.3647 -0.1093  0.9667
   47MOL   H31744569   4.612   2.950   2.336  1.2021 -0.5786  1.5938
   47MOL   H31844570   4.419   3.013   2.489 -0.4975  1.5057 -0.1090
   47MOL   H31944571   4.303   3.171   2.619  1.8237 -2.1757  2.0503
   47MOL   H32044572   4.339   3.333   2.580  0.0163  0.1769  0.0296
   47MOL   H32144573   4.397   3.388   2.783 -0.2966 -0.3266  0.6771
   47MOL   H32244574   4.482   3.375   2.987  0.5439 -0.4670 -0.5276
   47MOL   H32344575   4.312   3.323   3.033  0.6415 -0.2761 -0.2864
   47MOL   H32444576   4.549   3.145   3.087  0.4371 -0.0409 -0.5929
   47MOL   H32544577   4.389   3.128   3.151 -0.6204  0.5877 -2.8051
   47MOL   H32644578   4.512   3.211   3.322  2.2209 -0.3693 -0.8281
   47MOL   H32744579   4.421   3.352   3.246  0.3121  1.4733 -0.4408
   47MOL   H32844580   4.708   3.298   3.163 -0.9587  0.6499 -2.6844
   47MOL   H32944581   4.609   3.445   3.178  3.1481 -0.2382 -1.4776
   47MOL   H33044582   4.639   3.463   3.410 -0.4304  0.6389  0.3896
   47MOL   H33144583   4.715   3.299   3.414 -0.5358 -0.4851 -0.9606
   47MOL   H33244584   4.857   3.525   3.252 -0.6537 -0.7667 -1.4843
   47MOL   H33344585   4.911   3.374   3.322  0.1941  0.3977 -0.1677
   47MOL   H33444586   4.811   3.623   3.470 -0.1990  0.1800 -4.5689
   47MOL   H33544587   4.851   3.483   3.560 -1.0730 -1.4593 -0.9204
   47MOL   H33644588   5.100   3.521   3.477 -1.4389 -2.3494 -0.2118
   47MOL   H33744589   5.040   3.668   3.404  0.4286 -0.9301  0.0067
   47MOL   N33844590   5.133   3.623   3.694 -0.1612 -0.0316 -0.0464
   47MOL   C33944591   5.145   3.664   3.832  0.2491 -0.0566 -1.0458
   47MOL   C34044592   5.276   3.737   3.871 -0.1896  0.1414 -0.5496
   47MOL   C34144593   5.393   3.657   3.886 -0.3108 -0.3206 -0.0819
   47MOL   C34244594   5.518   3.724   3.903  0.2212 -0.6032 -0.4772
   47MOL   C34344595   5.520   3.860   3.913  0.1589 -0.0062 -0.2248
   47MOL   C34444596   5.401   3.942   3.914 -0.7045  0.5289  0.1052
   47MOL   C34544597   5.277   3.876   3.895 -0.4644 -0.8552  0.0201
   47MOL   C34644598   5.149   3.963   3.900  0.1507 -0.1235  0.0865
   47MOL   N34744599   5.114   4.000   3.760 -0.2714 -0.5830 -0.1940
   47MOL   C34844600   5.132   4.118   3.712 -0.2394  0.2679 -0.1121
   47MOL   O34944601   5.201   4.203   3.769 -0.2309 -0.1036 -0.1024
   47MOL   C35044602   5.062   4.157   3.588 -0.3722  1.1476  0.8701
   47MOL   C35144603   5.010   4.305   3.593  0.0736 -0.0792 -0.5027
   47MOL   C35244604   4.913   4.332   3.714  0.0711  0.3554  0.1330
   47MOL   C35344605   4.847   4.473   3.713 -0.5366 -0.1837  1.1164
   47MOL   C35444606   4.765   4.501   3.835  0.1611 -0.0779  0.1623
   47MOL   C35544607   4.677   4.629   3.853 -0.3269 -0.1964 -0.5915
   47MOL   C35644608   4.610   4.638   3.992 -0.1379  0.2084 -0.3322
   47MOL   C35744609   4.550   4.779   4.032 -0.2104 -0.7312 -0.2126
   47MOL   C35844610   4.653   4.895   4.037  0.3123 -0.6983 -0.0146
   47MOL   O35944611   4.761   4.871   4.085 -0.2222  0.9654 -0.3365
   47MOL   H36044612   5.187   3.543   3.665 -2.1498 -1.1857 -0.6632
   47MOL   H36144613   5.059   3.719   3.868  0.6723  0.1587 -0.3499
   47MOL   H36244614   5.144   3.573   3.891 -2.9886 -0.3781 -1.5264
   47MOL   H36344615   5.392   3.550   3.870  0.0320 -0.2244 -0.7326
   47MOL   H36444616   5.612   3.670   3.904 -0.3090 -1.5693 -1.7189
   47MOL   H36544617   5.612   3.917   3.919 -0.5516  1.1115  0.2512
   47MOL   H36644618   5.402   4.049   3.928  5.0685  0.5370  1.0013
   47MOL   H36744619   5.177   4.048   3.963 -0.7206 -0.6660  1.2272
   47MOL   H36844620   5.070   3.911   3.954 -2.0011  2.5599 -0.3625
   47MOL   H36944621   5.059   3.942   3.698  0.6908  0.2021 -1.8272
   47MOL   H37044622   4.985   4.082   3.565  0.6379  0.6240 -0.8368
   47MOL   H37144623   5.133   4.151   3.506 -1.0838 -0.8269  0.3717
   47MOL   H37244624   4.958   4.337   3.502 -1.0150  1.3010  0.5885
   47MOL   H37344625   5.094   4.373   3.611  1.1774 -1.2115 -1.2865
   47MOL   H37444626   4.831   4.261   3.725 -0.3623  0.8075 -0.1456
   47MOL   H37544627   4.964   4.323   3.810  0.9446  2.9984 -0.0255
   47MOL   H37644628   4.780   4.492   3.629  0.4318 -1.0104  0.1572
   47MOL   H37744629   4.918   4.555   3.699  0.1822 -1.0776 -0.5354
   47MOL   H37844630   4.685   4.428   3.826  0.9452 -0.9374  0.0119
   47MOL   H37944631   4.822   4.474   3.924 -0.0475 -2.8887 -0.4973
   47MOL   H38044632   4.594   4.634   3.782 -1.0923 -1.3219  0.1918
   47MOL   H38144633   4.744   4.711   3.832 -1.7366  0.7940 -1.3287
   47MOL   H38244634   4.528   4.568   4.007  0.9664 -1.4637 -1.8263
   47MOL   H38344635   4.688   4.608   4.061 -0.5004 -1.4485 -0.6192
   47MOL   H38444636   4.485   4.771   4.119  2.3711 -1.4873  1.7022
   47MOL   H38544637   4.482   4.796   3.949 -0.6148 -0.8423  0.0934
   47MOL   N38644638   4.613   5.022   3.991 -0.0898  0.6688  0.1663
   47MOL   C38744639   4.708   5.134   3.972  0.0136 -0.1043 -0.3168
   47MOL   C38844640   4.688   5.211   3.843 -0.0346 -0.5983 -0.6657
   47MOL   C38944641   4.626   5.337   3.847 -0.4591  0.6940 -0.3319
   47MOL   C39044642   4.606   5.408   3.725 -0.5500  1.0028 -0.3412
   47MOL   C39144643   4.649   5.357   3.602 -0.1652 -0.4986  0.0153
   47MOL   C39244644   4.722   5.235   3.598  1.0128  0.0516  0.2254
   47MOL   C39344645   4.736   5.162   3.722  0.0090  0.6017  0.3345
   47MOL   C39444646   4.796   5.024   3.714  0.8466 -0.3908 -0.1477
   47MOL   N39544647   4.792   4.975   3.576 -0.8087 -0.3265 -0.1431
   47MOL   C39644648   4.705   4.884   3.531 -0.4080  0.5002 -0.0972
   47MOL   O39744649   4.608   4.844   3.594 -0.5526 -0.1840  0.3593
   47MOL   C39844650   4.728   4.829   3.390  0.0685 -0.0228  0.0689
   47MOL   C39944651   4.746   4.682   3.391  0.0249  0.3800  0.2928
   47MOL   C40044652   4.757   4.633   3.242  0.9497 -0.0753  0.1114
   47MOL   C40144653   4.904   4.639   3.201 -0.1701 -0.5588 -0.1858
   47MOL   C40244654   4.927   4.602   3.056  0.5322  1.4250  0.3650
   47MOL   C40344655   5.071   4.604   3.013 -0.0923  0.2760  0.1025
   47MOL   C40444656   5.159   4.492   3.075 -0.4487 -0.2805 -0.4569
   47MOL   C40544657   5.282   4.458   2.994 -0.1663  0.1253  0.2793
   47MOL   C40644658   5.250   4.357   2.884  0.0508  0.0843  0.9476
   47MOL   O40744659   5.183   4.259   2.899 -0.5338 -0.0191 -0.2686
   47MOL   H40844660   4.530   5.024   3.934 -1.0949  2.1313  1.6185
   47MOL   H40944661   4.685   5.206   4.050  0.8555 -1.7256  1.4898
   47MOL   H41044662   4.813   5.109   3.986  0.7196  2.2598 -1.1884
   47MOL   H41144663   4.593   5.383   3.939 -0.6640  0.8139 -0.4666
   47MOL   H41244664   4.554   5.502   3.721 -0.1376  1.3236  1.3281
   47MOL   H41344665   4.623   5.407   3.510 -2.1360  0.2395  0.9462
   47MOL   H41444666   4.752   5.201   3.499 -0.5241  0.3039 -0.3357
   47MOL   H41544667   4.730   4.955   3.767  0.3415  0.9148  0.9559
   47MOL   H41644668   4.899   5.018   3.749  1.2850  0.3113 -1.3123
   47MOL   H41744669   4.868   5.012   3.520  0.8102 -2.4941  0.5206
   47MOL   H41844670   4.639   4.860   3.336 -1.4261 -0.9989  1.9211
   47MOL   H41944671   4.817   4.880   3.352 -1.2312  0.1749 -2.8711
   47MOL   H42044672   4.653   4.646   3.434  0.5805  0.6332  1.7443
   47MOL   H42144673   4.831   4.652   3.453 -1.0562 -0.7771  1.2397
   47MOL   H42244674   4.699   4.694   3.173 -1.3598 -1.3535  0.8747
   47MOL   H42344675   4.723   4.530   3.233  0.3208  0.1137  0.2968
   47MOL   H42444676   4.945   4.737   3.225  1.3344 -1.6510  1.8604
   47MOL   H42544677   4.966   4.582   3.271  0.0453 -1.1513 -0.8572
   47MOL   H42644678   4.895   4.504   3.021 -0.2796  1.5368  0.7791
   47MOL   H42744679   4.878   4.678   2.996  0.7587  0.0341 -1.6119
   47MOL   H42844680   5.110   4.706   3.020  0.2233  0.1906 -0.4467
   47MOL   H42944681   5.055   4.591   2.906 -0.9958 -1.5920  0.4429
   47MOL   H43044682   5.106   4.398   3.088  1.2808 -1.4821 -1.8359
   47MOL   H43144683   5.182   4.522   3.177 -0.1359  0.4368 -0.7330
   47MOL   H43244684   5.348   4.404   3.062 -1.3349  1.6580  2.6859
   47MOL   H43344685   5.348   4.537   2.959 -0.4081  1.3064  2.4311
   47MOL   N43444686   5.311   4.383   2.764  0.6828 -0.1576  0.4388
   47MOL   C43544687   5.294   4.302   2.649  0.2020  0.9739 -0.0187
   47MOL   C43644688   5.424   4.289   2.567  0.4522 -0.2047 -1.1430
   47MOL   C43744689   5.539   4.258   2.644  0.0848  0.7946 -0.7853
   47MOL   C43844690   5.661   4.224   2.585  0.6229  1.1061  0.1622
   47MOL   C43944691   5.675   4.232   2.446  0.1974 -0.6912 -0.2337
   47MOL   C44044692   5.561   4.267   2.368 -0.7835  0.0716 -0.1475
   47MOL   C44144693   5.434   4.300   2.426 -0.0560 -0.2073 -0.0893
   47MOL   C44244694   5.320   4.361   2.335 -0.0175 -0.3627 -0.5670
   47MOL   N44344695   5.240   4.253   2.279 -0.1728 -0.1400  0.0100
   47MOL   C44444696   5.116   4.231   2.320  0.6792 -0.1597 -0.3201
   47MOL   O44544697   5.059   4.305   2.405 -0.5597 -0.1144 -0.5717
   47MOL   C44644698   5.042   4.109   2.269  0.2705  0.2890  0.5111
   47MOL   C44744699   5.096   3.978   2.322 -0.4783 -0.3431 -0.3917
   47MOL   C44844700   5.047   3.852   2.242  0.4068 -0.0342  1.0434
   47MOL   C44944701   5.079   3.727   2.319  0.5475  0.5495  0.7603
   47MOL   C45044702   5.046   3.601   2.228 -0.4970  0.1621  0.2404
   47MOL   C45144703   5.057   3.467   2.300 -0.2859  0.1420 -0.3176
   47MOL   C45244704   5.198   3.422   2.346 -0.0993  0.0109  0.4584
   47MOL   C45344705   5.285   3.369   2.223  0.2325 -0.6166 -0.1414
   47MOL   C45444706   5.361   3.483   2.154 -1.0475 -0.1749 -0.8196
   47MOL   O45544707   5.339   3.526   2.044  0.1038 -0.4040 -0.0264
   47MOL   H45644708   5.350   4.475   2.750 -1.5938  0.6302 -1.0552
   47MOL   H45744709   5.207   4.326   2.588 -1.2102  0.3458  1.7358
   47MOL   H45844710   5.271   4.200   2.678  1.5561  0.6682  0.0181
   47MOL   H45944711   5.532   4.238   2.750  1.2273 -1.8792 -1.1836
   47MOL   H46044712   5.746   4.201   2.648  1.3441 -0.0383 -1.1991
   47MOL   H46144713   5.771   4.223   2.397  0.3679  0.9789 -0.2228
   47MOL   H46244714   5.593   4.273   2.265 -2.2150 -1.2680 -0.6831
   47MOL   H46344715   5.357   4.412   2.246 -1.5699  1.6495 -0.0935
   47MOL   H46444716   5.253   4.431   2.385 -0.1357 -1.7130  1.2106
   47MOL   H46544717   5.284   4.190   2.213  0.4846  0.1809  0.1408
   47MOL   H46644718   5.049   4.120   2.161  0.2188  0.5244  0.5319
   47MOL   H46744719   4.935   4.104   2.287 -0.0135 -0.1998 -1.1734
   47MOL   H46844720   5.069   3.967   2.427  3.4068 -0.6028  0.6693
   47MOL   H46944721   5.205   3.987   2.325 -0.6533  1.4381  1.3114
   47MOL   H47044722   4.943   3.858   2.209  0.5044 -0.6786  0.6028
   47MOL   H47144723   5.104   3.862   2.150  1.1016  0.3185  1.5092
   47MOL   H47244724   5.185   3.716   2.344  1.0165  0.7656 -1.0930
   47MOL   H47344725   5.034   3.717   2.418 -1.2870  2.0409  0.1137
   47MOL   H47444726   4.944   3.610   2.192 -0.5073  4.0410  1.0384
   47MOL   H47544727   5.098   3.591   2.133 -0.4119 -0.3760  0.3394
   47MOL   H47644728   5.011   3.396   2.232  0.6807 -2.0257  1.2405
   47MOL   H47744729   4.986   3.481   2.381  0.9654 -0.4184  0.9017
   47MOL   H47844730   5.250   3.498   2.404  1.7527  0.2519 -1.4384
   47MOL   H47944731   5.191   3.346   2.424  1.4303 -0.2603  0.3537
   47MOL   H48044732   5.355   3.292   2.256  0.4318 -0.2677  0.2420
   47MOL   H48144733   5.220   3.323   2.148  0.8563  0.8283 -1.6042
   47MOL   N48244734   5.463   3.533   2.218 -1.1732  0.3377 -0.3421
   47MOL   C48344735   5.569   3.622   2.165 -0.8642  0.2120  1.1039
   47MOL   C48444736   5.619   3.717   2.271  0.5729  0.2653  0.1666
   47MOL   C48544737   5.527   3.809   2.325  0.1442  0.8422  0.0914
   47MOL   C48644738   5.567   3.904   2.416  0.3961 -0.7975 -0.2553
   47MOL   C48744739   5.698   3.904   2.461 -0.7348 -0.3249 -0.1964
   47MOL   C48844740   5.793   3.807   2.409  0.6640  0.4762  0.4130
   47MOL   C48944741   5.752   3.711   2.316 -0.3131 -0.5056 -0.0125
   47MOL   C49044742   5.853   3.606   2.271  0.1699  0.4451  0.1336
   47MOL   N49144743   5.817   3.479   2.332  0.4778  0.1910 -0.4358
   47MOL   C49244744   5.890   3.371   2.307  0.7058 -0.6717 -1.1533
   47MOL   O49344745   5.999   3.378   2.255  0.0907  0.4624 -0.3658
   47MOL   C49444746   5.836   3.234   2.345  1.1252 -0.4257 -0.4361
   47MOL   C49544747   5.773   3.159   2.232  0.3255  0.2909 -0.9597
   47MOL   C49644748   5.644   3.228   2.193  0.3172  0.1489 -0.4426
   47MOL   C49744749   5.559   3.155   2.090 -0.0525  0.3375  0.2537
   47MOL   C49844750   5.489   3.028   2.150  0.1890  0.1646 -0.6425
   47MOL   C49944751   5.395   2.962   2.040 -0.1806  0.6774 -0.6296
   47MOL   C50044752   5.323   2.838   2.101  0.2711  0.4080  0.0798
   47MOL   C50144753   5.200   2.788   2.013 -0.3787  0.3679 -0.2048
   47MOL   C50244754   5.120   2.677   2.082  0.6801 -0.0852 -0.1953
   47MOL   O50344755   5.153   2.643   2.194  0.0133 -0.1297 -0.2589
   47MOL   H50444756   5.486   3.491   2.307 -0.9328 -1.3513 -1.1818
   47MOL   H50544757   5.651   3.559   2.132 -0.7369  0.3903  1.0773
   47MOL   H50644758   5.542   3.680   2.077  0.3686 -1.5822 -0.5014
   47MOL   H50744759   5.428   3.810   2.282  1.7379 -0.6221 -3.9126
   47MOL   H50844760   5.494   3.966   2.466 -0.0254 -2.1310  0.8082
   47MOL   H50944761   5.733   3.980   2.529  0.1328 -0.0011 -0.9980
   47MOL   H51044762   5.892   3.814   2.452  0.1445  0.9183  1.5553
   47MOL   H51144763   5.953   3.638   2.299  0.0802  2.5780 -1.8482
   47MOL   H51244764   5.855   3.590   2.163  0.6146  1.5233 -0.0271
   47MOL   H51344765   5.728   3.475   2.378  0.1260  0.1573 -1.1228
   47MOL   H51444766   5.766   3.264   2.422  0.5077 -0.0637 -1.1264
   47MOL   H51544767   5.916   3.177   2.392  0.4551 -0.9734  0.0396
   47MOL   H51644768   5.747   3.059   2.269  2.1011 -0.2998 -1.2778
   47MOL   H51744769   5.840   3.156   2.147  1.5103  3.3003 -0.1617
   47MOL   H51844770   5.580   3.258   2.276  0.2040  0.5454 -0.6721
   47MOL   H51944771   5.676   3.325   2.155  2.3392  0.4754  1.9814
   47MOL   H52044772   5.483   3.213   2.038  0.8553  0.7025 -0.6664
   47MOL   H52144773   5.625   3.120   2.011 -1.3248  1.5820 -1.4093
   47MOL   H52244774   5.558   2.949   2.176 -0.2687  0.4132  1.3693
   47MOL   H52344775   5.432   3.058   2.238 -0.8271 -2.4929 -0.3480
   47MOL   H52444776   5.459   2.941   1.954 -1.4306 -0.6537 -1.2481
   47MOL   H52544777   5.332   3.042   2.002  1.2276  0.9764 -2.3897
   47MOL   H52644778   5.400   2.761   2.110  0.0520  0.0921 -0.6837
   47MOL   H52744779   5.283   2.865   2.198 -1.1120 -0.2904 -0.2812
   47MOL   H52844780   5.232   2.754   1.914 -0.6404 -1.7163  0.4094
   47MOL   H52944781   5.143   2.880   1.996 -2.6499 -0.9491  0.1726
   47MOL   N53044782   5.002   2.642   2.028 -0.2696  0.1255 -0.1383
   47MOL   C53144783   4.908   2.554   2.096 -0.8924 -0.0607  0.5669
   47MOL   C53244784   4.764   2.597   2.066  0.3220 -0.6146 -0.1966
   47MOL   C53344785   4.675   2.481   2.050  0.3479  0.0411  0.1159
   47MOL   C53444786   4.538   2.499   2.036  0.1198  0.4602  0.2361
   47MOL   C53544787   4.491   2.633   2.036  0.1158 -0.9099 -0.3032
   47MOL   C53644788   4.575   2.744   2.044  0.8109  0.3581 -0.6700
   47MOL   C53744789   4.710   2.730   2.061  0.1085  0.7594 -0.5665
   47MOL   C53844790   4.782   2.858   2.073 -0.0841  0.2714  0.4807
   47MOL   N53944791   4.770   2.950   1.959  0.0206  0.0095  0.2994
   47MOL   C54044792   4.829   2.936   1.839  0.5091  0.8714  0.0973
   47MOL   O54144793   4.916   2.854   1.823 -0.2339 -0.1908 -0.4242
   47MOL   C54244794   4.768   3.028   1.734  0.2047 -0.0968 -0.1579
   47MOL   C54344795   4.860   3.052   1.614 -0.0320  0.3818  0.8715
   47MOL   C54444796   4.823   3.171   1.526 -0.3767 -0.5842 -0.6039
   47MOL   C54544797   4.909   3.199   1.405 -0.3840 -0.4264 -0.1839
   47MOL   C54644798   4.939   3.073   1.329 -0.4074 -0.0386  0.2133
   47MOL   C54744799   4.980   3.114   1.189  0.5592  0.4236  0.3695
   47MOL   C54844800   5.053   2.995   1.108 -0.5076  0.3154  0.5067
   47MOL   C54944801   4.959   2.922   1.004 -0.3278 -0.0901  0.1712
   47MOL   C55044802   4.848   2.852   1.065 -0.0122  0.0290  0.3859
   47MOL   O55144803   4.868   2.743   1.124 -0.3911 -0.4870  0.2569
   47MOL   H55244804   4.972   2.690   1.944 -0.2605  0.4913  0.0689
   47MOL   H55344805   4.923   2.531   2.202 -0.7317 -0.1138  0.5319
   47MOL   H55444806   4.918   2.460   2.043 -0.0032  0.9580 -1.1082
   47MOL   H55544807   4.715   2.382   2.069 -1.0493 -0.6780 -0.6394
   47MOL   H55644808   4.468   2.417   2.035  0.6170  0.0129  1.1589
   47MOL   H55744809   4.385   2.648   2.028  0.4343  0.8679 -1.4655
   47MOL   H55844810   4.526   2.840   2.039 -1.3422 -0.6967 -0.7511
   47MOL   H55944811   4.884   2.848   2.113  0.1640  2.0210  0.3528
   47MOL   H56044812   4.725   2.914   2.147 -0.5487  0.2870  0.1090
   47MOL   H56144813   4.722   3.038   1.970 -2.0018 -0.5682 -3.1463
   47MOL   H56244814   4.750   3.117   1.793  1.7346 -0.0127  0.1837
   47MOL   H56344815   4.671   2.991   1.700  0.4716 -1.7008  0.7626
   47MOL   H56444816   4.857   2.962   1.552  0.0164  0.5270  0.6562
   47MOL   H56544817   4.959   3.068   1.655 -0.1737  0.1054  1.3196
   47MOL   H56644818   4.716   3.162   1.505 -0.9876 -0.6923  2.2871
   47MOL   H56744819   4.826   3.256   1.594  1.5897 -2.3037  1.5148
   47MOL   H56844820   4.856   3.274   1.347 -0.1934  0.3355  0.6142
   47MOL   H56944821   5.008   3.235   1.437  0.1624 -0.9436 -1.2877
   47MOL   H57044822   5.025   3.021   1.372 -0.0821  1.1935  1.0655
   47MOL   H57144823   4.852   3.008   1.319 -0.4417 -0.0092  0.3309
   47MOL   H57244824   5.058   3.189   1.206  0.0871  1.1079 -0.4290
   47MOL   H57344825   4.900   3.162   1.132  0.0243 -0.7778  0.0979
   47MOL   H57444826   5.123   3.043   1.040 -0.2913 -1.1890 -0.3441
   47MOL   H57544827   5.114   2.921   1.159 -0.2441 -1.5336 -2.3815
   47MOL   H57644828   5.007   2.845   0.943  0.8090  0.2921  0.5847
   47MOL   H57744829   4.922   2.985   0.923  0.4913  0.4315  0.1995
   47MOL   N57844830   4.733   2.913   1.053  0.3026 -0.0849  0.1884
   47MOL   C57944831   4.613   2.887   1.132  0.0532  0.7395  0.5191
   47MOL   C58044832   4.570   3.005   1.218 -0.1990  0.1573 -0.4487
   47MOL   C58144833   4.610   3.137   1.180  0.7898 -0.0050  0.5634
   47MOL   C58244834   4.560   3.251   1.240  0.3395 -0.1987  0.8701
   47MOL   C58344835   4.475   3.239   1.348  0.2061 -0.5141  0.1194
   47MOL   C58444836   4.430   3.114   1.392  0.0808 -0.2621  0.3188
   47MOL   C58544837   4.471   2.995   1.316 -0.4828  0.0021  1.0259
   47MOL   C58644838   4.413   2.859   1.350  0.4653 -0.0334 -0.3854
   47MOL   N58744839   4.494   2.800   1.456  0.2006 -0.0875 -0.0943
   47MOL   C58844840   4.588   2.707   1.446  0.0274 -0.0383 -1.2612
   47MOL   O58944841   4.590   2.625   1.354  0.2881  0.1155 -0.1967
   47MOL   C59044842   4.695   2.689   1.560 -0.1984 -0.0493  0.0264
   47MOL   C59144843   4.689   2.545   1.619 -0.7238  0.1701  0.3825
   47MOL   C59244844   4.754   2.443   1.533 -0.2844  0.3994 -0.1094
   47MOL   C59344845   4.723   2.296   1.584  0.1044  0.3452  0.1862
   47MOL   C59444846   4.754   2.192   1.481  0.0942  0.3890  0.0109
   47MOL   C59544847   4.728   2.050   1.539 -0.3511 -0.3811 -0.0084
   47MOL   C59644848   4.725   1.943   1.429  0.0112  0.1120  0.1110
   47MOL   C59744849   4.733   1.800   1.469  0.1653 -0.1361 -0.4295
   47MOL   C59844850   4.609   1.749   1.548 -0.8344 -0.3242  0.1851
   47MOL   O59944851   4.508   1.711   1.486 -0.1912 -0.5006 -0.3171
   47MOL   H60044852   4.733   2.982   0.979 -1.8262 -0.5498 -0.2703
   47MOL   H60144853   4.627   2.794   1.188 -1.2608  0.8656  1.0726
   47MOL   H60244854   4.537   2.848   1.064  0.5666 -1.2846  1.0760
   47MOL   H60344855   4.673   3.160   1.095  3.4479 -1.8536  1.9583
   47MOL   H60444856   4.589   3.343   1.193  0.2558 -0.1123  0.9862
   47MOL   H60544857   4.435   3.324   1.402  2.5304  0.5988  0.1507
   47MOL   H60644858   4.359   3.106   1.474 -0.6117 -0.9649 -0.3426
   47MOL   H60744859   4.409   2.807   1.254 -0.8549  0.5758 -0.6705
   47MOL   H60844860   4.309   2.861   1.382  1.5582 -1.9701  3.5756
   47MOL   H60944861   4.492   2.855   1.541  1.8720 -0.4014  0.1619
   47MOL   H61044862   4.674   2.759   1.642  0.3946 -0.4316  0.5039
   47MOL   H61144863   4.796   2.708   1.525 -1.6717  2.9356 -2.9444
   47MOL   H61244864   4.585   2.512   1.627 -0.9121  0.9503  1.2477
   47MOL   H61344865   4.739   2.541   1.716  0.2908 -0.8623 -0.1619
   47MOL   H61444866   4.713   2.443   1.432 -2.4265 -0.3439  0.7474
   47MOL   H61544867   4.862   2.456   1.523 -0.3471  0.5120 -0.6688
   47MOL   H61644868   4.780   2.272   1.674  2.8895 -3.9278 -2.5092
   47MOL   H61744869   4.616   2.306   1.603 -0.0430  0.0535 -0.4775
   47MOL   H61844870   4.692   2.209   1.392  0.3191 -0.5085 -0.3257
   47MOL   H61944871   4.859   2.186   1.451  0.2629 -2.1607  0.9977
   47MOL   H62044872   4.634   2.058   1.595 -1.4961 -1.3269 -1.7467
   47MOL   H62144873   4.808   2.025   1.608  0.0242  0.8871  0.0347
   47MOL   H62244874   4.642   1.965   1.362 -0.1373  1.0830  0.6103
   47MOL   H62344875   4.808   1.962   1.362 -0.6953 -0.8057 -1.0564
   47MOL   H62444876   4.728   1.738   1.379  0.4040 -2.1453  0.9113
   47MOL   H62544877   4.823   1.783   1.527  0.0974 -0.3024 -0.3737
   47MOL   N62644878   4.626   1.742   1.682 -0.0187  0.7517  0.4845
   47MOL   C62744879   4.526   1.707   1.780  0.2288  0.1455 -0.2726
   47MOL   C62844880   4.523   1.804   1.893 -0.3360  0.2693  0.0384
   47MOL   C62944881   4.613   1.913   1.894  0.3104  0.0854 -0.7179
   47MOL   C63044882   4.622   2.002   2.006  0.0793  0.4721  0.8126
   47MOL   C63144883   4.547   1.978   2.123  0.2702 -0.4330 -0.0335
   47MOL   C63244884   4.453   1.875   2.124  0.0011  1.6705 -0.0427
   47MOL   C63344885   4.443   1.786   2.012 -0.4066  0.8252 -0.1837
   47MOL   C63444886   4.341   1.669   2.020 -0.2092 -0.3062 -0.1617
   47MOL   N63544887   4.387   1.531   2.010  0.3351 -0.9410  0.4184
   47MOL   C63644888   4.343   1.449   1.914 -0.8673  0.2688 -0.7555
   47MOL   O63744889   4.278   1.485   1.821  0.1215  0.1501 -0.2998
   47MOL   C63844890   4.368   1.299   1.936  0.1848 -0.4226  0.0359
   47MOL   C63944891   4.232   1.214   1.939 -0.3778  0.2751 -0.4702
   47MOL   C64044892   4.144   1.245   2.055 -0.2847  0.2028  0.6627
   47MOL   C64144893   4.191   1.207   2.186 -0.5285 -0.3019 -0.0419
   47MOL   C64244894   4.101   1.250   2.301  0.1634 -0.0746  0.1414
   47MOL   C64344895   4.139   1.387   2.359  0.1981 -0.0610  0.0751
   47MOL   C64444896   4.044   1.424   2.473  0.4005  0.6746 -0.1025
   47MOL   C64544897   4.101   1.531   2.569  0.9138  0.0862 -0.0406
   47MOL   C64644898   4.196   1.481   2.677 -0.6648  0.4214  1.1572
   47MOL   O64744899   4.183   1.367   2.730  0.2009 -0.4704  0.6899
   47MOL   H64844900   4.714   1.769   1.722  0.9001 -0.1163 -0.9156
   47MOL   H64944901   4.566   1.615   1.822  0.7447  0.7279  0.5467
   47MOL   H65044902   4.424   1.690   1.746  0.0000  3.2528 -1.2869
   47MOL   H65144903   4.683   1.929   1.814  0.4116  2.9096 -0.1159
   47MOL   H65244904   4.699   2.078   2.008  0.3523  0.1931  0.8895
   47MOL   H65344905   4.542   2.051   2.204 -2.3787 -0.0747 -0.4709
   47MOL   H65444906   4.386   1.862   2.207 -0.7227  1.0050 -0.7224
   47MOL   H65544907   4.263   1.694   1.947 -2.0459  0.8115  2.1047
   47MOL   H65644908   4.282   1.661   2.111 -0.7467 -1.0370 -0.5718
   47MOL   H65744909   4.437   1.492   2.088 -1.0285 -2.4159  0.5842
   47MOL   H65844910   4.437   1.284   2.019  0.0700 -3.0440 -0.2939
   47MOL   H65944911   4.421   1.263   1.847 -1.1867  1.6671 -1.6652
   47MOL   H66044912   4.242   1.106   1.946 -0.3819  0.3906  1.7929
   47MOL   H66144913   4.181   1.242   1.847  0.5367  1.8101 -0.5298
   47MOL   H66244914   4.126   1.351   2.072  0.5428  1.0065 -3.0373
   47MOL   H66344915   4.046   1.201   2.034  0.3286 -0.3074 -1.1419
   47MOL   H66444916   4.200   1.099   2.181  1.3552 -0.2624  1.7475
   47MOL   H66544917   4.293   1.236   2.210 -0.2092 -1.4457 -0.0127
   47MOL   H66644918   3.998   1.255   2.266 -0.0660 -0.9217  0.6685
   47MOL   H66744919   4.099   1.169   2.375  0.0626  0.4237  0.6882
   47MOL   H66844920   4.134   1.462   2.280  1.9431 -0.1294 -0.1276
   47MOL   H66944921   4.242   1.391   2.393  0.4110 -2.7119 -0.2027
   47MOL   H67044922   3.951   1.463   2.433  0.5638  0.9425 -0.2167
   47MOL   H67144923   4.024   1.331   2.527 -0.6955  0.5733 -0.6551
   47MOL   H67244924   4.014   1.585   2.606  0.8349 -1.1424  1.6361
   47MOL   H67344925   4.155   1.600   2.503 -1.3713  0.6495 -1.3789
   47MOL   N67444926   4.296   1.564   2.707  0.5247 -0.9992 -0.3310
   47MOL   C67544927   4.390   1.560   2.820  0.6755  0.0098 -0.3736
   47MOL   C67644928   4.442   1.696   2.858  0.1042  0.4839 -0.1547
   47MOL   C67744929   4.542   1.755   2.780  0.9734 -0.4239  0.3848
   47MOL   C67844930   4.611   1.864   2.825 -0.0465 -0.4258 -0.2349
   47MOL   C67944931   4.574   1.936   2.942  0.2415 -0.4711  0.2601
   47MOL   C68044932   4.461   1.894   3.010  0.7711  0.6906 -0.0497
   47MOL   C68144933   4.400   1.772   2.975  0.0179  0.2029 -0.2671
   47MOL   C68244934   4.280   1.727   3.065  0.1194  0.1400 -0.0771
   47MOL   N68344935   4.316   1.736   3.208  0.5138  0.7012 -0.2731
   47MOL   C68444936   4.415   1.665   3.266  0.6047 -0.1143  0.3369
   47MOL   O68544937   4.462   1.569   3.205 -0.0124  0.6994 -0.3777
   47MOL   C68644938   4.441   1.693   3.415 -0.0688 -0.0271 -0.2748
   47MOL   C68744939   4.495   1.574   3.494 -0.3908 -0.4586  0.0895
   47MOL   C68844940   4.384   1.465   3.520  0.5202  0.4710 -0.2218
   47MOL   C68944941   4.272   1.496   3.623 -0.4370 -0.4580  0.3401
   47MOL   C69044942   4.190   1.367   3.655  0.3044 -0.1783  0.3261
   47MOL   C69144943   4.117   1.302   3.533  0.0642  0.8641 -0.7930
   47MOL   C69244944   4.045   1.171   3.576  0.1430 -0.3426 -0.1088
   47MOL   C69344945   3.954   1.110   3.472  0.3588 -0.0445  0.7677
   47MOL   C69444946   3.820   1.176   3.474  0.1688  0.4881 -0.3521
   47MOL   O69544947   3.750   1.172   3.576 -0.3181  0.6401 -0.1582
   47MOL   H69644948   4.288   1.648   2.651 -0.0585 -0.1427  1.0039
   47MOL   H69744949   4.473   1.508   2.773  0.2308 -1.8654  0.8507
   47MOL   H69844950   4.350   1.501   2.902  0.4335 -0.2169 -0.6486
   47MOL   H69944951   4.574   1.705   2.690  0.7738 -0.6427  0.4327
   47MOL   H70044952   4.687   1.905   2.761  2.1064  0.6955  2.9043
   47MOL   H70144953   4.627   2.023   2.977  0.8691 -1.2530  1.2877
   47MOL   H70244954   4.430   1.950   3.097 -1.5481  1.8147 -1.5684
   47MOL   H70344955   4.231   1.635   3.036 -1.1572  1.0922 -1.0187
   47MOL   H70444956   4.204   1.802   3.041 -0.5387  0.0179  1.6132
   47MOL   H70544957   4.266   1.805   3.263  1.1154  0.9486 -0.0238
   47MOL   H70644958   4.353   1.737   3.462  1.1950  2.1299  0.1649
   47MOL   H70744959   4.511   1.777   3.421 -2.5384  1.9047  2.5853
   47MOL   H70844960   4.532   1.616   3.587  1.7764 -0.8944 -0.5516
   47MOL   H70944961   4.582   1.534   3.442  0.5152  2.1282 -0.4798
   47MOL   H71044962   4.343   1.444   3.421  1.3493 -0.4663 -0.3860
   47MOL   H71144963   4.440   1.376   3.550 -0.7339  0.6238  2.7142
   47MOL   H71244964   4.322   1.529   3.714  1.2654  0.5341 -0.9231
   47MOL   H71344965   4.219   1.585   3.590 -0.7999 -0.5316  0.7200
   47MOL   H71444966   4.263   1.302   3.704  0.8783  2.0365  2.4839
   47MOL   H71544967   4.108   1.388   3.724 -0.2911 -3.2090  0.6117
   47MOL   H71644968   4.182   1.266   3.453  0.3616  0.9110 -0.5781
   47MOL   H71744969   4.035   1.368   3.505 -0.4697  0.2095 -0.7790
   47MOL   H71844970   3.999   1.185   3.674 -1.5239 -2.5000 -0.5428
   47MOL   H71944971   4.122   1.096   3.594  0.6194  0.3015  0.5743
   47MOL   H72044972   3.939   1.006   3.501  0.7727 -0.7613 -1.4903
   47MOL   H72144973   3.995   1.101   3.372 -1.2679 -0.0177  0.0830
   47MOL   N72244974   3.778   1.247   3.366 -0.1628 -0.0899  0.8420
   47MOL   C72344975   3.663   1.339   3.350 -0.5636  0.2290 -0.2526
   47MOL   C72444976   3.711   1.485   3.337  0.6142 -0.5159 -0.0091
   47MOL   C72544977   3.841   1.518   3.295 -0.3452  0.1449 -0.3766
   47MOL   C72644978   3.877   1.654   3.286 -0.1554 -0.2968 -0.5248
   47MOL   C72744979   3.788   1.758   3.313  0.2400 -0.0751  0.1723
   47MOL   C72844980   3.658   1.725   3.353  0.7950  0.1738  0.1554
   47MOL   C72944981   3.621   1.589   3.362  0.7595  0.6141 -0.1026
   47MOL   C73044982   3.474   1.562   3.380  0.0467 -0.4794 -0.7606
   47MOL   N73144983   3.433   1.604   3.511  0.2345 -0.0551 -0.9987
   47MOL   C73244984   3.312   1.651   3.540  0.0048 -0.3434  0.4963
   47MOL   O73344985   3.218   1.649   3.456  0.0386  0.3678 -0.8043
   47MOL   C73444986   3.276   1.717   3.675  0.2294  0.0967 -0.4319
   47MOL   C73544987   3.229   1.862   3.669  0.4228  0.0005 -0.2605
   47MOL   C73644988   3.163   1.918   3.792  0.5084  0.4976 -0.0360
   47MOL   C73744989   3.137   2.068   3.786 -0.8046  0.6187 -0.0391
   47MOL   C73844990   3.061   2.129   3.902 -0.2304  0.2142  0.0325
   47MOL   C73944991   2.973   2.259   3.875 -0.3599  0.2940  1.0770
   47MOL   C74044992   3.049   2.369   3.790 -0.1931  0.8203  0.2527
   47MOL   C74144993   2.951   2.480   3.741  0.6374  0.9427  0.5143
   47MOL   C74244994   2.883   2.566   3.842  0.2879 -0.0183 -0.2452
   47MOL   O74344995   2.932   2.590   3.948 -0.5987  0.4397 -0.2374
   47MOL   H74444996   3.833   1.234   3.283 -0.6634 -1.6556  0.7341
   47MOL   H74544997   3.597   1.321   3.434  1.4898 -1.3546  1.0898
   47MOL   H74644998   3.615   1.315   3.255  1.3900  0.2500 -1.2891
   47MOL   H74744999   3.910   1.437   3.280 -0.5728  0.1245 -1.3465
   47MOL   H74845000   3.979   1.673   3.257 -0.9484  2.7567 -1.5672
   47MOL   H74945001   3.812   1.864   3.312 -1.8647  0.4755  2.3007
   47MOL   H75045002   3.582   1.797   3.381 -1.3892 -2.9271  2.4853
   47MOL   H75145003   3.440   1.459   3.369  2.9617 -1.3541 -2.0430
   47MOL   H75245004   3.417   1.615   3.303  0.6242  0.2994 -0.6564
   47MOL   H75345005   3.499   1.607   3.587 -0.4805  0.6576 -0.3885
   47MOL   H75445006   3.349   1.708   3.755  0.0756 -0.6331 -0.3730
   47MOL   H75545007   3.183   1.667   3.703  0.7937 -1.8562 -1.9873
   47MOL   H75645008   3.167   1.869   3.580  0.5021  0.9247 -0.2555
   47MOL   H75745009   3.321   1.914   3.641  1.2641 -2.3426 -2.0102
   47MOL   H75845010   3.065   1.871   3.802 -0.6183  2.7655  0.0891
   47MOL   H75945011   3.221   1.898   3.881  0.2392  0.6590  0.1764
   47MOL   H76045012   3.229   2.120   3.759 -2.8826  3.5916 -1.7107
   47MOL   H76145013   3.070   2.078   3.701 -0.8254  0.2727 -0.0642
   47MOL   H76245014   2.991   2.051   3.932 -1.2778  1.0111 -0.2969
   47MOL   H76345015   3.128   2.129   3.988 -0.8478 -0.0632  0.5153
   47MOL   H76445016   2.948   2.310   3.968 -1.9627  1.0216  0.2682
   47MOL   H76545017   2.877   2.233   3.830 -0.5249  0.2966  1.4269
   47MOL   H76645018   3.138   2.411   3.837 -1.4915  2.7247  1.0406
   47MOL   H76745019   3.088   2.316   3.703 -0.3040 -0.3647  0.9027
   47MOL   H76845020   3.007   2.544   3.673  1.7282 -1.3954 -0.8610
   47MOL   H76945021   2.871   2.433   3.683 -0.4418  0.1656  2.5924
   47MOL   N77045022   2.758   2.600   3.809 -0.2558 -0.8503 -0.6494
   47MOL   C77145023   2.685   2.697   3.880  0.4852 -0.4272 -0.4894
   47MOL   C77245024   2.548   2.737   3.818  0.2851  0.1340 -0.3282
   47MOL   C77345025   2.430   2.673   3.864  0.1838 -0.5873  0.0238
   47MOL   C77445026   2.306   2.708   3.813  0.2741 -0.0925 -0.1537
   47MOL   C77545027   2.290   2.812   3.720  0.7395 -0.2140  0.2258
   47MOL   C77645028   2.408   2.872   3.670  0.8544 -0.1073 -0.3069
   47MOL   C77745029   2.535   2.836   3.713 -0.1113  0.2368  0.6612
   47MOL   C77845030   2.662   2.909   3.659  0.5395 -0.1530 -0.3894
   47MOL   N77945031   2.633   3.018   3.571  0.4404 -0.1604  0.4142
   47MOL   C78045032   2.625   3.018   3.437 -0.0639 -0.1188  0.1021
   47MOL   O78145033   2.633   2.912   3.381  0.2556 -0.2883  0.4239
   47MOL   C78245034   2.586   3.144   3.358 -0.2392  0.2917  0.4083
   47MOL   C78345035   2.625   3.121   3.207  0.2516 -0.6187 -0.1856
   47MOL   C78445036   2.527   3.036   3.122  0.1702 -0.0806  0.4884
   47MOL   C78545037   2.570   3.024   2.975 -0.6616  0.0620 -0.6575
   47MOL   C78645038   2.686   2.932   2.948 -0.1440 -0.2482  0.7966
   47MOL   C78745039   2.707   2.908   2.800 -0.3376  0.3420 -0.1083
   47MOL   C78845040   2.808   2.789   2.786  0.0861 -0.3721 -0.5042
   47MOL   C78945041   2.852   2.765   2.643  0.8602 -0.7940 -0.4191
   47MOL   C79045042   2.919   2.632   2.620 -0.0361  0.6499  0.3582
   47MOL   O79145043   2.853   2.530   2.639 -0.6300  0.8679  0.2646
   47MOL   H79245044   2.714   2.558   3.729 -3.4532  0.2465  0.4222
   47MOL   H79345045   2.657   2.651   3.974  0.0344  1.2976  0.2468
   47MOL   H79445046   2.749   2.783   3.901 -0.5999  0.3496 -0.2867
   47MOL   H79545047   2.432   2.586   3.928  0.9937 -0.2969  0.4088
   47MOL   H79645048   2.219   2.659   3.852  1.9840 -1.8123  1.5669
   47MOL   H79745049   2.198   2.843   3.673  0.6749 -0.7240  0.0160
   47MOL   H79845050   2.394   2.944   3.590  0.9084  0.6539  0.3637
   47MOL   H79945051   2.722   2.836   3.605 -0.9658  0.4191 -2.8688
   47MOL   H80045052   2.717   2.953   3.743  2.6232 -0.1073 -1.7592
   47MOL   H80145053   2.623   3.110   3.612 -3.3579 -0.1792 -0.2208
   47MOL   H80245054   2.658   3.222   3.385  0.6891 -0.3377 -0.2077
   47MOL   H80345055   2.489   3.188   3.382  0.0879  1.1151  0.2506
   47MOL   H80445056   2.725   3.081   3.190  0.6378  0.6003 -0.8311
   47MOL   H80545057   2.636   3.214   3.151  2.3325 -1.6173 -1.5414
   47MOL   H80645058   2.426   3.072   3.139 -1.1467 -2.7074 -1.4085
   47MOL   H80745059   2.531   2.938   3.169  0.4014  0.0140  0.6683
   47MOL   H80845060   2.484   2.993   2.915 -0.9028 -0.1025 -0.2242
   47MOL   H80945061   2.594   3.127   2.948  0.6783  0.2959  1.3576
   47MOL   H81045062   2.760   2.991   3.002  0.0026 -0.2344  0.5797
   47MOL   H81145063   2.666   2.840   3.004  3.2492 -1.5498 -0.0129
   47MOL   H81245064   2.737   2.998   2.746 -2.0846  0.1694 -1.4266
   47MOL   H81345065   2.615   2.880   2.750  0.4287  1.4804 -2.2309
   47MOL   H81445066   2.754   2.701   2.822 -0.0627  0.2508  0.8125
   47MOL   H81545067   2.901   2.811   2.837 -1.0605  0.1068  1.4246
   47MOL   H81645068   2.912   2.849   2.607  0.1723  0.7157  1.8781
   47MOL   H81745069   2.768   2.752   2.574 -0.4651 -2.2866  1.4253
   47MOL   N81845070   3.041   2.635   2.568  0.1256  0.4492  0.0016
   47MOL   C81945071   3.128   2.520   2.535  0.1271 -0.2259 -0.2446
   47MOL   C82045072   3.115   2.461   2.392 -0.0945 -0.3329  0.4959
   47MOL   C82145073   3.017   2.515   2.305 -0.7815 -0.3086 -0.2901
   47MOL   C82245074   2.994   2.457   2.183 -0.1985 -0.3006 -0.0943
   47MOL   C82345075   3.075   2.357   2.132  0.0778  0.4392 -0.3114
   47MOL   C82445076   3.170   2.297   2.217  0.1465 -0.5733 -0.0083
   47MOL   C82545077   3.186   2.346   2.348 -0.4093  0.0374 -0.3528
   47MOL   C82645078   3.289   2.275   2.439  0.3039  0.2068 -0.4286
   47MOL   N82745079   3.219   2.197   2.547  0.6169  0.0544  0.4817
   47MOL   C82845080   3.236   2.210   2.679 -0.2007  1.0140  0.3271
   47MOL   O82945081   3.320   2.283   2.728 -0.5323  1.1412  0.1075
   47MOL   C83045082   3.161   2.117   2.776 -0.3312 -0.0845 -0.4716
   47MOL   C83145083   3.059   2.199   2.852  0.2551 -0.0457 -0.4545
   47MOL   C83245084   3.110   2.293   2.962 -0.1437  0.3157 -0.3261
   47MOL   C83345085   2.997   2.366   3.026 -0.5141 -1.0183 -0.0398
   47MOL   C83445086   3.052   2.446   3.142  0.3340 -0.1142 -0.0446
   47MOL   C83545087   2.942   2.521   3.217 -0.8443 -0.0595 -0.0335
   47MOL   C83645088   2.980   2.598   3.341  0.4803 -0.0983 -0.5850
   47MOL   C83745089   2.859   2.696   3.386  0.1312 -0.5877 -0.3201
   47MOL   C83845090   2.734   2.606   3.418 -0.0761  0.0108  0.6445
   47MOL   O83945091   2.736   2.531   3.517 -0.4265 -0.5458 -0.0067
   47MOL   H84045092   3.078   2.727   2.550 -0.5044  0.7683  0.2929
   47MOL   H84145093   3.233   2.540   2.556  0.5513 -0.3710 -2.1587
   47MOL   H84245094   3.105   2.443   2.608  0.8032 -0.0192  0.1918
   47MOL   H84345095   2.952   2.595   2.335 -0.8393 -0.3333 -0.3489
   47MOL   H84445096   2.916   2.493   2.118  0.1639  1.2323  0.2927
   47MOL   H84545097   3.070   2.315   2.033  3.3735  1.8296 -1.1489
   47MOL   H84645098   3.232   2.215   2.183 -1.6569 -1.9658  0.0115
   47MOL   H84745099   3.354   2.354   2.476  0.0785  0.4222 -0.4915
   47MOL   H84845100   3.357   2.217   2.376 -1.5663 -3.3322  0.6820
   47MOL   H84945101   3.145   2.137   2.512  1.9529 -0.5234 -1.4276
   47MOL   H85045102   3.235   2.074   2.844 -1.3197 -0.4936  0.3492
   47MOL   H85145103   3.112   2.039   2.717  1.3750 -0.3332 -1.6034
   47MOL   H85245104   2.997   2.125   2.901  1.0313 -0.6703 -0.3947
   47MOL   H85345105   2.988   2.249   2.787  0.7928 -1.1578 -1.9264
   47MOL   H85445106   3.189   2.364   2.938  1.6034 -1.0386  1.2197
   47MOL   H85545107   3.152   2.230   3.040 -1.1240  1.8092  1.4560
   47MOL   H85645108   2.938   2.426   2.957  0.8325  0.5782  0.1511
   47MOL   H85745109   2.932   2.285   3.057  1.1867 -2.2461  0.3919
   47MOL   H85845110   3.105   2.380   3.211 -0.5784 -1.5867 -0.7185
   47MOL   H85945111   3.118   2.521   3.098 -0.3623  1.7440  2.0269
   47MOL   H86045112   2.862   2.451   3.239 -1.1729  0.1035 -0.7030
   47MOL   H86145113   2.888   2.586   3.148 -2.4836  1.2191  2.3657
   47MOL   H86245114   3.074   2.651   3.324  0.1893  0.0535 -1.8199
   47MOL   H86345115   2.997   2.526   3.421  0.5574 -0.1820 -0.6747
   47MOL   H86445116   2.890   2.750   3.476 -0.5587  0.4289 -0.6845
   47MOL   H86545117   2.833   2.759   3.301 -1.9426  0.5570  1.1196
   47MOL   N86645118   2.639   2.620   3.331  0.3602  0.4602  0.1599
   47MOL   C86745119   2.515   2.539   3.331  0.7153 -0.0061  0.2363
   47MOL   C86845120   2.506   2.429   3.228 -0.2803  0.0594  0.3207
   47MOL   C86945121   2.449   2.475   3.106 -0.8118 -0.7483  0.1347
   47MOL   C87045122   2.430   2.382   3.000  0.2337 -0.0325 -0.1197
   47MOL   C87145123   2.462   2.244   3.015 -0.1330 -0.1540  0.0223
   47MOL   C87245124   2.511   2.198   3.144  0.1298  0.4615  0.0443
   47MOL   C87345125   2.529   2.289   3.250 -0.2660  0.1782 -0.2334
   47MOL   C87445126   2.575   2.238   3.384  0.0759 -0.2651  0.0375
   47MOL   N87545127   2.719   2.255   3.404  0.2289  0.9459 -0.4294
   47MOL   C87645128   2.814   2.168   3.365  0.5525 -0.1576  0.4136
   47MOL   O87745129   2.787   2.068   3.300 -0.4770  0.1585  0.5065
   47MOL   C87845130   2.955   2.198   3.420 -0.5590 -0.3303  0.1925
   47MOL   C87945131   3.054   2.093   3.360 -0.0441 -0.2136 -0.5042
   47MOL   C88045132   3.206   2.113   3.412 -0.3224 -0.2127  0.7047
   47MOL   C88145133   3.299   2.000   3.352 -0.0464  0.6359 -0.0435
   47MOL   C88245134   3.333   2.038   3.202 -0.2352  0.8466  0.2224
   47MOL   C88345135   3.459   1.964   3.152  0.1910  0.4329  0.6814
   47MOL   C88445136   3.501   2.003   3.009 -1.0946 -0.0185 -0.5739
   47MOL   C88545137   3.534   2.153   2.980  0.0082  0.7165  0.1682
   47MOL   C88645138   3.620   2.168   2.848 -1.0000  0.8389  0.7039
   47MOL   O88745139   3.634   2.068   2.777 -0.2091  0.1135 -0.2173
   47MOL   H88845140   2.652   2.662   3.240 -1.0905 -0.4612 -0.4939
   47MOL   H88945141   2.513   2.504   3.434  1.2294 -1.9766 -0.3946
   47MOL   H89045142   2.424   2.600   3.331 -0.3744 -1.5477  2.5901
   47MOL   H89145143   2.416   2.578   3.097 -1.0192 -0.7268  1.0749
   47MOL   H89245144   2.385   2.410   2.906  3.4536  2.2934 -1.0888
   47MOL   H89345145   2.434   2.172   2.939 -0.8924 -1.4037  1.4467
   47MOL   H89445146   2.541   2.098   3.170  2.4270  1.2974  0.7882
   47MOL   H89545147   2.530   2.140   3.397 -0.5584  0.0218 -0.0004
   47MOL   H89645148   2.532   2.290   3.470  0.2421 -0.2507  0.1120
   47MOL   H89745149   2.745   2.317   3.479  1.0666  0.0136  0.0785
   47MOL   H89845150   2.940   2.205   3.528  0.1361 -0.2684  0.2848
   47MOL   H89945151   2.991   2.296   3.387  1.2088 -0.8701  0.4794
   47MOL   H90045152   3.057   2.088   3.251  1.2544  0.5955 -0.5218
   47MOL   H90145153   3.023   1.996   3.398 -1.5593  0.3219 -0.3126
   47MOL   H90245154   3.240   2.214   3.392 -1.1027  0.6556  3.5539
   47MOL   H90345155   3.211   2.100   3.521  4.9251 -0.5812  0.5607
   47MOL   H90445156   3.389   1.992   3.413 -0.2690  1.4295  0.3848
   47MOL   H90545157   3.246   1.905   3.365  2.8181 -0.8331  1.6703
   47MOL   H90645158   3.245   2.030   3.137  0.8195  2.5671 -1.4599
   47MOL   H90745159   3.354   2.143   3.188 -0.9467  0.5367 -3.6437
   47MOL   H90845160   3.444   1.856   3.152  1.5413  0.2320 -0.3623
   47MOL   H90945161   3.541   1.982   3.221 -1.1698  1.0821  2.1613
   47MOL   H91045162   3.595   1.948   2.998 -0.0978  1.0125  2.1416
   47MOL   H91145163   3.434   1.962   2.934 -1.0327 -2.2635  0.5566
   47MOL   H91245164   3.442   2.207   2.959 -0.4891  0.0207  0.5502
   47MOL   H91345165   3.584   2.207   3.060  1.8194  1.8501 -1.6677
   47MOL   N91445166   3.676   2.287   2.817 -0.3129 -0.6922  0.2215
   47MOL   C91545167   3.774   2.309   2.710  0.0603 -0.5942 -0.6220
   47MOL   C91645168   3.710   2.341   2.573 -0.7982 -0.5957 -0.5287
   47MOL   C91745169   3.713   2.241   2.480  0.2880 -0.0505  0.4057
   47MOL   C91845170   3.655   2.258   2.350  0.2066  0.0443  0.0787
   47MOL   C91945171   3.610   2.386   2.305  0.1014  0.3156  0.1424
   47MOL   C92045172   3.613   2.486   2.407 -0.2620 -0.4010 -0.6783
   47MOL   C92145173   3.649   2.465   2.541 -0.0329 -0.5046  0.0148
   47MOL   C92245174   3.639   2.582   2.644 -0.7876  0.1088  0.3340
   47MOL   N92345175   3.531   2.567   2.732  0.3284  0.6377 -0.1306
   47MOL   C92445176   3.455   2.662   2.778  1.0806  0.2452  1.1775
   47MOL   O92545177   3.462   2.779   2.762  0.2220  0.3502  0.0414
   47MOL   C92645178   3.337   2.614   2.860  0.4296 -0.6236  0.5270
   47MOL   C92745179   3.227   2.710   2.909  0.6932 -0.0277  0.4600
   47MOL   C92845180   3.256   2.787   3.041 -0.0799  0.3803 -0.1978
   47MOL   C92945181   3.147   2.865   3.106 -0.7193  0.0843  0.2971
   47MOL   C93045182   3.193   2.994   3.180  0.7840  1.3537 -0.5547
   47MOL   C93145183   3.085   3.088   3.225 -0.4413  0.2126 -0.3637
   47MOL   C93245184   3.130   3.208   3.309 -0.2463  0.6145  0.4435
   47MOL   C93345185   3.012   3.264   3.396  0.0822  0.0416 -0.6076
   47MOL   C93445186   2.977   3.182   3.521  0.0692  0.6429 -0.2465
   47MOL   O93545187   2.884   3.217   3.595 -0.0674  0.4511 -0.1822
   47MOL   H93645188   3.662   2.361   2.884  0.2148 -0.3026 -0.0918
   47MOL   H93745189   3.839   2.392   2.739 -0.9572 -0.2434  0.7213
   47MOL   H93845190   3.818   2.210   2.706  1.0203 -0.1260 -2.0763
   47MOL   H93945191   3.748   2.143   2.512 -0.7522 -0.5975 -0.0934
   47MOL   H94045192   3.652   2.169   2.289 -2.9622  0.4199 -0.3970
   47MOL   H94145193   3.571   2.397   2.205 -1.0098  0.1682  0.5446
   47MOL   H94245194   3.573   2.586   2.395 -1.1287 -0.7147 -0.4611
   47MOL   H94345195   3.623   2.681   2.602 -0.9944 -0.3745 -0.7426
   47MOL   H94445196   3.733   2.592   2.700 -0.1862  0.6057 -0.7386
   47MOL   H94545197   3.487   2.476   2.727  0.4988  0.6642 -2.7936
   47MOL   H94645198   3.377   2.557   2.944 -0.9298 -1.9027  0.3343
   47MOL   H94745199   3.289   2.541   2.795 -0.0633  0.5119 -0.4037
   47MOL   H94845200   3.137   2.652   2.931  0.7436 -0.9234 -1.5293
   47MOL   H94945201   3.196   2.778   2.829 -2.7116 -0.1074  1.6054
   47MOL   H95045202   3.297   2.717   3.114  1.5516 -0.1398 -1.5573
   47MOL   H95145203   3.340   2.853   3.018  1.4327 -1.0392  1.1356
   47MOL   H95245204   3.073   2.884   3.028 -1.1396 -2.2394  0.0963
   47MOL   H95345205   3.096   2.801   3.178 -2.7351 -1.4505 -2.4081
   47MOL   H95445206   3.251   3.051   3.107 -0.8592  0.6791 -2.4185
   47MOL   H95545207   3.255   2.970   3.266 -0.2701 -0.9487 -0.4138
   47MOL   H95645208   3.016   3.100   3.142  0.3475 -0.7668 -1.1687
   47MOL   H95745209   3.021   3.024   3.285 -3.4250  3.1455 -0.2934
   47MOL   H95845210   3.158   3.288   3.240 -0.6157  0.8335  0.5432
   47MOL   H95945211   3.213   3.187   3.376  0.5515 -0.4728 -0.8477
   47MOL   H96045212   2.929   3.257   3.327 -1.1801 -0.0515  0.9084
   47MOL   H96145213   3.023   3.368   3.429  1.6517 -0.1317 -0.5244
   47MOL   H96245214   3.051   3.105   3.544 -0.8692  0.0023  0.6175
   48MOL     N145215   2.382   3.963   4.891 -0.2901 -0.2722 -0.3451
   48MOL     C245216   2.482   3.867   4.929  0.0534 -0.1504 -0.0656
   48MOL     C345217   2.446   3.814   5.065 -0.2164  0.1921  0.0166
   48MOL     C445218   2.355   3.708   5.071  0.3689  0.0286 -0.0561
   48MOL     C545219   2.315   3.653   5.197  0.4985  0.0262  0.6230
   48MOL     C645220   2.364   3.705   5.314 -0.3954  0.4369  0.2278
   48MOL     C745221   2.445   3.821   5.310  0.0276 -0.3296  0.3129
   48MOL     C845222   2.491   3.875   5.184  0.1009  0.9264  0.2063
   48MOL     C945223   2.587   3.992   5.173  0.1515  0.3722 -0.0700
   48MOL    N1045224   2.613   4.079   5.289 -0.6100 -0.0383 -0.9474
   48MOL    C1145225   2.710   4.046   5.375  0.5856 -0.6697 -0.0028
   48MOL    O1245226   2.788   3.953   5.368 -0.3843  0.2963 -0.3028
   48MOL    C1345227   2.742   4.144   5.488 -0.1632  0.4946  0.6623
   48MOL    C1445228   2.891   4.150   5.517  0.1871  1.1498  0.2327
   48MOL    C1545229   2.965   4.227   5.412 -0.5203  0.1541  0.2101
   48MOL    C1645230   3.113   4.236   5.446 -0.5050 -0.0564 -0.3838
   48MOL    C1745231   3.195   4.354   5.375 -0.1274  0.4420 -0.2918
   48MOL    C1845232   3.342   4.377   5.412  0.1875  0.3347  0.1212
   48MOL    C1945233   3.400   4.515   5.377 -0.1023 -0.1213 -0.2754
   48MOL    C2045234   3.460   4.525   5.233 -0.0132  0.4402 -0.1469
   48MOL    C2145235   3.346   4.531   5.133  0.1592 -0.5137  0.3327
   48MOL    O2245236   3.247   4.595   5.153 -0.3556 -0.0568 -0.4109
   48MOL    H2345237   2.322   3.954   4.972  0.5131 -3.0676  0.0179
   48MOL    H2445238   2.478   3.790   4.852 -1.3570 -0.0307 -0.1161
   48MOL    H2545239   2.579   3.916   4.922  0.0808 -0.3105 -0.9167
   48MOL    H2645240   2.319   3.659   4.982 -0.1785  1.1808 -0.4853
   48MOL    H2745241   2.251   3.566   5.193  1.0151 -0.2448 -3.3828
   48MOL    H2845242   2.330   3.661   5.407 -0.2082 -0.7535 -0.2669
   48MOL    H2945243   2.474   3.874   5.400 -0.4586  0.3378  0.0766
   48MOL    H3045244   2.545   4.069   5.108  0.8664 -0.2204 -1.2457
   48MOL    H3145245   2.669   3.960   5.110 -0.7411 -0.6714 -0.7168
   48MOL    H3245246   2.555   4.161   5.298  0.3762  0.3437  2.4383
   48MOL    H3345247   2.686   4.105   5.573  1.8983 -0.7522  1.4715
   48MOL    H3445248   2.704   4.244   5.469  3.2222  1.4390 -1.5841
   48MOL    H3545249   2.937   4.051   5.520  0.0492  1.0571 -0.7818
   48MOL    H3645250   2.904   4.203   5.612 -1.5645 -1.9168  2.2617
   48MOL    H3745251   2.961   4.191   5.309  2.2594 -1.6353  0.6713
   48MOL    H3845252   2.915   4.324   5.423 -0.8495 -0.1492  1.4433
   48MOL    H3945253   3.128   4.265   5.550  1.1412 -0.1691 -0.5775
   48MOL    H4045254   3.162   4.140   5.431  1.6994  0.9482  0.1934
   48MOL    H4145255   3.195   4.341   5.267 -0.0169  2.6202 -0.5803
   48MOL    H4245256   3.140   4.447   5.391  0.6884  0.9523 -0.4105
   48MOL    H4345257   3.397   4.301   5.356 -0.3070  0.9632 -1.2126
   48MOL    H4445258   3.354   4.358   5.519  0.0208  1.0920  0.2722
   48MOL    H4545259   3.314   4.579   5.396 -0.4763 -0.4940 -0.7245
   48MOL    H4645260   3.475   4.539   5.454  0.0769 -1.1771 -0.1193
   48MOL    H4745261   3.522   4.436   5.218 -0.4174  0.3024 -0.9847
   48MOL    H4845262   3.524   4.613   5.230  0.0877  0.4484  1.6328
   48MOL    H4945263   2.323   3.923   4.820  1.3459 -2.8491 -0.3030
   48MOL    N5045264   3.348   4.462   5.018  0.1453  0.2297  0.1769
   48MOL    C5145265   3.242   4.439   4.916  0.6909  0.2105  0.4555
   48MOL    C5245266   3.180   4.292   4.910  1.1624 -0.1129 -0.8345
   48MOL    C5345267   3.221   4.194   5.004 -1.2714  0.3067  0.2818
   48MOL    C5445268   3.161   4.065   4.994  0.4952  0.3539  0.3297
   48MOL    C5545269   3.074   4.030   4.894 -0.9039  0.1541  0.7319
   48MOL    C5645270   3.036   4.127   4.800  0.6809  0.5007  0.8762
   48MOL    C5745271   3.089   4.257   4.808 -0.0981  0.5834 -0.1860
   48MOL    C5845272   3.061   4.371   4.705  0.1675  0.6460 -0.3717
   48MOL    N5945273   2.971   4.326   4.604  0.2598  0.3225  0.3632
   48MOL    C6045274   2.862   4.386   4.565  0.4433 -0.1388  0.5949
   48MOL    O6145275   2.823   4.495   4.606  0.0849 -0.8638  0.0257
   48MOL    C6245276   2.782   4.305   4.460 -0.7241  0.8930 -0.0372
   48MOL    C6345277   2.729   4.393   4.347  0.0757 -0.0605 -0.1382
   48MOL    C6445278   2.838   4.442   4.257  0.1864 -0.6392  0.2401
   48MOL    C6545279   2.802   4.560   4.165  0.1291 -0.3820  0.6936
   48MOL    C6645280   2.698   4.543   4.058  0.3144 -0.1024 -0.0179
   48MOL    C6745281   2.599   4.668   4.049  0.5157  0.1368  0.0457
   48MOL    C6845282   2.515   4.656   3.922 -0.7010 -0.3618  0.4935
   48MOL    C6945283   2.598   4.660   3.791 -0.0750  0.0881  0.1910
   48MOL    C7045284   2.694   4.778   3.766  0.5953  0.4104 -0.5397
   48MOL    O7145285   2.654   4.890   3.802  0.0138  0.1351  0.5099
   48MOL    H7245286   3.430   4.407   5.000 -1.5058 -2.4854  0.5459
   48MOL    H7345287   3.287   4.458   4.819 -0.7610 -2.5885 -0.8405
   48MOL    H7445288   3.165   4.511   4.943  0.7480  0.5017 -0.1730
   48MOL    H7545289   3.308   4.210   5.066 -0.9247 -0.7739  0.0863
   48MOL    H7645290   3.196   3.993   5.066  2.1142  1.6203  0.8391
   48MOL    H7745291   3.018   3.937   4.897 -1.4397  0.5077  1.9601
   48MOL    H7845292   2.959   4.111   4.725  0.0114 -0.3638  1.7306
   48MOL    H7945293   3.158   4.390   4.659  0.8384  0.5931  1.0021
   48MOL    H8045294   3.021   4.460   4.753 -2.1447 -0.4237 -0.2471
   48MOL    H8145295   2.974   4.230   4.572  1.9728  0.3216  0.4739
   48MOL    H8245296   2.698   4.249   4.501  0.0026 -0.8750 -0.8882
   48MOL    H8345297   2.852   4.232   4.417 -2.0959 -0.8522  0.6294
   48MOL    H8445298   2.688   4.483   4.392  0.1252 -0.1094  0.0057
   48MOL    H8545299   2.657   4.339   4.286 -0.9412 -1.4328  2.2043
   48MOL    H8645300   2.930   4.466   4.311  0.8691  0.5980 -1.4188
   48MOL    H8745301   2.878   4.366   4.189  1.7235  1.7350 -1.5960
   48MOL    H8845302   2.761   4.635   4.232 -0.7762  0.2669 -0.5779
   48MOL    H8945303   2.890   4.601   4.115 -0.9121  0.5321 -0.4089
   48MOL    H9045304   2.755   4.528   3.966 -0.0662 -0.3613 -0.2127
   48MOL    H9145305   2.643   4.451   4.073 -0.9663  0.4195 -1.4122
   48MOL    H9245306   2.670   4.752   4.049 -2.3679  2.6507  0.0027
   48MOL    H9345307   2.539   4.675   4.140  1.1128  2.5135  0.2831
   48MOL    H9445308   2.436   4.730   3.909  0.0186  0.2986 -0.1473
   48MOL    H9545309   2.473   4.555   3.923 -0.7873 -0.3489 -1.0724
   48MOL    H9645310   2.519   4.662   3.715 -1.3747 -3.1796  1.3795
   48MOL    H9745311   2.654   4.568   3.780  0.2146  0.2398  0.3993
   48MOL    N9845312   2.820   4.747   3.726  0.3029  0.0386  0.0112
   48MOL    C9945313   2.933   4.843   3.721 -0.0886  0.1300  0.0454
   48MOL   C10045314   2.955   4.916   3.594 -0.4306 -0.1409 -0.7482
   48MOL   C10145315   2.973   4.838   3.478  0.6239  0.1807  0.1500
   48MOL   C10245316   2.992   4.893   3.353 -0.5551 -0.0645 -0.1134
   48MOL   C10345317   2.985   5.035   3.341 -0.7587  1.0798 -0.4250
   48MOL   C10445318   2.977   5.114   3.456  0.6083  0.0269 -0.1798
   48MOL   C10545319   2.951   5.056   3.586 -0.2635 -0.7737  0.1197
   48MOL   C10645320   2.933   5.144   3.710  0.2621 -0.1529  0.3149
   48MOL   N10745321   2.802   5.137   3.768 -0.0157 -0.4445 -0.3034
   48MOL   C10845322   2.732   5.245   3.808  0.1677 -0.1152 -0.1098
   48MOL   O10945323   2.790   5.351   3.819  0.7541 -0.6582  0.4012
   48MOL   C11045324   2.592   5.228   3.871 -0.1184 -0.2292  0.2528
   48MOL   C11145325   2.476   5.274   3.772  0.4163 -0.2621  0.4271
   48MOL   C11245326   2.460   5.205   3.633 -0.2333  0.3539 -0.0170
   48MOL   C11345327   2.344   5.108   3.630  0.3334  0.6012 -0.0968
   48MOL   C11445328   2.356   4.976   3.711  0.7991 -0.4327 -0.4735
   48MOL   C11545329   2.240   4.890   3.689 -0.3765  0.5547  0.3984
   48MOL   C11645330   2.117   4.929   3.771 -0.0787  0.3810  0.7785
   48MOL   C11745331   2.007   4.822   3.782 -0.2483  0.0450  0.5342
   48MOL   C11845332   2.043   4.709   3.883  0.1769 -0.3604  0.1577
   48MOL   O11945333   2.118   4.741   3.978 -0.4071  0.2598  0.2827
   48MOL   H12045334   2.843   4.650   3.716  1.3399  0.2014  0.7470
   48MOL   H12145335   2.921   4.897   3.815  1.7161  1.3110 -0.3792
   48MOL   H12245336   3.021   4.779   3.730 -1.3387 -1.5739  0.6342
   48MOL   H12345337   2.966   4.733   3.501 -1.5064  0.4104  0.6366
   48MOL   H12445338   3.011   4.828   3.269 -1.6124  1.7744 -1.8049
   48MOL   H12545339   2.994   5.081   3.244 -0.3790  1.0814 -0.3907
   48MOL   H12645340   2.974   5.221   3.445 -0.7243 -0.0166 -0.2028
   48MOL   H12745341   2.967   5.244   3.683 -1.2813 -0.0872 -1.4738
   48MOL   H12845342   2.997   5.108   3.790 -0.3255 -0.2269  0.7518
   48MOL   H12945343   2.761   5.046   3.784  3.1782 -2.2358 -1.8663
   48MOL   H13045344   2.594   5.276   3.968 -2.4708  0.3151  0.0610
   48MOL   H13145345   2.573   5.123   3.895 -1.3636 -0.0652  0.0061
   48MOL   H13245346   2.504   5.378   3.755  1.2118 -0.8351 -1.9554
   48MOL   H13345347   2.382   5.292   3.823  0.8032 -0.8799  1.3837
   48MOL   H13445348   2.447   5.276   3.551  1.2987  0.3104 -0.3222
   48MOL   H13545349   2.552   5.153   3.604 -0.2553  0.7559 -0.8320
   48MOL   H13645350   2.249   5.158   3.646 -0.0638  0.1578 -1.0525
   48MOL   H13745351   2.331   5.068   3.530  0.1139  3.2670 -1.1803
   48MOL   H13845352   2.446   4.927   3.673  0.3802 -0.4142 -1.4878
   48MOL   H13945353   2.362   4.999   3.818  2.4316 -0.5358 -0.5207
   48MOL   H14045354   2.272   4.789   3.714 -0.2950 -0.0434 -2.0141
   48MOL   H14145355   2.208   4.900   3.585 -2.1270 -0.5511  0.8160
   48MOL   H14245356   2.133   4.964   3.873  1.6842 -0.2367  0.7386
   48MOL   H14345357   2.065   5.009   3.718  0.2771  0.4645  0.5529
   48MOL   H14445358   1.994   4.779   3.683  0.7255 -0.7578  0.7431
   48MOL   H14545359   1.913   4.870   3.811  0.6700  1.9640  0.3750
   48MOL   N14645360   2.001   4.584   3.863  0.0605  0.5968  0.2946
   48MOL   C14745361   2.036   4.458   3.937  0.5071  0.3267  0.1637
   48MOL   C14845362   2.169   4.390   3.905  0.0351 -0.0294  0.5301
   48MOL   C14945363   2.189   4.340   3.773  0.1532  0.2309 -0.3037
   48MOL   C15045364   2.308   4.278   3.739  0.0699  0.0009  0.1355
   48MOL   C15145365   2.404   4.250   3.836  0.2628  0.0878 -0.3484
   48MOL   C15245366   2.386   4.294   3.970  0.2651  0.5935  0.2104
   48MOL   C15345367   2.271   4.364   4.000  0.2055 -0.5298 -0.4834
   48MOL   C15445368   2.251   4.409   4.142 -0.1217 -0.0678 -0.0752
   48MOL   N15545369   2.168   4.323   4.221  0.4826 -0.6866  0.1860
   48MOL   C15645370   2.194   4.278   4.339 -0.3147 -0.1875 -0.1233
   48MOL   O15745371   2.295   4.304   4.410  0.3071 -0.1220 -0.5255
   48MOL   C15845372   2.094   4.183   4.402 -0.4697  0.9717 -0.2953
   48MOL   C15945373   2.068   4.216   4.547 -0.3451 -0.4471 -0.2239
   48MOL   C16045374   1.946   4.152   4.602  0.1376 -0.3537  0.3640
   48MOL   C16145375   1.912   4.199   4.747  0.3407 -0.0909  0.6065
   48MOL   C16245376   1.841   4.334   4.748  0.2718  0.5355  0.1233
   48MOL   C16345377   1.777   4.364   4.888  0.0017 -0.4072 -0.0034
   48MOL   C16445378   1.697   4.491   4.897 -0.0991 -1.0915 -0.4419
   48MOL   C16545379   1.580   4.497   4.792  0.2461 -0.3087 -0.4914
   48MOL   C16645380   1.473   4.601   4.828  0.4178 -0.0137 -0.0374
   48MOL   O16745381   1.502   4.702   4.880 -0.3635  0.2717  0.0186
   48MOL   H16845382   1.951   4.577   3.775 -1.0664  2.1117  0.7935
   48MOL   H16945383   1.963   4.383   3.908  1.0462  0.0801 -0.5718
   48MOL   H17045384   2.022   4.490   4.041 -0.3909 -0.6055  0.3331
   48MOL   H17145385   2.120   4.352   3.691 -0.1465 -0.2453 -0.1245
   48MOL   H17245386   2.319   4.253   3.634 -0.9186 -1.9265  0.4661
   48MOL   H17345387   2.492   4.193   3.811 -0.0673 -1.1928  1.3022
   48MOL   H17445388   2.449   4.260   4.051  0.1568 -0.5640 -0.1826
   48MOL   H17545389   2.223   4.514   4.141 -1.1922 -0.3375 -2.0826
   48MOL   H17645390   2.348   4.423   4.190 -0.1228  1.8303 -0.5889
   48MOL   H17745391   2.084   4.291   4.177  0.7542 -0.5845 -0.4195
   48MOL   H17845392   2.105   4.075   4.385 -1.8406  0.7689  0.0423
   48MOL   H17945393   2.000   4.198   4.350 -0.9300  1.8534  0.7923
   48MOL   H18045394   2.048   4.323   4.540  0.1625 -0.4371 -1.6426
   48MOL   H18145395   2.152   4.200   4.614  0.3618  3.7664  0.0451
   48MOL   H18245396   1.872   4.178   4.526  0.5854  1.3554  0.4813
   48MOL   H18345397   1.958   4.044   4.597 -1.3875 -0.5062 -0.6549
   48MOL   H18445398   1.836   4.131   4.784 -0.1115  0.7578  1.2500
   48MOL   H18545399   1.995   4.196   4.817  1.1263 -1.6603 -0.3622
   48MOL   H18645400   1.912   4.414   4.726 -0.7873  1.3434 -0.3491
   48MOL   H18745401   1.765   4.335   4.670 -0.7891  2.0816  1.1741
   48MOL   H18845402   1.852   4.375   4.966  0.1215 -0.9061 -0.0478
   48MOL   H18945403   1.705   4.285   4.911  1.3534 -1.7418 -0.2948
   48MOL   H19045404   1.659   4.508   4.997 -0.2232  1.6343 -0.9142
   48MOL   H19145405   1.770   4.567   4.870 -1.9397 -0.2038 -3.1501
   48MOL   H19245406   1.524   4.404   4.785 -0.7567  0.0797  1.7688
   48MOL   H19345407   1.617   4.519   4.692  1.2433  0.0869 -0.0474
   48MOL   N19445408   1.350   4.573   4.794  0.0160 -0.2668  0.2046
   48MOL   C19545409   1.236   4.648   4.855 -0.5942 -0.0361 -0.0042
   48MOL   C19645410   1.098   4.591   4.829  0.0400  0.3316  0.2696
   48MOL   C19745411   1.086   4.446   4.830 -1.0867 -0.2354 -0.9631
   48MOL   C19845412   0.963   4.383   4.814  0.3759 -0.1139  0.3725
   48MOL   C19945413   0.852   4.470   4.794 -0.8465 -0.3798  0.1519
   48MOL   C20045414   0.857   4.607   4.800  0.5590 -0.7064  0.1851
   48MOL   C20145415   0.984   4.673   4.803 -0.5066  0.0792  0.6442
   48MOL   C20245416   0.991   4.827   4.787 -0.1551 -0.1486 -0.1517
   48MOL   N20345417   0.869   4.903   4.811 -0.4889 -0.7241  0.5415
   48MOL   C20445418   0.847   5.025   4.767  0.4253  0.3143  0.3991
   48MOL   O20545419   0.937   5.082   4.706  0.6848 -0.6475  0.0342
   48MOL   C20645420   0.707   5.095   4.790  0.5125 -0.4658  0.6120
   48MOL   C20745421   0.711   5.212   4.888  0.2290 -0.1370 -0.5396
   48MOL   C20845422   0.738   5.162   5.039 -1.0175 -0.0120 -0.0949
   48MOL   C20945423   0.767   5.273   5.138 -0.1812  0.1117  0.3671
   48MOL   C21045424   0.906   5.340   5.114  0.9120 -0.3380  0.1661
   48MOL   C21145425   0.938   5.463   5.209  0.2186  0.4588  0.1886
   48MOL   C21245426   1.080   5.515   5.203 -0.6295 -0.2295 -0.2024
   48MOL   C21345427   1.095   5.645   5.280 -0.0336 -0.0334 -0.2833
   48MOL   C21445428   1.104   5.612   5.430 -0.4523  0.5481 -0.5075
   48MOL   O21545429   1.159   5.504   5.464 -0.0833  0.3446 -0.1824
   48MOL   H21645430   1.328   4.497   4.731  1.4925 -0.3826 -0.1801
   48MOL   H21745431   1.245   4.645   4.963  0.7770 -1.9688 -0.1421
   48MOL   H21845432   1.236   4.755   4.833  0.4440 -0.2116 -0.9350
   48MOL   H21945433   1.170   4.385   4.861  0.5596  1.8569 -1.2307
   48MOL   H22045434   0.953   4.276   4.822  0.4733 -0.3174 -1.8532
   48MOL   H22145435   0.758   4.417   4.787 -0.6758 -0.5484 -0.8790
   48MOL   H22245436   0.764   4.658   4.779  0.1909 -0.0972  3.1698
   48MOL   H22345437   1.036   4.855   4.692  1.4604  1.5076  1.0528
   48MOL   H22445438   1.062   4.868   4.858  1.7090 -1.3130 -1.2964
   48MOL   H22545439   0.799   4.868   4.875 -0.5910 -1.9930 -0.2417
   48MOL   H22645440   0.622   5.035   4.824  0.0247 -1.0468 -1.5266
   48MOL   H22745441   0.674   5.141   4.697  1.0817  1.4514  1.3272
   48MOL   H22845442   0.797   5.271   4.855  0.5156  0.1804  0.7701
   48MOL   H22945443   0.625   5.279   4.888  0.4434  0.1549  1.1768
   48MOL   H23045444   0.652   5.109   5.079 -0.6504 -0.8370 -0.3934
   48MOL   H23145445   0.827   5.100   5.030 -1.5601 -1.0313  1.3739
   48MOL   H23245446   0.692   5.352   5.137 -1.1560 -0.8013  0.6554
   48MOL   H23345447   0.751   5.242   5.241 -0.9550 -0.7507 -0.0011
   48MOL   H23445448   0.983   5.263   5.107  2.0728  0.7214  0.9722
   48MOL   H23545449   0.917   5.374   5.012 -0.6161  0.9491  0.4120
   48MOL   H23645450   0.913   5.437   5.312  1.3604  2.6747  1.0466
   48MOL   H23745451   0.856   5.534   5.202 -1.1369 -0.9969  0.9352
   48MOL   H23845452   1.103   5.540   5.099 -1.7910  0.1452 -0.3789
   48MOL   H23945453   1.144   5.430   5.224  2.6126  1.9628 -0.8673
   48MOL   H24045454   1.182   5.702   5.248  0.9768 -1.3867  0.0053
   48MOL   H24145455   1.003   5.702   5.267 -1.5039 -2.4467 -0.7731
   48MOL   N24245456   1.053   5.694   5.516  0.3526 -0.3165 -0.6281
   48MOL   C24345457   1.060   5.677   5.661  0.2425  0.7238  0.4489
   48MOL   C24445458   0.972   5.781   5.737  0.7157  0.0031 -0.3096
   48MOL   C24545459   0.895   5.876   5.665 -0.8729 -0.5668 -0.0308
   48MOL   C24645460   0.814   5.964   5.736 -0.1741  0.3268 -0.1394
   48MOL   C24745461   0.815   5.965   5.877  0.1469 -0.2107  0.1120
   48MOL   C24845462   0.903   5.884   5.944 -0.0514  0.4272 -0.3824
   48MOL   C24945463   0.977   5.786   5.876 -0.0689 -0.7172 -0.1766
   48MOL   C25045464   1.041   5.676   5.956 -0.7716 -0.0191 -0.1355
   48MOL   N25145465   1.124   5.718   6.070  0.2692 -0.3234 -0.4820
   48MOL   C25245466   1.247   5.765   6.068  0.7752 -0.7417  0.2224
   48MOL   O25345467   1.301   5.776   6.176  0.3255 -0.0310  0.3227
   48MOL   C25445468   1.312   5.821   5.942  0.4374 -0.1735  0.2462
   48MOL   C25545469   1.463   5.856   5.953  0.0053  0.0191  1.2223
   48MOL   C25645470   1.512   5.890   5.814  0.3143 -0.0143 -0.5622
   48MOL   C25745471   1.663   5.866   5.787 -0.4178 -0.9056 -0.1636
   48MOL   C25845472   1.753   5.946   5.883  0.5844  0.5430 -0.3013
   48MOL   C25945473   1.904   5.944   5.853 -0.0688 -0.5753  0.7532
   48MOL   C26045474   1.987   5.999   5.970 -0.1905  0.1727  0.3616
   48MOL   C26145475   2.124   6.048   5.922 -0.5430  0.5632 -0.7930
   48MOL   C26245476   2.214   5.932   5.880 -0.9097  0.5033 -0.1366
   48MOL   O26345477   2.233   5.834   5.952  0.1046 -0.3607 -0.0927
   48MOL   H26445478   1.033   5.787   5.482  0.9160  0.4691  1.1370
   48MOL   H26545479   1.033   5.572   5.678  0.0054  0.6758 -0.2154
   48MOL   H26645480   1.163   5.692   5.691  0.8218  0.2216 -1.2302
   48MOL   H26745481   0.887   5.884   5.558  0.1741  0.9025 -0.0090
   48MOL   H26845482   0.739   6.025   5.687 -1.3401 -0.0567  1.1517
   48MOL   H26945483   0.756   6.034   5.936 -1.5160  0.2952 -2.0850
   48MOL   H27045484   0.907   5.879   6.052 -1.1392 -1.7874 -0.4237
   48MOL   H27145485   1.106   5.606   5.903  1.7837  1.7910  0.4876
   48MOL   H27245486   0.956   5.628   6.004 -0.1275 -0.6570  0.3912
   48MOL   H27345487   1.087   5.698   6.162  0.6456 -1.1959 -0.5102
   48MOL   H27445488   1.264   5.917   5.927  0.3070  0.1336  2.4773
   48MOL   H27545489   1.297   5.757   5.855 -2.3406  2.1094 -1.0250
   48MOL   H27645490   1.505   5.772   6.008  1.5369 -0.4124 -0.5724
   48MOL   H27745491   1.472   5.948   6.011 -0.1963  0.5777  0.3798
   48MOL   H27845492   1.481   5.993   5.798  0.7576  0.5749  2.1129
   48MOL   H27945493   1.465   5.825   5.741  0.8386 -0.6321 -0.3599
   48MOL   H28045494   1.683   5.760   5.800 -0.8505 -0.8937  0.6200
   48MOL   H28145495   1.687   5.883   5.682 -0.3968  1.4456  0.1906
   48MOL   H28245496   1.711   6.046   5.893  1.4261  0.9884 -1.1811
   48MOL   H28345497   1.737   5.891   5.976  1.5879  0.4354 -0.1882
   48MOL   H28445498   1.922   5.999   5.760 -1.1694 -2.2084 -0.4496
   48MOL   H28545499   1.937   5.842   5.836 -1.2072 -0.5827 -1.6925
   48MOL   H28645500   1.928   6.076   6.020 -1.1336  0.0109 -0.4792
   48MOL   H28745501   1.999   5.923   6.047  0.1487 -0.7535 -0.5836
   48MOL   H28845502   2.119   6.123   5.843 -0.0265 -0.2318 -1.5863
   48MOL   H28945503   2.166   6.097   6.010  0.2546  0.0765 -0.8970
   48MOL   N29045504   2.261   5.940   5.757 -0.0699  0.1445  0.5199
   48MOL   C29145505   2.341   5.834   5.697 -0.2492 -0.0370 -0.5626
   48MOL   C29245506   2.296   5.787   5.562  0.7541  0.0168  0.4045
   48MOL   C29345507   2.278   5.651   5.542  0.2834  0.6520  0.2951
   48MOL   C29445508   2.238   5.604   5.413  0.6714  0.4807 -0.0113
   48MOL   C29545509   2.207   5.693   5.308  0.3644 -0.4057  0.4461
   48MOL   C29645510   2.229   5.831   5.328 -0.1597 -0.3594 -0.1725
   48MOL   C29745511   2.271   5.876   5.458  0.0227 -0.5336  0.0248
   48MOL   C29845512   2.288   6.035   5.470 -0.9351  0.0924 -0.2353
   48MOL   N29945513   2.161   6.106   5.507  0.6078  0.0844 -0.2101
   48MOL   C30045514   2.149   6.222   5.571 -0.2403 -0.0942 -1.0500
   48MOL   O30145515   2.246   6.270   5.618 -0.2754  0.2925 -0.2418
   48MOL   C30245516   2.012   6.288   5.585  0.0072  0.0976  0.1310
   48MOL   C30345517   2.007   6.383   5.703 -0.1757 -0.7033  0.6472
   48MOL   C30445518   1.874   6.452   5.730  0.0778  0.1339  0.4132
   48MOL   C30545519   1.884   6.546   5.851 -0.3485 -0.0665  0.8205
   48MOL   C30645520   1.750   6.609   5.890  0.9370  0.6365 -0.0858
   48MOL   C30745521   1.764   6.705   6.006  0.0646  0.0950 -0.0888
   48MOL   C30845522   1.626   6.753   6.066 -0.1344 -0.8550  0.4408
   48MOL   C30945523   1.650   6.835   6.195 -0.1801 -0.5170  0.5207
   48MOL   C31045524   1.535   6.867   6.278 -0.0948 -0.7057  0.1875
   48MOL   O31145525   1.426   6.872   6.224  0.2601  0.6608 -0.2729
   48MOL   H31245526   2.263   6.027   5.705 -0.4322  0.4179  0.9563
   48MOL   H31345527   2.440   5.878   5.680 -0.0138  0.6659  2.3901
   48MOL   H31445528   2.367   5.754   5.767  0.7672  2.4874  2.0532
   48MOL   H31545529   2.291   5.577   5.620  1.6346 -1.2144 -1.6359
   48MOL   H31645530   2.221   5.500   5.387 -2.9408  1.7094 -3.0860
   48MOL   H31745531   2.190   5.659   5.207  1.6308 -1.0466  0.4428
   48MOL   H31845532   2.221   5.908   5.254 -1.9768  0.9582  1.3367
   48MOL   H31945533   2.328   6.068   5.375  1.7734  1.3811  1.3120
   48MOL   H32045534   2.360   6.056   5.549  0.4585 -0.2276 -1.3955
   48MOL   H32145535   2.078   6.060   5.472 -0.3190  2.1969 -0.8585
   48MOL   H32245536   1.993   6.339   5.491 -0.1980 -1.5248 -0.7148
   48MOL   H32345537   1.935   6.214   5.607  0.1939 -0.3122 -0.6076
   48MOL   H32445538   2.084   6.460   5.689 -1.5605  0.2833 -1.7929
   48MOL   H32545539   2.038   6.327   5.792 -1.7922 -1.7012  0.5964
   48MOL   H32645540   1.794   6.377   5.739 -1.5714  1.8792  0.5914
   48MOL   H32745541   1.854   6.508   5.639 -0.0139  0.8426  0.8655
   48MOL   H32845542   1.909   6.482   5.935 -0.0415 -0.8973  0.1078
   48MOL   H32945543   1.959   6.623   5.836 -1.4459  1.2652  2.0492
   48MOL   H33045544   1.702   6.652   5.802  0.8909  1.1006  0.1673
   48MOL   H33145545   1.683   6.527   5.917  1.7581 -0.2498 -0.6832
   48MOL   H33245546   1.832   6.787   5.985  0.9783 -0.6115  0.0572
   48MOL   H33345547   1.808   6.651   6.090 -1.7841  0.1018  0.9139
   48MOL   H33445548   1.569   6.800   5.986  0.6379  1.5293  1.2353
   48MOL   H33545549   1.569   6.663   6.087 -1.1854 -0.3512 -0.2251
   48MOL   H33645550   1.735   6.789   6.246  0.2030  0.7318  1.0331
   48MOL   H33745551   1.701   6.927   6.164  2.1338 -1.5784  1.1044
   48MOL   N33845552   1.549   6.880   6.410  0.2563 -0.4410 -0.1299
   48MOL   C33945553   1.445   6.916   6.506  0.0089 -0.4140 -0.0452
   48MOL   C34045554   1.488   7.036   6.590  0.2981 -0.6592 -0.0755
   48MOL   C34145555   1.428   7.155   6.561  0.1865 -0.4400 -0.0440
   48MOL   C34245556   1.477   7.275   6.620  0.7816  0.2769  0.0102
   48MOL   C34345557   1.584   7.277   6.714  0.7786 -0.0088  0.6466
   48MOL   C34445558   1.648   7.154   6.736 -0.0006  0.4588 -0.3634
   48MOL   C34545559   1.602   7.038   6.675  0.1542  0.8655 -0.8624
   48MOL   C34645560   1.682   6.909   6.715 -0.6809  0.0913 -0.5114
   48MOL   N34745561   1.831   6.916   6.713  0.0981 -0.1884 -0.0444
   48MOL   C34845562   1.893   6.912   6.597 -0.3674  0.4626  0.2606
   48MOL   O34945563   1.833   6.928   6.494 -0.0257  0.1326  0.5075
   48MOL   C35045564   2.035   6.862   6.585  0.1499 -0.1473 -0.9442
   48MOL   C35145565   2.057   6.729   6.510  0.5122  0.1761 -0.2696
   48MOL   C35245566   1.982   6.612   6.570 -0.0332  0.1248  0.4669
   48MOL   C35345567   2.042   6.481   6.526  0.5278 -0.3248  0.3844
   48MOL   C35445568   2.045   6.457   6.371  0.2168  0.6892  0.5927
   48MOL   C35545569   2.166   6.510   6.296 -0.4484  0.3819 -0.3775
   48MOL   C35645570   2.139   6.557   6.156  0.2282  1.0606  0.6601
   48MOL   C35745571   2.270   6.601   6.092  0.6839 -0.9811 -0.6122
   48MOL   C35845572   2.360   6.500   6.030 -0.6817  0.0313  0.5005
   48MOL   O35945573   2.360   6.385   6.075 -0.1046  0.0272  0.0851
   48MOL   H36045574   1.644   6.907   6.431  0.1962 -0.5702  0.2975
   48MOL   H36145575   1.361   6.950   6.445  0.1958 -0.0929 -0.1240
   48MOL   H36245576   1.414   6.829   6.563 -1.5460 -0.4298 -0.8782
   48MOL   H36345577   1.349   7.162   6.487  0.2335 -0.0529 -0.0558
   48MOL   H36445578   1.430   7.372   6.610 -0.0852 -0.3410 -2.0779
   48MOL   H36545579   1.619   7.367   6.762 -2.7258  2.2112 -0.8114
   48MOL   H36645580   1.736   7.157   6.799 -0.5373 -1.8093  0.5483
   48MOL   H36745581   1.652   6.825   6.653  1.3361 -2.2342  1.5939
   48MOL   H36845582   1.654   6.894   6.819  2.7839  3.2550  1.0509
   48MOL   H36945583   1.882   6.899   6.798 -0.6512 -1.3635  0.1882
   48MOL   H37045584   2.080   6.853   6.684 -0.9412 -0.0342 -0.4285
   48MOL   H37145585   2.092   6.938   6.532 -0.6245 -2.4735 -5.3491
   48MOL   H37245586   2.164   6.714   6.497  0.8982  1.1420  1.6793
   48MOL   H37345587   2.010   6.740   6.412 -0.5179 -0.5028  0.1370
   48MOL   H37445588   1.975   6.627   6.678 -2.1979 -0.7699  0.4667
   48MOL   H37545589   1.877   6.614   6.543  0.2596  0.8407 -0.6445
   48MOL   H37645590   1.986   6.398   6.570 -0.0140 -0.8463 -1.2509
   48MOL   H37745591   2.141   6.465   6.568  0.6907 -0.2501  0.0240
   48MOL   H37845592   2.048   6.349   6.354 -1.7795  0.2990  2.6127
   48MOL   H37945593   1.957   6.504   6.328 -0.2733  0.4875  1.3873
   48MOL   H38045594   2.235   6.426   6.298 -3.2137 -1.9961 -1.0968
   48MOL   H38145595   2.217   6.591   6.348 -2.0882  0.2435  1.5128
   48MOL   H38245596   2.102   6.478   6.091  1.4639  1.5521 -0.6565
   48MOL   H38345597   2.071   6.641   6.162 -1.7330 -0.3500 -1.2464
   48MOL   H38445598   2.338   6.645   6.165  0.2539  0.7452 -1.2382
   48MOL   H38545599   2.245   6.676   6.017  0.8799  0.0995  0.3882
   48MOL   N38645600   2.425   6.536   5.922 -0.3238 -0.1799  0.4672
   48MOL   C38745601   2.499   6.441   5.845  0.0971 -0.4322  0.7175
   48MOL   C38845602   2.577   6.504   5.726 -0.5463  0.3022 -0.2057
   48MOL   C38945603   2.535   6.474   5.594 -0.8707  0.2637  0.3526
   48MOL   C39045604   2.617   6.519   5.485 -0.7576  1.0016 -0.1180
   48MOL   C39145605   2.729   6.604   5.507  0.4991  0.3512 -0.3489
   48MOL   C39245606   2.766   6.637   5.640  0.9671 -0.9369 -0.1645
   48MOL   C39345607   2.690   6.590   5.748 -0.8318  0.9834 -0.0782
   48MOL   C39445608   2.728   6.633   5.894 -1.1958  0.4005  0.6827
   48MOL   N39545609   2.872   6.632   5.926 -0.2700  0.2840 -0.5080
   48MOL   C39645610   2.934   6.708   6.015  0.0642 -0.0075 -0.3733
   48MOL   O39745611   2.876   6.779   6.094 -0.4669 -0.7359 -0.4157
   48MOL   C39845612   3.086   6.692   6.029  0.4537 -0.2475  0.4596
   48MOL   C39945613   3.131   6.631   6.158 -0.3065 -0.4214  0.2479
   48MOL   C40045614   3.110   6.476   6.169  0.8460  0.5115  0.4599
   48MOL   C40145615   2.964   6.420   6.186 -0.3345  0.3432  0.7361
   48MOL   C40245616   2.880   6.478   6.302  0.5770  0.3236  0.3920
   48MOL   C40345617   2.742   6.422   6.312 -0.4268  0.1128 -0.7599
   48MOL   C40445618   2.660   6.460   6.431  0.1641  0.1396  0.5795
   48MOL   C40545619   2.507   6.428   6.421 -1.0812  0.3440 -0.4752
   48MOL   C40645620   2.475   6.281   6.407 -0.1133  0.0501 -0.1659
   48MOL   O40745621   2.463   6.217   6.509 -0.7930 -0.2342  0.4493
   48MOL   H40845622   2.435   6.633   5.897  3.3063 -0.4636  0.5819
   48MOL   H40945623   2.572   6.382   5.900  1.1816  0.8294  0.6284
   48MOL   H41045624   2.429   6.369   5.801 -0.9452  0.8908  0.1866
   48MOL   H41145625   2.442   6.421   5.578 -0.0871 -0.9895 -0.1425
   48MOL   H41245626   2.583   6.488   5.387 -2.8774 -2.4096  1.6178
   48MOL   H41345627   2.798   6.634   5.429 -1.4813 -1.9640 -3.1299
   48MOL   H41445628   2.857   6.693   5.659  0.3018 -0.0660  0.5114
   48MOL   H41545629   2.693   6.574   5.979 -0.5081  1.6560  1.8677
   48MOL   H41645630   2.696   6.737   5.897 -1.1220  0.4896 -1.2426
   48MOL   H41745631   2.922   6.579   5.857 -0.2570  0.2805 -0.4955
   48MOL   H41845632   3.133   6.659   5.937 -1.9145 -0.4741 -0.7054
   48MOL   H41945633   3.128   6.792   6.037  0.1285  0.1674 -2.5232
   48MOL   H42045634   3.077   6.686   6.234  1.5506  0.0018  1.2841
   48MOL   H42145635   3.234   6.655   6.185 -0.2177  0.2233 -0.6313
   48MOL   H42245636   3.180   6.449   6.248  0.7743  0.0734  0.3724
   48MOL   H42345637   3.159   6.432   6.082  0.8135 -0.6017  1.0055
   48MOL   H42445638   2.904   6.441   6.098 -1.0379 -0.8266  0.9123
   48MOL   H42545639   2.962   6.312   6.204 -0.9235  0.2173 -0.0915
   48MOL   H42645640   2.928   6.459   6.398 -1.4875 -1.6863  1.0914
   48MOL   H42745641   2.870   6.584   6.278 -0.0415 -0.0568 -1.1129
   48MOL   H42845642   2.756   6.314   6.304  1.5932  0.1335  1.7229
   48MOL   H42945643   2.702   6.467   6.222 -1.0131  0.9020 -0.1009
   48MOL   H43045644   2.665   6.569   6.434 -1.1411  0.2346 -0.3981
   48MOL   H43145645   2.712   6.423   6.520 -1.1188 -0.0587  1.2661
   48MOL   H43245646   2.459   6.481   6.339  1.1951  0.1884 -1.9612
   48MOL   H43345647   2.453   6.462   6.509 -0.3103  1.3931 -0.4063
   48MOL   N43445648   2.467   6.231   6.285 -0.2749  0.2159 -0.6442
   48MOL   C43545649   2.442   6.088   6.239 -0.6578 -0.1118 -0.3033
   48MOL   C43645650   2.306   6.031   6.283  0.5227 -0.0220  0.3275
   48MOL   C43745651   2.193   6.117   6.289 -0.5136  0.2717  0.0307
   48MOL   C43845652   2.068   6.054   6.308  0.1429  0.3441 -0.3046
   48MOL   C43945653   2.052   5.918   6.332 -0.2910  0.1218 -0.3385
   48MOL   C44045654   2.162   5.837   6.329  0.1142  0.8291  0.2055
   48MOL   C44145655   2.290   5.889   6.298  0.2461  0.0828  0.6127
   48MOL   C44245656   2.411   5.795   6.284 -0.2220 -0.1237 -0.4778
   48MOL   N44345657   2.460   5.791   6.152  0.1142 -0.1793 -0.4302
   48MOL   C44445658   2.585   5.814   6.102  0.5232 -0.1265 -0.0972
   48MOL   O44545659   2.680   5.817   6.184  0.1192  0.3537 -0.2647
   48MOL   C44645660   2.604   5.817   5.952 -0.6813  0.8219  0.2427
   48MOL   C44745661   2.736   5.892   5.918 -0.7377  0.6648 -0.0509
   48MOL   C44845662   2.871   5.831   5.958  0.2106  0.5493 -0.0105
   48MOL   C44945663   2.900   5.702   5.877 -0.5105  1.0476  0.3586
   48MOL   C45045664   3.047   5.645   5.891 -0.2473  0.5296  0.5095
   48MOL   C45145665   3.079   5.584   6.030  0.1789 -0.1999 -0.6205
   48MOL   C45245666   3.224   5.536   6.031  0.3108  0.4360 -0.4343
   48MOL   C45345667   3.283   5.472   6.160  0.1023 -0.6153 -0.2859
   48MOL   C45445668   3.354   5.576   6.247  0.5322  0.2766  0.8242
   48MOL   O45545669   3.473   5.600   6.223 -0.5337 -0.6873 -0.0792
   48MOL   H45645670   2.458   6.295   6.207 -1.4363 -2.4529 -2.7917
   48MOL   H45745671   2.523   6.025   6.274  0.3051  1.0545 -0.3762
   48MOL   H45845672   2.445   6.092   6.130 -1.9367 -0.9477 -0.3849
   48MOL   H45945673   2.199   6.224   6.274 -1.3799  0.6291  2.0875
   48MOL   H46045674   1.976   6.109   6.293 -0.9894 -1.5542 -0.4969
   48MOL   H46145675   1.955   5.871   6.328 -0.6179  0.9592 -3.2418
   48MOL   H46245676   2.140   5.731   6.336 -1.3823  1.1005 -0.1295
   48MOL   H46345677   2.384   5.695   6.316 -0.0280  0.2231  0.8276
   48MOL   H46445678   2.492   5.811   6.355  0.8822 -0.1494 -1.7095
   48MOL   H46545679   2.389   5.770   6.083 -1.1510 -0.3433  0.9204
   48MOL   H46645680   2.527   5.878   5.905 -0.7221 -0.9906 -2.1050
   48MOL   H46745681   2.597   5.714   5.916  1.8256 -0.3090  2.7233
   48MOL   H46845682   2.738   5.981   5.981 -1.1631  0.2938  0.4976
   48MOL   H46945683   2.743   5.910   5.811 -0.6105  2.2441  0.2209
   48MOL   H47045684   2.949   5.903   5.932 -1.6718  2.5806 -0.2241
   48MOL   H47145685   2.870   5.815   6.065  0.8323  0.1747 -0.0604
   48MOL   H47245686   2.827   5.627   5.908  0.4268  0.4757  1.2012
   48MOL   H47345687   2.873   5.715   5.772 -0.2878  0.9360  0.2857
   48MOL   H47445688   3.048   5.567   5.814  0.6419  0.7972  0.2444
   48MOL   H47545689   3.119   5.721   5.862  1.1054 -0.7435  0.4766
   48MOL   H47645690   3.002   5.508   6.042 -1.1718  1.2357 -0.1274
   48MOL   H47745691   3.068   5.659   6.108 -0.3103 -0.7363 -0.1707
   48MOL   H47845692   3.218   5.456   5.957 -0.4478  1.4140 -1.4390
   48MOL   H47945693   3.283   5.617   5.986 -2.8460  3.6450  1.0092
   48MOL   H48045694   3.210   5.410   6.212  0.1220 -2.5810 -2.4791
   48MOL   H48145695   3.361   5.407   6.120  0.5528 -0.9285  1.0905
   48MOL   N48245696   3.274   5.652   6.325  0.4512 -0.1942  0.0499
   48MOL   C48345697   3.318   5.770   6.404  0.9231  0.0558  0.6200
   48MOL   C48445698   3.202   5.875   6.406 -0.0575 -0.2739 -0.4228
   48MOL   C48545699   3.119   5.899   6.296 -0.4607  0.2889 -0.0539
   48MOL   C48645700   3.016   5.995   6.297  0.2592  0.4059  0.0341
   48MOL   C48745701   3.014   6.091   6.403  0.6891  0.2684 -0.0892
   48MOL   C48845702   3.118   6.081   6.498 -0.7390  0.0532  0.2933
   48MOL   C48945703   3.208   5.973   6.503  0.2494  0.1655  0.4049
   48MOL   C49045704   3.306   5.970   6.616  0.0969  0.2082 -0.6149
   48MOL   N49145705   3.327   6.091   6.690 -0.1680  0.0068  0.3862
   48MOL   C49245706   3.390   6.094   6.802  0.0624 -0.6508 -0.4631
   48MOL   O49345707   3.445   6.000   6.852 -0.0535  0.1454 -0.0006
   48MOL   C49445708   3.402   6.231   6.874  0.3072  0.8648 -0.0564
   48MOL   C49545709   3.358   6.223   7.022 -0.1482 -0.5459 -0.7358
   48MOL   C49645710   3.206   6.208   7.050 -0.6770 -0.5895  0.1286
   48MOL   C49745711   3.171   6.196   7.199  1.0598 -0.1039  0.1300
   48MOL   C49845712   3.187   6.325   7.265  0.2378  0.3891  0.6457
   48MOL   C49945713   3.150   6.321   7.415  0.0246  0.3533  0.1564
   48MOL   C50045714   3.167   6.458   7.482 -0.5133 -0.7217  0.1739
   48MOL   C50145715   3.297   6.495   7.554  0.0438  0.0939  0.0600
   48MOL   C50245716   3.313   6.649   7.570 -0.5725  0.0053 -0.3849
   48MOL   O50345717   3.255   6.705   7.659  0.2820 -0.6018 -0.1223
   48MOL   H50445718   3.175   5.638   6.335  0.0085  2.7329  0.0547
   48MOL   H50545719   3.361   5.730   6.496  2.3464  1.5131  0.6122
   48MOL   H50645720   3.404   5.817   6.357  1.4139  0.6083  2.0225
   48MOL   H50745721   3.137   5.830   6.215  0.6846 -0.6931  1.0226
   48MOL   H50845722   2.951   5.998   6.211 -1.4312  1.6763  1.3302
   48MOL   H50945723   2.942   6.171   6.407 -0.1239 -0.4754  0.3213
   48MOL   H51045724   3.126   6.155   6.576 -1.8084  2.3544 -1.7045
   48MOL   H51145725   3.400   5.940   6.570  0.3381  0.5277 -0.3291
   48MOL   H51245726   3.277   5.889   6.683  1.7846  0.1739  0.1096
   48MOL   H51345727   3.288   6.176   6.652  0.8805  1.0992  1.6849
   48MOL   H51445728   3.353   6.308   6.815 -1.2966 -2.3252 -3.0891
   48MOL   H51545729   3.507   6.258   6.862  0.7359 -0.2752  0.9558
   48MOL   H51645730   3.390   6.320   7.062 -0.3040 -0.0982 -1.6979
   48MOL   H51745731   3.421   6.148   7.070  0.8055 -1.2681 -3.0465
   48MOL   H51845732   3.153   6.296   7.013  0.1722 -0.6564 -1.2899
   48MOL   H51945733   3.161   6.124   6.996 -1.4005 -0.1701  0.0630
   48MOL   H52045734   3.065   6.171   7.190  0.6579  1.3824  0.5900
   48MOL   H52145735   3.225   6.120   7.256 -0.3439 -1.6551 -0.5617
   48MOL   H52245736   3.292   6.351   7.259  0.8542 -2.1264  0.1669
   48MOL   H52345737   3.121   6.404   7.229 -2.0477 -1.8034 -0.1341
   48MOL   H52445738   3.205   6.246   7.472 -3.3841 -0.6795  2.1978
   48MOL   H52545739   3.045   6.294   7.418  0.2139 -0.2582  3.1180
   48MOL   H52645740   3.146   6.539   7.413  0.7729 -0.0249  0.5757
   48MOL   H52745741   3.089   6.460   7.558  2.3148  0.0653  3.1956
   48MOL   H52845742   3.374   6.467   7.482 -0.3376  2.2205 -1.2180
   48MOL   H52945743   3.312   6.436   7.644 -0.4530 -2.2909 -1.4020
   48MOL   N53045744   3.383   6.711   7.477 -0.8568  0.1677  0.4654
   48MOL   C53145745   3.403   6.851   7.467 -0.4443  0.4435 -0.0018
   48MOL   C53245746   3.316   6.931   7.370 -0.4810  0.6486  0.4010
   48MOL   C53345747   3.291   6.872   7.243  0.3891 -0.8789  0.9114
   48MOL   C53445748   3.216   6.946   7.148  0.1356 -0.3930  0.4984
   48MOL   C53545749   3.160   7.068   7.184 -0.0956  0.3020 -0.1049
   48MOL   C53645750   3.172   7.122   7.312  0.3852  0.3653 -0.0090
   48MOL   C53745751   3.260   7.052   7.405  0.7170 -0.4334 -0.3377
   48MOL   C53845752   3.257   7.100   7.549 -0.2420  0.0660  0.0123
   48MOL   N53945753   3.159   7.201   7.577  0.3479  0.4481 -0.5265
   48MOL   C54045754   3.164   7.262   7.694 -0.0087  0.0057 -0.3433
   48MOL   O54145755   3.239   7.229   7.789  0.1605 -0.2578 -0.0052
   48MOL   C54245756   3.065   7.382   7.711  0.0080 -0.7073 -0.3690
   48MOL   C54345757   2.971   7.373   0.048  0.5809 -0.3805  0.0801
   48MOL   C54445758   2.827   7.312   0.036 -0.3417 -0.4673 -0.4545
   48MOL   C54545759   2.759   7.279   0.168  0.6091  0.1762 -0.4795
   48MOL   C54645760   2.818   7.158   0.251  0.1790 -0.3109 -0.1268
   48MOL   C54745761   2.771   7.141   0.397  0.5667  0.3472 -0.1011
   48MOL   C54845762   2.838   7.025   0.468 -0.1963  0.3346  0.3585
   48MOL   C54945763   2.790   6.982   0.612  0.3129  0.3665  0.6101
   48MOL   C55045764   2.786   7.100   0.706 -0.2212  0.7879 -0.7706
   48MOL   O55145765   2.895   7.140   0.749  0.0362  0.1630 -0.7612
   48MOL   H55245766   3.432   6.660   7.405 -1.2128  0.2443  0.1679
   48MOL   H55345767   3.497   6.864   7.413 -0.8269 -2.3752 -1.4341
   48MOL   H55445768   3.417   6.893   7.567 -0.5929 -0.9236  0.6106
   48MOL   H55545769   3.305   6.768   7.218 -0.5513 -0.5721 -1.0496
   48MOL   H55645770   3.216   6.914   7.044  0.1502 -1.3907  0.8001
   48MOL   H55745771   3.114   7.123   7.103  0.9080  1.5689  0.1678
   48MOL   H55845772   3.134   7.221   7.335 -0.7076 -0.1585  0.4413
   48MOL   H55945773   3.357   7.125   7.583  0.0204  1.9784 -2.0418
   48MOL   H56045774   3.223   7.018   7.613 -0.0681 -0.6624 -0.8192
   48MOL   H56145775   3.086   7.222   7.511  1.0776  0.8291 -1.2258
   48MOL   H56245776   3.000   7.396   7.625 -1.5969  0.1155  0.9515
   48MOL   H56345777   3.128   7.470   7.721 -3.5381  1.7190  1.5969
   48MOL   H56445778   2.953   7.472   0.089 -0.8467  0.5531 -2.6302
   48MOL   H56545779   3.020   7.309   0.121  0.3139 -0.2839  0.3457
   48MOL   H56645780   2.759   7.379   7.773  1.3734  0.6580 -1.2848
   48MOL   H56745781   2.829   7.220   7.767  2.7562 -0.9868  0.3465
   48MOL   H56845782   2.769   7.373   0.222  1.1212 -0.2239  0.1357
   48MOL   H56945783   2.653   7.257   0.164  0.8559 -1.2654  0.5234
   48MOL   H57045784   2.808   7.067   0.193  0.3105  0.1900 -0.9418
   48MOL   H57145785   2.926   7.167   0.258  0.0918  0.5107  0.2948
   48MOL   H57245786   2.664   7.125   0.413  0.5695  0.0348 -0.3910
   48MOL   H57345787   2.789   7.236   0.446 -0.0986 -1.0621  3.0121
   48MOL   H57445788   2.832   6.934   0.408  0.7200  2.5582 -3.2265
   48MOL   H57545789   2.943   7.053   0.472 -0.1109  0.2818 -1.1174
   48MOL   H57645790   2.845   6.899   0.657 -0.3687  0.2960  1.3312
   48MOL   H57745791   2.686   6.949   0.599  1.1165 -1.2788 -2.0420
   48MOL   N57845792   2.666   7.144   0.736 -0.0844  0.0660  0.1372
   48MOL   C57945793   2.640   7.255   0.831  0.3534 -0.6011  0.6169
   48MOL   C58045794   2.556   7.374   0.777 -0.2180  0.9703 -1.0846
   48MOL   C58145795   2.529   7.387   0.636 -0.0142 -0.6457  0.4547
   48MOL   C58245796   2.445   7.489   0.587 -0.4150 -0.1831 -0.4313
   48MOL   C58345797   2.412   7.592   0.675 -0.3970 -0.5054 -0.1045
   48MOL   C58445798   2.444   7.588   0.812  0.0661  0.2493  0.0310
   48MOL   C58545799   2.514   7.477   0.867  0.3647 -0.6729 -0.3079
   48MOL   C58645800   2.548   7.484   1.008  0.2616 -0.3755  0.6183
   48MOL   N58745801   2.668   7.564   1.034 -0.3015 -0.1748 -0.0907
   48MOL   C58845802   2.744   7.537   1.141  0.4469 -0.7723  0.5745
   48MOL   O58945803   2.722   7.445   1.215 -0.1813 -0.0141 -0.2700
   48MOL   C59045804   2.857   7.643   1.158  0.2278  0.4616  0.9157
   48MOL   C59145805   2.995   7.576   1.149 -0.0651  0.0551  0.4360
   48MOL   C59245806   3.055   7.567   1.005 -0.3040  0.3510  0.0309
   48MOL   C59345807   2.971   7.493   0.902  0.0274 -0.4127 -0.1472
   48MOL   C59445808   3.043   7.476   0.770 -0.1518  0.1698  0.4801
   48MOL   C59545809   3.175   7.390   0.780 -0.3249  0.6224  0.5377
   48MOL   C59645810   3.298   7.473   0.756 -0.4300  0.1870 -0.7372
   48MOL   C59745811   3.423   7.387   0.777  0.2862  0.4717  0.0914
   48MOL   C59845812   3.540   7.403   0.686 -0.4525  0.5014  0.8269
   48MOL   O59945813   3.606   7.502   0.681 -0.4300  0.2244  0.4057
   48MOL   H60045814   2.603   7.066   0.724  0.0724  0.0186 -0.3941
   48MOL   H60145815   2.736   7.293   0.865  0.3192 -1.3813  1.6172
   48MOL   H60245816   2.595   7.207   0.918  0.8301 -3.4304 -0.6638
   48MOL   H60345817   2.551   7.313   0.560  0.2690 -1.6541  1.4920
   48MOL   H60445818   2.405   7.486   0.487  0.4586 -0.0222 -0.7832
   48MOL   H60545819   2.348   7.672   0.642  0.6301  1.0223  1.5599
   48MOL   H60645820   2.422   7.677   0.868  2.1317  1.3249 -0.7950
   48MOL   H60745821   2.546   7.390   1.064 -0.7629  0.8484  2.6799
   48MOL   H60845822   2.471   7.548   1.051 -2.6422 -2.2971 -1.5057
   48MOL   H60945823   2.701   7.611   0.951 -2.4266 -0.4020 -1.0961
   48MOL   H61045824   2.849   7.681   1.260 -1.1834 -0.0026  0.9875
   48MOL   H61145825   2.857   7.733   1.096  2.9313 -0.9632 -1.2810
   48MOL   H61245826   2.977   7.477   1.191 -1.3700  0.0830 -0.0085
   48MOL   H61345827   3.070   7.620   1.214 -1.0424 -0.5288  2.0082
   48MOL   H61445828   3.094   7.666   0.979  2.4566  0.1640  3.0596
   48MOL   H61545829   3.148   7.514   1.023 -1.5596 -1.9445 -0.0577
   48MOL   H61645830   2.941   7.390   0.922 -1.3680 -0.3822 -1.9962
   48MOL   H61745831   2.885   7.552   0.874 -0.3041 -1.8466 -2.2994
   48MOL   H61845832   2.979   7.430   0.696 -0.4071  0.8094  0.3013
   48MOL   H61945833   3.065   7.577   0.734 -2.3257  0.3720 -0.2984
   48MOL   H62045834   3.170   7.315   0.702  0.3103 -0.9011  1.9313
   48MOL   H62145835   3.177   7.340   0.877 -0.7106 -0.1768  0.1287
   48MOL   H62245836   3.298   7.524   0.660 -2.0007  1.6115  0.0047
   48MOL   H62345837   3.301   7.558   0.824  0.4150 -0.6180  0.2377
   48MOL   H62445838   3.449   7.372   0.882 -0.6357 -0.5524  0.1893
   48MOL   H62545839   3.388   7.284   0.773  1.4682 -0.0105  1.5120
   48MOL   N62645840   3.573   7.304   0.605  0.5826  0.0016 -0.4841
   48MOL   C62745841   3.696   7.295   0.518 -0.0677  0.2006 -0.6609
   48MOL   C62845842   3.795   7.189   0.564 -0.2446  0.7884  0.2987
   48MOL   C62945843   3.805   7.068   0.490 -0.6195 -0.2577 -0.2463
   48MOL   C63045844   3.902   6.973   0.525  0.2801 -0.2411  0.2786
   48MOL   C63145845   3.967   6.981   0.645 -0.2236 -0.5876 -1.2088
   48MOL   C63245846   3.959   7.100   0.718 -0.0424  0.1190 -0.5082
   48MOL   C63345847   3.884   7.209   0.675  0.7476 -0.1690  0.5561
   48MOL   C63445848   3.887   7.336   0.754 -0.3037  0.4153 -0.5195
   48MOL   N63545849   4.007   7.358   0.836  0.1519  0.1966  0.9274
   48MOL   C63645850   4.025   7.323   0.964  0.6497  0.6634 -0.7590
   48MOL   O63745851   3.950   7.243   1.023  0.2350  0.5234 -0.5281
   48MOL   C63845852   4.139   7.393   1.041 -0.9319  0.5797  0.1188
   48MOL   C63945853   4.219   7.286   1.120 -0.4242  0.1473 -0.0334
   48MOL   C64045854   4.325   7.204   1.036  0.4158  0.2786 -0.4043
   48MOL   C64145855   4.450   7.139   1.096  0.0945  0.0655  0.1238
   48MOL   C64245856   4.434   7.018   1.186 -0.3226  1.1289  0.1579
   48MOL   C64345857   4.556   6.962   1.259 -0.3343 -0.3632 -0.0226
   48MOL   C64445858   4.535   6.832   1.324  0.4206  0.7302 -0.6937
   48MOL   C64545859   4.543   6.715   1.222 -0.3739 -0.1593 -0.2830
   48MOL   C64645860   4.681   6.637   1.215 -0.4467 -0.0944 -0.4083
   48MOL   O64745861   4.785   6.698   1.190 -0.3451 -0.1648  0.4228
   48MOL   H64845862   3.509   7.226   0.618  2.4090 -1.6988 -1.3920
   48MOL   H64945863   3.747   7.388   0.493  0.0672 -0.2746 -2.1714
   48MOL   H65045864   3.646   7.256   0.430  0.2622  0.6197 -1.0402
   48MOL   H65145865   3.740   7.050   0.406 -0.1956 -1.7520 -0.2565
   48MOL   H65245866   3.906   6.891   0.455  2.2005  0.9663 -1.1040
   48MOL   H65345867   4.024   6.903   0.693  2.4023  2.2062  0.3347
   48MOL   H65445868   4.018   7.103   0.808 -0.6077  0.8327 -0.1601
   48MOL   H65545869   3.799   7.337   0.819 -0.6259  1.9317 -0.9819
   48MOL   H65645870   3.871   7.422   0.690  1.5985  0.4755 -0.9501
   48MOL   H65745871   4.077   7.419   0.797  2.4012 -1.6931  1.8741
   48MOL   H65845872   4.097   7.473   1.102  1.8265  1.1403  1.3720
   48MOL   H65945873   4.204   7.447   0.973  1.7263  0.7092  2.6718
   48MOL   H66045874   4.154   7.212   1.167  1.7015  0.0186  2.8899
   48MOL   H66145875   4.270   7.341   1.200 -0.7099  0.7505 -0.2577
   48MOL   H66245876   4.270   7.130   0.978 -2.2380  1.1050  0.9570
   48MOL   H66345877   4.371   7.281   0.973  0.8387  1.0022  0.7758
   48MOL   H66445878   4.507   7.111   1.007 -0.5306 -0.5095 -0.1066
   48MOL   H66545879   4.510   7.220   1.138  1.3883 -1.3329  0.9866
   48MOL   H66645880   4.347   7.039   1.249  0.0476  0.3739  0.9241
   48MOL   H66745881   4.394   6.937   1.124 -0.3358 -0.8364  2.6550
   48MOL   H66845882   4.578   7.028   1.343  0.8034 -0.4123 -0.2739
   48MOL   H66945883   4.636   6.962   1.186 -0.6329 -0.9087 -0.3570
   48MOL   H67045884   4.617   6.824   1.395 -0.9339 -2.8371  0.6147
   48MOL   H67145885   4.440   6.823   1.378 -0.2346  2.2768 -1.5705
   48MOL   H67245886   4.509   6.748   1.124 -1.6455 -1.5732 -0.3358
   48MOL   H67345887   4.457   6.650   1.242 -2.5215  2.0699 -1.9609
   48MOL   N67445888   4.670   6.506   1.237  0.6011 -0.2158 -0.1022
   48MOL   C67545889   4.785   6.416   1.235  0.2404 -0.3642 -0.8280
   48MOL   C67645890   4.867   6.423   1.364 -0.5346  0.1587 -0.4800
   48MOL   C67745891   4.815   6.486   1.480  0.3782  0.2761  0.3235
   48MOL   C67845892   4.888   6.494   1.594  0.0625 -0.3371 -0.1413
   48MOL   C67945893   5.013   6.431   1.607 -0.2633 -0.4039 -0.3513
   48MOL   C68045894   5.062   6.355   1.495  0.1546 -0.5179 -0.9554
   48MOL   C68145895   4.995   6.358   1.369  0.9044 -0.7474  0.3100
   48MOL   C68245896   5.062   6.291   1.255 -0.4656  0.0500 -0.2485
   48MOL   N68345897   5.046   6.149   1.260  0.1205  0.3506 -0.0489
   48MOL   C68445898   5.019   6.067   1.154  0.0120  0.0416  0.2294
   48MOL   O68545899   4.994   6.112   1.043  0.0421  0.3254 -0.5435
   48MOL   C68645900   5.023   5.910   1.180 -0.0425  0.3788  0.6587
   48MOL   C68745901   5.071   5.820   1.064  0.2355 -0.5209  0.4027
   48MOL   C68845902   5.208   5.860   1.009 -0.6290  0.0528 -0.1278
   48MOL   C68945903   5.268   5.771   0.893 -0.1038 -0.0652 -0.2493
   48MOL   C69045904   5.409   5.802   0.859  0.6269  0.4370 -0.0199
   48MOL   C69145905   5.470   5.701   0.757 -0.9101 -0.3383  0.2302
   48MOL   C69245906   5.398   5.712   0.619 -0.9801 -0.0604  0.4765
   48MOL   C69345907   5.488   5.654   0.503 -0.6531  0.2277 -0.5865
   48MOL   C69445908   5.600   5.747   0.457  0.6794  0.4442  0.1910
   48MOL   O69545909   5.587   5.873   0.463 -0.0422 -0.4692  0.6912
   48MOL   H69645910   4.590   6.482   1.294 -0.3514 -1.3875 -1.9012
   48MOL   H69745911   4.849   6.437   1.150 -0.9587  0.6159 -1.5022
   48MOL   H69845912   4.755   6.312   1.221  2.2138 -0.7937 -2.0061
   48MOL   H69945913   4.712   6.517   1.485 -0.3845 -1.7205 -2.0754
   48MOL   H70045914   4.853   6.565   1.668  1.8215  0.3045  0.1002
   48MOL   H70145915   5.067   6.433   1.701  1.9943  0.5642 -1.6358
   48MOL   H70245916   5.161   6.312   1.503  0.4116 -0.3765 -2.9401
   48MOL   H70345917   5.167   6.318   1.264 -1.0281  1.3990  3.0443
   48MOL   H70445918   5.028   6.340   1.163 -0.5490  0.1501 -0.1637
   48MOL   H70545919   5.055   6.107   1.352 -2.0148  0.8162  0.3978
   48MOL   H70645920   4.926   5.872   1.210 -1.1636  0.9363 -2.1215
   48MOL   H70745921   5.087   5.897   1.267 -1.2740  0.4338  1.5694
   48MOL   H70845922   4.991   5.812   0.990  0.5003 -2.3135  0.2954
   48MOL   H70945923   5.082   5.716   1.094 -0.1137 -0.0545  2.2145
   48MOL   H71045924   5.204   5.966   0.986 -0.3758 -0.1298 -1.0671
   48MOL   H71145925   5.278   5.872   1.092 -1.0677  0.4048  0.1947
   48MOL   H71245926   5.266   5.668   0.931  0.1386  0.8816  2.4416
   48MOL   H71345927   5.207   5.784   0.803 -0.7698 -1.2272  0.0201
   48MOL   H71445928   5.423   5.904   0.825  1.2384  0.8373  1.3967
   48MOL   H71545929   5.475   5.790   0.945  0.1992  2.2784  0.5885
   48MOL   H71645930   5.482   5.599   0.794  0.1922 -0.2604  0.0931
   48MOL   H71745931   5.578   5.713   0.753 -0.7113 -1.6767  1.3779
   48MOL   H71845932   5.372   5.813   0.589 -0.2338 -0.2944 -1.0055
   48MOL   H71945933   5.305   5.655   0.612 -1.2528  0.1585  2.0830
   48MOL   H72045934   5.423   5.639   0.417 -0.8028  0.6501 -0.5482
   48MOL   H72145935   5.525   5.556   0.533 -2.0078 -0.2221 -0.3625
   48MOL   N72245936   5.710   5.687   0.415  0.6861 -0.2176  0.0950
   48MOL   C72345937   5.823   5.748   0.361 -0.4500  1.0876 -0.5826
   48MOL   C72445938   5.896   5.656   0.267 -0.1748  0.4584  0.0185
   48MOL   C72545939   5.829   5.559   0.188 -0.2403 -0.1037 -0.5318
   48MOL   C72645940   5.896   5.489   0.087  0.1954 -0.4473 -0.1874
   48MOL   C72745941   6.033   5.509   0.069  0.6712  1.2791 -0.1567
   48MOL   C72845942   6.104   5.594   0.148  0.5950  0.0102  0.5308
   48MOL   C72945943   6.037   5.669   0.244  0.9322  0.3887 -0.0908
   48MOL   C73045944   6.128   5.747   0.346 -0.5701  0.8473  0.2657
   48MOL   N73145945   6.111   5.889   0.356  0.1309  0.3183  0.5248
   48MOL   C73245946   6.185   5.979   0.419  0.5158  0.0066 -0.0671
   48MOL   O73345947   6.264   5.946   0.505  0.4095 -0.2166 -0.4696
   48MOL   C73445948   6.163   6.125   0.385  0.7920  0.2345 -0.4554
   48MOL   C73545949   6.135   6.219   0.506  0.0427 -0.2012 -0.3764
   48MOL   C73645950   6.105   6.371   0.470 -0.2547 -0.3368 -0.8565
   48MOL   C73745951   6.072   6.449   0.600  0.5174  0.3955  0.1189
   48MOL   C73845952   6.012   6.579   0.555  0.1937  0.4167  0.4044
   48MOL   C73945953   6.016   6.680   0.669 -0.2308 -0.1255  0.0604
   48MOL   C74045954   5.959   6.631   0.811  0.1332 -0.2859 -0.9810
   48MOL   C74145955   5.804   6.638   0.842 -0.0203  0.2745  0.5417
   48MOL   C74245956   5.726   6.546   0.750 -0.8492 -0.3128  0.1455
   48MOL   O74345957   5.755   6.429   0.739  0.2224  0.2866 -0.0841
   48MOL   H74445958   5.724   5.587   0.426  3.8710 -0.2325 -3.1216
   48MOL   H74545959   5.884   5.792   0.440 -0.0504  2.4702 -1.6207
   48MOL   H74645960   5.794   5.837   0.304  1.2071  0.3437 -2.6556
   48MOL   H74745961   5.723   5.541   0.198 -0.1930  0.3691  0.9486
   48MOL   H74845962   5.839   5.416   0.033  0.0255 -1.6915  1.6144
   48MOL   H74945963   6.080   5.466   7.772 -1.2473 -0.0661 -0.5624
   48MOL   H75045964   6.211   5.608   0.136  0.4380  1.1420  0.3678
   48MOL   H75145965   6.231   5.718   0.328 -1.1476 -1.0795  0.0077
   48MOL   H75245966   6.106   5.709   0.446  2.3353 -1.3896  0.1119
   48MOL   H75345967   6.045   5.931   0.292  0.6425  0.8061  0.3088
   48MOL   H75445968   6.082   6.144   0.315  0.1394 -2.1894 -0.4286
   48MOL   H75545969   6.248   6.166   0.331  0.8556  1.2698  0.4174
   48MOL   H75645970   6.226   6.214   0.566 -0.7220  1.1422  0.9422
   48MOL   H75745971   6.046   6.187   0.560 -0.7809  3.8870  0.8658
   48MOL   H75845972   6.192   6.409   0.416 -0.4216  0.2675 -0.7049
   48MOL   H75945973   6.017   6.390   0.409 -0.2160  0.2934 -0.7198
   48MOL   H76045974   6.003   6.393   0.664 -0.4789  1.4225 -0.0487
   48MOL   H76145975   6.163   6.453   0.658 -0.2411  1.7114  1.2364
   48MOL   H76245976   6.065   6.627   0.474  0.4014  0.9452  0.8508
   48MOL   H76345977   5.910   6.569   0.517  0.2071 -2.7029  1.0573
   48MOL   H76445978   5.974   6.777   0.641  2.8255  0.8559 -1.3102
   48MOL   H76545979   6.120   6.695   0.696 -0.8660 -0.2415  2.7298
   48MOL   H76645980   5.989   6.529   0.836 -1.3096 -0.8258 -1.3862
   48MOL   H76745981   5.997   6.697   0.889 -0.0527  0.3080 -1.3844
   48MOL   H76845982   5.783   6.601   0.943  0.8691 -2.0552 -0.1184
   48MOL   H76945983   5.783   6.745   0.843 -0.5318  0.1745  1.1182
   48MOL   N77045984   5.627   6.601   0.679  0.2239  0.2750 -0.8575
   48MOL   C77145985   5.542   6.534   0.581 -0.4779 -0.0217 -0.0952
   48MOL   C77245986   5.465   6.417   0.634  0.7778  0.1862  0.2187
   48MOL   C77345987   5.364   6.453   0.727  0.0110  0.5341 -0.4403
   48MOL   C77445988   5.288   6.358   0.788 -0.2691  0.1132 -1.2601
   48MOL   C77545989   5.312   6.222   0.764  0.0967  0.6042 -0.5447
   48MOL   C77645990   5.411   6.182   0.673  0.0277  0.1999 -0.1636
   48MOL   C77745991   5.492   6.281   0.611 -0.3544 -0.1983 -0.1595
   48MOL   C77845992   5.591   6.227   0.496  0.2511  0.1415 -0.3427
   48MOL   N77945993   5.532   6.129   0.406 -0.1876  0.4395  0.5096
   48MOL   C78045994   5.476   6.152   0.284 -0.1116 -0.0054  0.0218
   48MOL   O78145995   5.451   6.265   0.238 -0.1700  0.6922  1.0161
   48MOL   C78245996   5.422   6.031   0.208 -0.3404  0.4821  0.3356
   48MOL   C78345997   5.504   5.981   0.087  0.1350  0.2420 -0.9896
   48MOL   C78445998   5.513   5.835   0.072  0.5144  0.0252 -0.4630
   48MOL   C78545999   5.571   5.790   7.726  0.1864 -0.9008 -0.0240
   48MOL   C78646000   5.532   5.642   7.703  0.1793  0.6246 -0.5493
   48MOL   C78746001   5.599   5.602   7.574 -0.2169 -0.5438 -0.6729
   48MOL   C78846002   5.548   5.465   7.520  0.2924 -0.5772  0.3537
   48MOL   C78946003   5.646   5.387   7.421  0.3008  0.0295  1.0044
   48MOL   C79046004   5.768   5.325   7.482  0.0550  0.1370 -0.0929
   48MOL   O79146005   5.806   5.353   7.594  0.1945 -0.1594 -0.4081
   48MOL   H79246006   5.611   6.701   0.688  1.1043  0.2719  0.8766
   48MOL   H79346007   5.471   6.612   0.553 -1.5701 -0.2067  2.0928
   48MOL   H79446008   5.594   6.515   0.487 -1.4081  1.5459 -0.9533
   48MOL   H79546009   5.355   6.555   0.763  0.7269 -0.4132  2.5441
   48MOL   H79646010   5.220   6.387   0.867 -0.1960  2.4500 -2.0107
   48MOL   H79746011   5.246   6.154   0.816  1.7676  0.0962  0.9876
   48MOL   H79846012   5.439   6.080   0.652  2.1505  0.3863  1.5507
   48MOL   H79946013   5.674   6.181   0.549  0.5603 -0.5934 -1.4486
   48MOL   H80046014   5.643   6.303   0.439  2.5259 -0.9597  0.2201
   48MOL   H80146015   5.547   6.039   0.448 -3.4077 -0.0599  0.6552
   48MOL   H80246016   5.320   6.041   0.173 -0.3766  1.2895  0.6557
   48MOL   H80346017   5.412   5.949   0.279  0.2462 -0.1612 -0.3268
   48MOL   H80446018   5.602   6.030   0.092 -0.8757  2.1597  1.0757
   48MOL   H80546019   5.454   6.026   0.002 -1.3950  2.3970  0.9874
   48MOL   H80646020   5.408   5.808   0.085 -0.0956  3.3893  2.1518
   48MOL   H80746021   5.580   5.795   0.149  1.1522  2.8208  0.4725
   48MOL   H80846022   5.515   5.849   7.654  0.4022 -0.4731  0.1605
   48MOL   H80946023   5.677   5.813   7.715 -0.0882 -0.8095 -2.8356
   48MOL   H81046024   5.562   5.590   0.004 -1.2741  0.4548 -0.1562
   48MOL   H81146025   5.424   5.633   7.692  0.0896  0.8201  0.1719
   48MOL   H81246026   5.707   5.602   7.592 -0.2646 -0.8139 -0.3725
   48MOL   H81346027   5.600   5.681   7.499  2.8180  1.1155  1.0117
   48MOL   H81446028   5.445   5.462   7.484  0.9829  0.4233 -1.7521
   48MOL   H81546029   5.538   5.402   7.609 -0.1097 -0.6753  0.2405
   48MOL   H81646030   5.661   5.452   7.334 -2.8352 -1.6786 -0.8871
   48MOL   H81746031   5.587   5.299   7.395 -2.4310  1.8491  0.8336
   48MOL   N81846032   5.830   5.230   7.412 -0.7020 -0.6046 -0.2910
   48MOL   C81946033   5.962   5.178   7.447 -0.4721 -0.4861  0.4098
   48MOL   C82046034   6.016   5.062   7.357 -0.0753 -0.7338  0.3464
   48MOL   C82146035   6.149   5.082   7.313  0.3025 -0.0957 -0.0161
   48MOL   C82246036   6.213   4.969   7.252 -0.3985 -0.1189  0.8032
   48MOL   C82346037   6.143   4.857   7.214  0.1846 -0.2174 -0.1795
   48MOL   C82446038   6.010   4.846   7.240 -0.2259  0.0479 -0.5412
   48MOL   C82546039   5.947   4.940   7.326  0.0572  0.0999  0.4252
   48MOL   C82646040   5.807   4.920   7.378  0.6652 -0.4588 -0.7636
   48MOL   N82746041   5.762   4.782   7.365  1.0642 -0.4044  0.0781
   48MOL   C82846042   5.684   4.718   7.456  0.2735 -0.6844  0.7225
   48MOL   O82946043   5.623   4.771   7.550 -0.2106  0.4221 -0.0747
   48MOL   C83046044   5.673   4.567   7.437 -0.0289 -0.1958 -0.2141
   48MOL   C83146045   5.590   4.478   7.539 -0.7263  0.8891  0.1459
   48MOL   C83246046   5.582   4.331   7.502 -0.4454 -0.9937 -0.4559
   48MOL   C83346047   5.707   4.255   7.541  0.0085 -0.0758  0.1518
   48MOL   C83446048   5.717   4.099   7.519 -0.1168 -0.1002 -1.1509
   48MOL   C83546049   5.862   4.044   7.537 -0.3079  0.7148 -0.7286
   48MOL   C83646050   5.877   3.890   7.568  0.1006  0.8264 -0.1316
   48MOL   C83746051   5.836   3.801   7.447 -0.2000 -0.0923 -0.0858
   48MOL   C83846052   5.694   3.741   7.437  0.3309  0.0866  0.2790
   48MOL   O83946053   5.609   3.791   7.510 -0.4081  0.1612 -0.8952
   48MOL   H84046054   5.820   5.229   7.312 -0.2511 -0.3686 -0.3406
   48MOL   H84146055   6.041   5.252   7.436 -0.1490 -0.9920 -0.7098
   48MOL   H84246056   5.969   5.141   7.549 -1.6363 -0.9336  0.3354
   48MOL   H84346057   6.213   5.166   7.337  0.5773 -0.8293  1.9116
   48MOL   H84446058   6.317   4.969   7.224 -1.0181  0.6228 -1.5815
   48MOL   H84546059   6.188   4.775   7.161  1.2950  0.5460 -0.4322
   48MOL   H84646060   5.952   4.761   7.209  0.3987 -1.4628  2.2192
   48MOL   H84746061   5.763   4.997   7.314 -1.9065 -0.2423  1.1901
   48MOL   H84846062   5.829   4.942   7.482  0.2362  2.4200 -1.2516
   48MOL   H84946063   5.800   4.735   7.284  1.9236  1.7792 -0.8433
   48MOL   H85046064   5.773   4.526   7.426 -0.4819 -1.3682 -0.0764
   48MOL   H85146065   5.625   4.549   7.341 -1.0546  0.3098  0.1947
   48MOL   H85246066   5.494   4.528   7.539 -1.6739 -0.8930 -0.9079
   48MOL   H85346067   5.638   4.488   7.637  1.0888 -2.4303 -0.3300
   48MOL   H85446068   5.563   4.303   7.398 -0.1028 -1.3087 -0.4357
   48MOL   H85546069   5.495   4.294   7.556  0.8182 -2.1317  0.8510
   48MOL   H85646070   5.797   4.301   7.501 -0.2658  0.4980  0.1899
   48MOL   H85746071   5.720   4.251   7.649 -1.3767 -1.0108  0.3045
   48MOL   H85846072   5.656   4.055   7.598 -0.7085  2.5211 -0.0726
   48MOL   H85946073   5.671   4.079   7.422 -1.8440  1.0484 -0.5946
   48MOL   H86046074   5.906   4.094   7.623 -1.9320 -0.3579  0.7700
   48MOL   H86146075   5.926   4.080   7.456 -0.6585 -2.3211 -2.4188
   48MOL   H86246076   5.809   3.872   7.652 -0.5139  1.6124 -0.4627
   48MOL   H86346077   5.975   3.862   7.609  0.1765  0.7071 -0.3938
   48MOL   H86446078   5.847   3.859   7.355 -1.9016  0.4706  0.0574
   48MOL   H86546079   5.902   3.714   7.445  0.4380  0.3828 -0.0464
   48MOL   N86646080   5.667   3.645   7.351  0.3265 -0.0464  0.4253
   48MOL   C86746081   5.538   3.585   7.327  0.1125 -0.1068 -0.2677
   48MOL   C86846082   5.533   3.430   7.353  0.4924 -0.2473  0.0030
   48MOL   C86946083   5.515   3.348   7.240 -0.3486 -0.7894  0.1657
   48MOL   C87046084   5.495   3.210   7.265 -0.6154  0.1237 -0.7404
   48MOL   C87146085   5.501   3.151   7.390 -0.0415  0.0259  0.3556
   48MOL   C87246086   5.518   3.235   7.502 -0.3250 -0.7702 -0.0834
   48MOL   C87346087   5.541   3.375   7.483 -0.5963  0.0072 -0.5349
   48MOL   C87446088   5.569   3.448   7.609  0.0693 -0.9142 -0.1644
   48MOL   N87546089   5.452   3.514   7.655 -0.0535 -0.2181 -0.2214
   48MOL   C87646090   5.407   3.503   7.780 -0.6257 -0.0827 -0.3848
   48MOL   O87746091   5.468   3.453   0.086 -0.4901 -0.1643  0.5970
   48MOL   C87846092   5.280   3.590   0.022  0.6928  0.2611  0.4091
   48MOL   C87946093   5.188   3.553   0.144 -0.3566  0.1452  0.2484
   48MOL   C88046094   5.084   3.664   0.153  0.0765 -0.0448  1.0667
   48MOL   C88146095   4.964   3.650   0.055 -0.1962 -0.2257  0.1039
   48MOL   C88246096   4.841   3.750   0.078 -0.2197  0.0488 -0.5283
   48MOL   C88346097   4.762   3.764   7.745 -0.7425  0.5984  0.8074
   48MOL   C88446098   4.682   3.641   7.719  0.4158  0.1505 -0.8539
   48MOL   C88546099   4.599   3.636   7.585 -0.2547  0.6789 -0.4041
   48MOL   C88646100   4.686   3.639   7.460 -0.1954 -0.4253  0.2636
   48MOL   O88746101   4.789   3.581   7.449  0.3573  0.5755 -0.5254
   48MOL   H88846102   5.739   3.606   7.292  2.0926  5.5147 -1.4463
   48MOL   H88946103   5.454   3.636   7.375  0.5206 -0.6699  1.0862
   48MOL   H89046104   5.521   3.587   7.220 -0.9285  0.5756 -0.0928
   48MOL   H89146105   5.490   3.393   7.145  0.4993 -1.0808 -0.2006
   48MOL   H89246106   5.484   3.153   7.174  1.5929 -2.5945  0.6085
   48MOL   H89346107   5.504   3.043   7.400 -1.7585 -0.2636 -1.7769
   48MOL   H89446108   5.541   3.186   7.596 -0.3796 -2.3950 -0.8962
   48MOL   H89546109   5.658   3.507   7.588 -0.3895 -0.2166 -0.1942
   48MOL   H89646110   5.612   3.373   7.676 -0.1825 -0.0720  0.9636
   48MOL   H89746111   5.405   3.575   7.590  0.8779 -0.5199 -1.1997
   48MOL   H89846112   5.227   3.598   7.717 -0.9092  1.4804  1.3819
   48MOL   H89946113   5.315   3.690   0.050  0.2581  0.3597  0.5989
   48MOL   H90046114   5.251   3.568   0.232 -1.7656  2.1246  0.9446
   48MOL   H90146115   5.144   3.455   0.154  2.1511 -1.3845 -2.6182
   48MOL   H90246116   5.031   3.665   0.248  0.2904 -1.8994  1.2281
   48MOL   H90346117   5.121   3.766   0.141 -3.2852  1.0510 -0.6547
   48MOL   H90446118   5.012   3.671   7.749  0.0137  0.6645  0.3937
   48MOL   H90546119   4.930   3.547   0.062 -1.0507  0.1626  2.2105
   48MOL   H90646120   4.796   3.718   0.171  1.8404 -0.8254  0.1924
   48MOL   H90746121   4.882   3.851   0.091  0.3770 -0.3317  0.5719
   48MOL   H90846122   4.822   3.794   7.659 -1.1088 -0.2149  0.2563
   48MOL   H90946123   4.681   3.837   7.745 -1.6083 -0.3348 -0.2386
   48MOL   H91046124   4.747   3.554   7.718 -1.1157 -1.0228 -0.3739
   48MOL   H91146125   4.621   3.624   0.017  0.3103 -0.0660 -0.9701
   48MOL   H91246126   4.529   3.553   7.589  2.4242 -1.7206 -1.8657
   48MOL   H91346127   4.540   3.727   7.574 -0.8085  0.5235  1.2925
   48MOL   N91446128   4.647   3.712   7.358  0.0697 -0.6782 -0.1924
   48MOL   C91546129   4.729   3.750   7.246  0.0122 -0.2232  0.6868
   48MOL   C91646130   4.675   3.699   7.108 -0.2049  0.5969  0.0900
   48MOL   C91746131   4.641   3.797   7.012  0.0769  0.4168  0.4269
   48MOL   C91846132   4.573   3.760   6.896  0.4165 -0.0069  0.2266
   48MOL   C91946133   4.538   3.623   6.871  0.3446  0.2215  0.9338
   48MOL   C92046134   4.584   3.521   6.958 -0.7501  0.2438 -0.7943
   48MOL   C92146135   4.654   3.561   7.078 -0.2516  0.9354  0.3136
   48MOL   C92246136   4.699   3.453   7.171 -0.4961  1.0648 -0.1959
   48MOL   N92346137   4.587   3.405   7.248  0.5497  0.1894 -0.1778
   48MOL   C92446138   4.573   3.281   7.301 -0.7996 -0.2217  0.6646
   48MOL   O92546139   4.664   3.195   7.285 -0.0374  0.5283  0.1425
   48MOL   C92646140   4.455   3.246   7.382 -0.4252 -0.0747 -0.9936
   48MOL   C92746141   4.362   3.156   7.302 -0.0913 -0.2562 -0.2735
   48MOL   C92846142   4.270   3.234   7.201  0.1240  0.4031 -0.1845
   48MOL   C92946143   4.169   3.321   7.275 -0.4185  0.0281  0.1451
   48MOL   C93046144   4.048   3.359   7.187  0.2830  0.2928 -0.1710
   48MOL   C93146145   3.948   3.438   7.276 -0.2279 -0.0668  0.2800
   48MOL   C93246146   3.806   3.468   7.214  0.2783 -0.3809  0.5595
   48MOL   C93346147   3.710   3.345   7.214  0.2207 -0.4687  0.0182
   48MOL   C93446148   3.592   3.360   7.115 -0.3060 -0.0791 -0.7553
   48MOL   O93546149   3.531   3.463   7.101 -0.3953 -0.2182  0.1463
   48MOL   H93646150   4.547   3.726   7.355  0.3841  1.6605 -0.3697
   48MOL   H93746151   4.724   3.859   7.237  2.2354 -0.1940 -0.4315
   48MOL   H93846152   4.835   3.729   7.254 -0.3887 -2.1517  1.1451
   48MOL   H93946153   4.671   3.901   7.023 -1.3748  0.9151 -0.2313
   48MOL   H94046154   4.536   3.836   6.829  0.0563 -1.7657 -1.6149
   48MOL   H94146155   4.483   3.598   6.782  0.4201  0.2650  0.8758
   48MOL   H94246156   4.584   3.414   6.940  1.9140  0.2260 -0.7715
   48MOL   H94346157   4.782   3.482   7.236  2.2561 -2.2619 -2.0481
   48MOL   H94446158   4.740   3.364   7.123 -1.4615  0.9768 -0.8737
   48MOL   H94546159   4.516   3.473   7.271 -0.6999 -0.7872 -1.0487
   48MOL   H94646160   4.402   3.339   7.406 -1.2878 -0.8697  0.2532
   48MOL   H94746161   4.485   3.196   7.474  0.3752  2.2742  0.0869
   48MOL   H94846162   4.303   3.103   7.377 -0.6389  1.9173  0.8619
   48MOL   H94946163   4.426   3.077   7.263  1.4186  1.3831 -1.1827
   48MOL   H95046164   4.322   3.296   7.127 -0.4239 -1.5769 -2.2684
   48MOL   H95146165   4.224   3.156   7.141 -0.1971  0.2967  0.1950
   48MOL   H95246166   4.141   3.270   7.367  1.1155  0.2785  0.7723
   48MOL   H95346167   4.219   3.412   7.307  0.1264 -0.3530  0.3768
   48MOL   H95446168   4.010   3.273   7.132  1.9871  0.9554 -2.4543
   48MOL   H95546169   4.083   3.428   7.110 -0.4697 -1.2187 -1.8983
   48MOL   H95646170   3.928   3.372   7.361  0.1230 -2.0424 -1.1507
   48MOL   H95746171   3.982   3.535   7.313  1.0310 -0.4163  0.0814
   48MOL   H95846172   3.828   3.491   7.110  1.0248 -0.5631  0.6691
   48MOL   H95946173   3.762   3.560   7.252 -0.8768 -0.1346 -1.3153
   48MOL   H96046174   3.673   3.321   7.314  1.2557 -0.5165  0.3980
   48MOL   H96146175   3.769   3.265   7.167  2.6536  0.5493  1.2181
   48MOL   H96246176   3.570   3.273   7.053 -0.6368 -0.2886 -0.3427
   49MOL     N146177   2.883   7.034   3.401  0.5638  0.1417  0.3491
   49MOL     C246178   2.748   7.093   3.393  0.0380 -0.4622  0.2183
   49MOL     C346179   2.666   7.057   3.512  0.6942  1.0305 -0.3664
   49MOL     C446180   2.633   7.162   3.605  0.1739  0.7428  0.0976
   49MOL     C546181   2.543   7.134   3.714 -0.0481 -0.5731 -0.0293
   49MOL     C646182   2.487   7.009   3.729  0.8523 -0.3702  0.1757
   49MOL     C746183   2.521   6.906   3.641 -0.1609  0.1416  0.8223
   49MOL     C846184   2.609   6.932   3.535 -0.4487  0.3992  0.3780
   49MOL     C946185   2.639   6.818   3.433 -0.7502  0.1559  0.0599
   49MOL    N1046186   2.766   6.745   3.453 -0.0367 -0.5652  0.2054
   49MOL    C1146187   2.796   6.623   3.410 -0.7763  0.1891 -0.5365
   49MOL    O1246188   2.712   6.547   3.357  0.5065  0.3172 -0.3100
   49MOL    C1346189   2.940   6.579   3.425  0.5622 -0.0304  0.0056
   49MOL    C1446190   3.018   6.558   3.301 -0.4706  0.0035 -0.0808
   49MOL    C1546191   3.072   6.679   3.231 -0.0463 -0.3952 -0.2635
   49MOL    C1646192   3.220   6.717   3.267  0.1975  0.0468 -0.8851
   49MOL    C1746193   3.325   6.611   3.238  0.0552  0.1078  0.2117
   49MOL    C1846194   3.469   6.662   3.248  0.3392 -0.6318  0.0232
   49MOL    C1946195   3.570   6.571   3.175  0.5108 -0.2191 -0.0475
   49MOL    C2046196   3.714   6.637   3.164 -0.6649 -0.4463 -0.2100
   49MOL    C2146197   3.809   6.522   3.107 -0.1014 -0.1006  0.4222
   49MOL    O2246198   3.839   6.432   3.183 -0.3021  0.5047 -0.9862
   49MOL    H2346199   2.954   7.106   3.414  1.4558 -1.1335  2.8394
   49MOL    H2446200   2.769   7.200   3.394  0.3380 -0.5178 -0.0065
   49MOL    H2546201   2.684   7.065   3.310 -1.3763 -2.7510  2.0199
   49MOL    H2646202   2.673   7.262   3.606 -1.8705  1.6029  1.4575
   49MOL    H2746203   2.515   7.207   3.789  1.5702 -0.2406  0.2671
   49MOL    H2846204   2.411   6.983   3.802 -0.8144  1.0597 -0.9911
   49MOL    H2946205   2.488   6.804   3.652 -0.2615 -0.2901 -2.8089
   49MOL    H3046206   2.645   6.851   3.329  2.3171  1.5356  0.6135
   49MOL    H3146207   2.557   6.746   3.436 -1.8639  1.4805  3.7487
   49MOL    H3246208   2.841   6.785   3.508 -1.0384  1.0445  0.4103
   49MOL    H3346209   2.936   6.482   3.475 -0.5536 -0.6359 -1.2319
   49MOL    H3446210   2.992   6.634   3.503 -1.4285 -0.8256  1.9676
   49MOL    H3546211   2.956   6.495   3.237  0.0432  0.5177 -1.1036
   49MOL    H3646212   3.099   6.495   3.336 -0.3674  1.2373  1.9837
   49MOL    H3746213   3.063   6.671   3.123  0.2500  0.7897 -0.3847
   49MOL    H3846214   3.017   6.772   3.249 -0.2932 -1.0417  2.6487
   49MOL    H3946215   3.244   6.814   3.225  1.4925  0.8865  1.6403
   49MOL    H4046216   3.222   6.749   3.372 -0.0949  2.2026 -1.5116
   49MOL    H4146217   3.307   6.528   3.306 -0.5720  2.6551  3.2283
   49MOL    H4246218   3.295   6.596   3.134 -1.2230  1.2027  0.4113
   49MOL    H4346219   3.494   6.677   3.353  0.1176 -3.4963  0.5119
   49MOL    H4446220   3.477   6.761   3.201 -1.0629  0.2383  1.5931
   49MOL    H4546221   3.584   6.474   3.222  0.3807 -0.8905 -1.3796
   49MOL    H4646222   3.531   6.547   3.076 -1.2183 -0.0034  0.5719
   49MOL    H4746223   3.757   6.676   3.256 -0.0370  0.7570 -0.9941
   49MOL    H4846224   3.715   6.714   3.086 -0.8105  0.3065  0.5299
   49MOL    H4946225   2.883   6.982   3.487  0.1751 -1.0072 -0.3340
   49MOL    N5046226   3.853   6.552   2.984 -0.1625  0.2124  0.2031
   49MOL    C5146227   3.939   6.466   2.905  0.4213 -0.7674  0.7231
   49MOL    C5246228   4.082   6.510   2.901  0.0543 -0.1966  0.2386
   49MOL    C5346229   4.101   6.627   2.830 -0.4157 -0.0652 -0.0007
   49MOL    C5446230   4.235   6.676   2.808 -0.3790 -0.1253  0.3260
   49MOL    C5546231   4.337   6.598   2.855  0.0584 -0.5063  0.8847
   49MOL    C5646232   4.312   6.483   2.933 -0.5133 -0.4905 -0.1280
   49MOL    C5746233   4.187   6.430   2.941  0.0021  0.5018 -0.9163
   49MOL    C5846234   4.161   6.300   3.021 -0.3271  0.3434 -0.8497
   49MOL    N5946235   4.108   6.189   2.945  0.1845  0.5716 -0.3901
   49MOL    C6046236   4.035   6.095   2.997 -0.5816 -0.0509  0.3897
   49MOL    O6146237   3.989   6.102   3.108  0.2445  0.3332  0.3581
   49MOL    C6246238   3.993   5.980   2.908 -0.3299 -0.0362 -0.0368
   49MOL    C6346239   4.006   5.845   2.985 -0.8181  0.1787 -0.2788
   49MOL    C6446240   4.012   5.728   2.889 -0.2617  0.4163 -0.0066
   49MOL    C6546241   4.114   5.729   2.778  0.2885 -0.4533  0.3877
   49MOL    C6646242   4.054   5.714   2.640  0.1459  0.4418  0.8660
   49MOL    C6746243   4.151   5.743   2.523 -0.3794 -0.2966  0.4162
   49MOL    C6846244   4.095   5.699   2.393  0.6389 -0.3906  0.0114
   49MOL    C6946245   4.197   5.717   2.275 -0.2141 -0.6108  0.9555
   49MOL    C7046246   4.155   5.668   2.136 -0.5331  0.1673 -0.6095
   49MOL    O7146247   4.086   5.559   2.125 -0.9088 -0.2331 -0.0248
   49MOL    H7246248   3.826   6.636   2.935 -1.0613 -1.2465 -1.9135
   49MOL    H7346249   3.909   6.463   2.800  3.3826  0.1103 -0.1771
   49MOL    H7446250   3.922   6.363   2.937 -0.5416 -1.0276 -0.5603
   49MOL    H7546251   4.021   6.688   2.790  0.4731  1.9574  1.2133
   49MOL    H7646252   4.254   6.765   2.750  0.0882 -0.1089  0.5044
   49MOL    H7746253   4.441   6.628   2.854 -0.4944  1.5053  1.7674
   49MOL    H7846254   4.395   6.424   2.967  2.4028  2.9734 -1.0260
   49MOL    H7946255   4.103   6.327   3.110 -0.8958  0.8019 -1.3581
   49MOL    H8046256   4.258   6.275   3.064 -1.0647 -1.3651 -0.1309
   49MOL    H8146257   4.121   6.196   2.845  1.1408 -1.3377 -0.4183
   49MOL    H8246258   4.036   5.987   2.808 -0.3463  2.2403  0.0924
   49MOL    H8346259   3.885   5.997   2.899 -0.6376 -2.4449 -1.4758
   49MOL    H8446260   3.929   5.834   3.062  1.1790 -2.2261  1.4562
   49MOL    H8546261   4.097   5.864   3.041 -0.5633 -0.4052 -0.4845
   49MOL    H8646262   4.048   5.648   2.954 -0.2856 -0.5630 -1.2063
   49MOL    H8746263   3.910   5.707   2.856  0.4532  1.3402 -2.9159
   49MOL    H8846264   4.180   5.816   2.777  0.0036 -0.2399 -0.0008
   49MOL    H8946265   4.196   5.660   2.794  1.3634  1.1801  2.0359
   49MOL    H9046266   4.011   5.614   2.633  0.7296  0.1175  1.8314
   49MOL    H9146267   3.983   5.797   2.637 -0.9794 -0.5509 -1.0764
   49MOL    H9246268   4.258   5.719   2.528 -0.3510  0.1124  2.2058
   49MOL    H9346269   4.145   5.852   2.518  2.1429 -0.1991 -1.3505
   49MOL    H9446270   3.996   5.740   2.375  0.8452  0.9795  1.8410
   49MOL    H9546271   4.077   5.591   2.400  1.0738 -0.5511 -1.3179
   49MOL    H9646272   4.285   5.657   2.295  0.8985  0.1369 -1.5168
   49MOL    H9746273   4.214   5.825   2.277  1.9768 -0.9492  1.1187
   49MOL    N9846274   4.194   5.738   2.029 -0.2171  0.3602  0.0301
   49MOL    C9946275   4.170   5.700   1.894  0.1938 -0.0537 -0.1120
   49MOL   C10046276   4.167   5.821   1.798 -0.1301  0.6959  0.3632
   49MOL   C10146277   4.112   5.946   1.838  0.1339  0.4986  0.6146
   49MOL   C10246278   4.107   6.055   1.747 -0.4225  0.9423  0.5294
   49MOL   C10346279   4.145   6.038   1.612  0.2982  0.1603 -0.7520
   49MOL   C10446280   4.190   5.909   1.575 -0.2382  0.6269  0.2468
   49MOL   C10546281   4.212   5.802   1.663 -0.1848 -0.3639 -0.6272
   49MOL   C10646282   4.275   5.672   1.617  0.3330  0.5083  0.0876
   49MOL   N10746283   4.270   5.648   1.472 -0.7038  0.1133  0.1541
   49MOL   C10846284   4.374   5.617   1.392 -0.6212  0.1338 -0.4690
   49MOL   O10946285   4.492   5.639   1.431 -0.0478 -0.4477 -0.0476
   49MOL   C11046286   4.341   5.572   1.254 -0.1545  0.4924  0.7627
   49MOL   C11146287   4.422   5.451   1.197 -0.0620  0.0155 -0.7102
   49MOL   C11246288   4.544   5.483   1.108  0.4265  0.4365 -0.4124
   49MOL   C11346289   4.616   5.363   1.048  0.0897 -0.1785 -0.3971
   49MOL   C11446290   4.730   5.407   0.957  0.3589 -0.6513 -0.1668
   49MOL   C11546291   4.863   5.434   1.035 -0.2064  0.3500  0.0649
   49MOL   C11646292   4.992   5.424   0.951 -0.4638  0.0816  0.1009
   49MOL   C11746293   5.060   5.289   0.962 -0.0587  0.5891  0.9227
   49MOL   C11846294   4.984   5.171   0.899  0.1412  0.3560  0.3048
   49MOL   O11946295   5.003   5.131   0.781  0.3538 -0.4964 -1.2871
   49MOL   H12046296   4.259   5.812   2.051 -0.3104 -0.5018  3.3746
   49MOL   H12146297   4.251   5.634   1.861  0.8423  0.1372  1.0699
   49MOL   H12246298   4.078   5.640   1.893  0.0745 -0.0438  3.5126
   49MOL   H12346299   4.073   5.954   1.939  0.6862 -1.4764  1.0201
   49MOL   H12446300   4.068   6.147   1.787 -1.3710  0.7416  0.0772
   49MOL   H12546301   4.125   6.121   1.545  0.0227  1.3710  0.7907
   49MOL   H12646302   4.221   5.896   1.473 -0.4388  0.2076  0.2390
   49MOL   H12746303   4.210   5.594   1.657  0.7331  0.3132  0.3655
   49MOL   H12846304   4.377   5.664   1.656 -0.5292 -1.1545  2.1307
   49MOL   H12946305   4.179   5.634   1.430 -0.6889 -0.5688  0.3371
   49MOL   H13046306   4.359   5.660   1.193  0.1127 -0.3666 -0.4075
   49MOL   H13146307   4.236   5.556   1.231 -0.1263 -1.0065  1.5631
   49MOL   H13246308   4.364   5.395   1.124  0.7606  0.3762 -1.6586
   49MOL   H13346309   4.451   5.388   1.282  1.2971  1.2304 -0.2525
   49MOL   H13446310   4.500   5.541   1.027 -0.3568  0.3031 -0.0874
   49MOL   H13546311   4.610   5.553   1.159 -2.6226  1.4508  2.2671
   49MOL   H13646312   4.641   5.285   1.120 -1.8162 -0.7333 -0.2828
   49MOL   H13746313   4.545   5.308   0.985  0.8035 -1.3938 -0.1481
   49MOL   H13846314   4.747   5.335   0.878  4.1981  0.4812 -0.4467
   49MOL   H13946315   4.700   5.495   0.899  1.7679 -0.5716 -0.7861
   49MOL   H14046316   4.875   5.370   1.123 -1.1008 -0.0920 -0.1244
   49MOL   H14146317   4.853   5.530   1.086  0.2241  0.4943 -0.1199
   49MOL   H14246318   4.979   5.449   0.845 -2.3128  1.6561  0.6813
   49MOL   H14346319   5.049   5.499   1.006 -0.7270  0.2906  0.0890
   49MOL   H14446320   5.095   5.262   1.062  0.2370  1.0328  0.9394
   49MOL   H14546321   5.158   5.302   0.917 -0.6142  0.9689 -0.1858
   49MOL   N14646322   4.900   5.108   0.983  0.5968 -0.3093 -0.2390
   49MOL   C14746323   4.816   4.989   0.953 -0.4337 -0.4899  0.1135
   49MOL   C14846324   4.890   4.858   0.986 -0.2818  0.6811 -0.0895
   49MOL   C14946325   4.915   4.769   0.883  0.5493  0.8600 -0.8125
   49MOL   C15046326   4.992   4.653   0.903 -0.1568  0.8493  0.2783
   49MOL   C15146327   5.037   4.619   1.029  0.3887 -0.0624  0.2548
   49MOL   C15246328   5.002   4.702   1.136  0.5061 -0.9263 -0.5201
   49MOL   C15346329   4.924   4.823   1.121  0.5367 -0.3271 -0.8407
   49MOL   C15446330   4.877   4.893   1.243 -0.2331 -0.6573  0.2316
   49MOL   N15546331   4.986   4.957   1.312  0.9121  0.1782 -0.2606
   49MOL   C15646332   5.005   5.091   1.300  0.1398  0.3043  0.4807
   49MOL   O15746333   4.924   5.173   1.247  0.1318 -0.0760 -0.2521
   49MOL   C15846334   5.147   5.129   1.356 -0.0461 -0.5353  0.0570
   49MOL   C15946335   5.255   5.180   1.254 -0.0452 -0.2783  0.3299
   49MOL   C16046336   5.269   5.334   1.262 -0.3883  0.0506  0.1170
   49MOL   C16146337   5.395   5.403   1.202  0.7580  0.7300  0.1565
   49MOL   C16246338   5.415   5.541   1.272 -0.4202  0.0065  0.2979
   49MOL   C16346339   5.526   5.623   1.197  0.3977 -0.6460 -0.2600
   49MOL   C16446340   5.545   5.764   1.263 -0.5369  0.5252  0.6487
   49MOL   C16546341   5.658   5.854   1.192  0.0676  0.3931 -0.0452
   49MOL   C16646342   5.792   5.848   1.275  0.7098  0.2559  0.4278
   49MOL   O16746343   5.824   5.739   1.319 -0.0163 -0.0634  0.2098
   49MOL   H16846344   4.886   5.149   1.074  1.6290  1.7370 -0.9612
   49MOL   H16946345   4.793   4.991   0.847 -1.8609  1.0355  0.4428
   49MOL   H17046346   4.722   4.982   1.008  0.4324 -2.4662  1.4254
   49MOL   H17146347   4.903   4.790   0.777  1.0858  0.1159 -1.0207
   49MOL   H17246348   5.026   4.593   0.820  0.8269  0.7634  0.7315
   49MOL   H17346349   5.090   4.525   1.031 -2.1009 -1.4837  1.7764
   49MOL   H17446350   5.032   4.673   1.236 -0.0180 -0.3192 -0.1828
   49MOL   H17546351   4.831   4.831   1.320  2.0403 -1.4689  0.9695
   49MOL   H17646352   4.805   4.968   1.210  0.3995 -1.0481 -2.1124
   49MOL   H17746353   5.040   4.896   1.372  1.2526  0.8190  0.0874
   49MOL   H17846354   5.189   5.051   1.419 -0.7530  1.6926  3.4249
   49MOL   H17946355   5.125   5.201   1.435 -1.6900 -1.2563  0.2873
   49MOL   H18046356   5.246   5.144   1.152  2.8299 -0.5901  0.1574
   49MOL   H18146357   5.350   5.130   1.270  1.0391  1.2585 -1.2011
   49MOL   H18246358   5.187   5.391   1.218 -0.3422  0.4970  0.6068
   49MOL   H18346359   5.270   5.360   1.368 -0.8134 -0.2919  0.2067
   49MOL   H18446360   5.482   5.339   1.214  0.1239 -0.0178  0.8077
   49MOL   H18546361   5.382   5.399   1.094 -0.1158 -0.2916  0.2903
   49MOL   H18646362   5.327   5.602   1.289  0.8666  1.8645  0.5082
   49MOL   H18746363   5.453   5.538   1.374 -0.9338 -1.5494  0.4501
   49MOL   H18846364   5.487   5.635   1.096 -1.1774 -1.6263  0.2145
   49MOL   H18946365   5.617   5.563   1.191 -0.6878 -2.5563  1.7406
   49MOL   H19046366   5.457   5.827   1.249 -0.5007 -0.0971 -2.8803
   49MOL   H19146367   5.557   5.747   1.370  0.7542 -1.3010  0.2423
   49MOL   H19246368   5.618   5.955   1.186 -1.6576 -0.2602  0.2637
   49MOL   H19346369   5.675   5.817   1.091  0.2318 -0.9686  0.4596
   49MOL   N19446370   5.850   5.962   1.304  0.2204 -0.5014  0.2118
   49MOL   C19546371   5.950   5.975   1.410  0.4569 -0.0036 -0.3679
   49MOL   C19646372   5.882   6.052   1.525  0.4520  0.7560 -0.0884
   49MOL   C19746373   5.837   6.188   1.512 -0.0498  0.1685  0.1819
   49MOL   C19846374   5.763   6.252   1.614 -0.0696  0.2808  0.8362
   49MOL   C19946375   5.739   6.175   1.730  0.1316  0.2493  0.3182
   49MOL   C20046376   5.786   6.046   1.752 -0.3422  0.2660  0.5935
   49MOL   C20146377   5.851   5.981   1.643  0.6131  0.2970 -0.8238
   49MOL   C20246378   5.903   5.844   1.661 -0.0652 -0.8217 -0.4597
   49MOL   N20346379   5.827   5.730   1.598 -0.1857  0.1931 -0.4382
   49MOL   C20446380   5.733   5.660   1.655 -0.2134  0.0633  0.0270
   49MOL   O20546381   5.713   5.665   1.775  0.0640 -0.3435  0.3022
   49MOL   C20646382   5.650   5.558   1.566  0.1871  0.1378 -0.1757
   49MOL   C20746383   5.643   5.414   1.619  0.0710 -0.1220  0.5453
   49MOL   C20846384   5.525   5.325   1.583 -0.2588  0.0131 -0.6374
   49MOL   C20946385   5.519   5.191   1.665 -0.7003  0.0420 -0.3736
   49MOL   C21046386   5.427   5.080   1.614  0.4973  0.5976 -0.1798
   49MOL   C21146387   5.418   4.955   1.710 -0.2709  0.6370 -0.1401
   49MOL   C21246388   5.320   4.848   1.665  0.1559  0.2550 -0.4146
   49MOL   C21346389   5.327   4.792   1.517 -0.0999 -0.2702 -0.3967
   49MOL   C21446390   5.203   4.711   1.485  0.5499 -0.0595 -0.6272
   49MOL   O21546391   5.100   4.771   1.471  0.1500  0.1109  0.2243
   49MOL   H21646392   5.792   6.042   1.285 -0.9188 -1.5439 -0.7362
   49MOL   H21746393   5.989   5.875   1.432  0.2509  0.2811  1.4052
   49MOL   H21846394   6.034   6.033   1.374  0.6727 -0.0197  0.1051
   49MOL   H21946395   5.855   6.241   1.420  1.8700  0.3102  0.6217
   49MOL   H22046396   5.718   6.349   1.603  0.9996  0.7892  0.9118
   49MOL   H22146397   5.682   6.215   1.813  0.3744 -0.5368  0.8731
   49MOL   H22246398   5.780   5.989   1.843 -0.6066 -0.7470 -0.0483
   49MOL   H22346399   5.921   5.839   1.769 -0.1537 -0.3117 -0.4209
   49MOL   H22446400   6.008   5.841   1.631  0.5114 -1.9770  1.5823
   49MOL   H22546401   5.843   5.711   1.501 -3.1506  2.4139 -1.4420
   49MOL   H22646402   5.687   5.568   1.463 -0.5334  0.6313 -0.3900
   49MOL   H22746403   5.551   5.602   1.567  1.4421  3.1402 -0.1682
   49MOL   H22846404   5.737   5.368   1.591  1.0050  2.0808 -0.0685
   49MOL   H22946405   5.651   5.415   1.728  0.3644 -0.8545  0.5326
   49MOL   H23046406   5.426   5.364   1.607  1.0815  2.1759  1.5924
   49MOL   H23146407   5.535   5.293   1.479  0.8448 -3.0409  0.3429
   49MOL   H23246408   5.618   5.145   1.661 -1.4915 -1.6895 -0.5969
   49MOL   H23346409   5.500   5.206   1.771  1.0137 -1.2513  0.1496
   49MOL   H23446410   5.325   5.119   1.610  0.6332  0.8109 -1.9124
   49MOL   H23546411   5.463   5.063   1.513  0.8065 -1.8567  0.3150
   49MOL   H23646412   5.383   4.991   1.807 -0.1344  1.1025 -0.2583
   49MOL   H23746413   5.515   4.907   1.725 -0.5557  0.0284 -0.2654
   49MOL   H23846414   5.217   4.874   1.692 -0.5581 -1.7826 -1.1197
   49MOL   H23946415   5.344   4.763   1.729 -0.7374  1.0017  0.9552
   49MOL   H24046416   5.328   4.869   1.440  0.4268 -0.1154 -0.2394
   49MOL   H24146417   5.417   4.732   1.506 -1.2156 -1.9880 -0.2442
   49MOL   N24246418   5.217   4.578   1.478 -0.3341  0.1066  0.4952
   49MOL   C24346419   5.111   4.481   1.471 -0.3093  0.4213 -0.2930
   49MOL   C24446420   5.105   4.388   1.595 -0.2936  0.9577  0.4413
   49MOL   C24546421   5.114   4.440   1.723 -0.3213  0.5183  0.1411
   49MOL   C24646422   5.111   4.357   1.835  0.2403  0.3226 -0.8411
   49MOL   C24746423   5.085   4.221   1.830 -0.2970  0.3590  0.7723
   49MOL   C24846424   5.066   4.166   1.698  0.4376  0.5316  0.6967
   49MOL   C24946425   5.074   4.251   1.584 -0.9569 -0.5557 -0.1997
   49MOL   C25046426   5.046   4.175   1.449 -0.5571  0.4408  0.0150
   49MOL   N25146427   4.912   4.214   1.398  0.0598 -0.3157  0.5920
   49MOL   C25246428   4.885   4.263   1.285 -0.0116 -0.0475  0.6331
   49MOL   O25346429   4.971   4.267   1.195  0.4834  0.1596  0.5728
   49MOL   C25446430   4.748   4.341   1.275 -0.5569  0.4710  0.4612
   49MOL   C25546431   4.757   4.491   1.234  0.3080 -0.7706  0.5736
   49MOL   C25646432   4.610   4.545   1.200 -0.4673  0.6957 -0.8585
   49MOL   C25746433   4.599   4.701   1.173 -0.2021 -0.1015 -0.0264
   49MOL   C25846434   4.463   4.745   1.127  0.9888 -0.0041 -0.1624
   49MOL   C25946435   4.454   4.895   1.089  0.4979 -0.3713 -0.4175
   49MOL   C26046436   4.315   4.954   1.094  0.0277  0.5349  0.0404
   49MOL   C26146437   4.313   5.099   1.099 -0.0371  0.2711 -0.0800
   49MOL   C26246438   4.173   5.157   1.123  0.2446  0.4619 -0.0458
   49MOL   O26346439   4.105   5.170   1.021 -0.1018  0.1794 -0.0867
   49MOL   H26446440   5.308   4.539   1.495 -0.4994 -1.3929 -1.9308
   49MOL   H26546441   5.022   4.543   1.481  0.0164  0.8402  0.0701
   49MOL   H26646442   5.098   4.429   1.376 -1.0709 -1.3298  0.7607
   49MOL   H26746443   5.134   4.545   1.738 -1.2113  0.6759  0.2822
   49MOL   H26846444   5.110   4.412   1.928 -1.8224  0.4029 -0.8912
   49MOL   H26946445   5.077   4.162   1.920 -0.7915 -1.8259 -0.6392
   49MOL   H27046446   5.047   4.059   1.695  0.8680  0.5013 -1.7624
   49MOL   H27146447   5.040   4.066   1.457  0.6188  0.3874  0.3340
   49MOL   H27246448   5.127   4.184   1.376 -0.1970 -0.0227  0.3479
   49MOL   H27346449   4.836   4.197   1.462 -0.2458 -0.8826  0.0846
   49MOL   H27446450   4.693   4.329   1.368  0.8858 -1.9032  1.0594
   49MOL   H27546451   4.701   4.280   1.198  1.0411 -1.1989  0.7436
   49MOL   H27646452   4.812   4.489   1.139  0.4258 -0.3082  0.6331
   49MOL   H27746453   4.820   4.548   1.302 -1.0266  2.7385 -1.0086
   49MOL   H27846454   4.551   4.519   1.288  1.2003  0.6439  0.2545
   49MOL   H27946455   4.571   4.484   1.118 -0.6628  0.7277 -0.7917
   49MOL   H28046456   4.619   4.738   1.273  0.3819 -0.7392  0.0967
   49MOL   H28146457   4.672   4.738   1.101 -0.0434  0.6527  0.5196
   49MOL   H28246458   4.421   4.683   1.047 -1.6198  0.1459  1.0214
   49MOL   H28346459   4.399   4.729   1.214 -0.4064 -0.9199 -1.3273
   49MOL   H28446460   4.501   4.904   0.991  0.8848  1.4193 -0.0984
   49MOL   H28546461   4.515   4.940   1.167 -0.6335 -0.1129  0.3246
   49MOL   H28646462   4.277   4.917   0.999 -0.5823  1.1897  0.0280
   49MOL   H28746463   4.250   4.911   1.170  1.1539 -0.2615  0.5657
   49MOL   H28846464   4.381   5.142   1.173  0.9750  0.0719 -0.8889
   49MOL   H28946465   4.348   5.139   1.004 -1.1775 -0.6063 -0.8789
   49MOL   N29046466   4.146   5.190   1.247 -0.1052  0.1142  0.2065
   49MOL   C29146467   4.028   5.258   1.293 -0.2226 -0.3958  0.1241
   49MOL   C29246468   3.913   5.162   1.293 -0.1523  0.1411  1.2196
   49MOL   C29346469   3.930   5.031   1.344  0.0746 -0.5425  0.0329
   49MOL   C29446470   3.817   4.945   1.359 -0.0645  1.0749  0.9163
   49MOL   C29546471   3.683   4.998   1.340  0.1289 -0.1441  0.0953
   49MOL   C29646472   3.669   5.127   1.283 -0.7828  0.6636  1.2853
   49MOL   C29746473   3.785   5.208   1.263  0.8739 -0.4922 -0.6208
   49MOL   C29846474   3.758   5.347   1.198  0.2455 -0.0073  0.8921
   49MOL   N29946475   3.822   5.365   1.069 -0.2659  0.1748 -0.2730
   49MOL   C30046476   3.869   5.484   1.021  0.6438  0.1386  0.2585
   49MOL   O30146477   3.855   5.585   1.085  0.3633  0.1292  0.3173
   49MOL   C30246478   3.950   5.469   0.887  0.0679 -0.1032  0.4679
   49MOL   C30346479   4.076   5.556   0.880 -0.6754  0.1783 -0.4041
   49MOL   C30446480   4.141   5.572   0.736 -0.1633  0.3964 -0.9568
   49MOL   C30546481   4.046   5.607   0.619 -0.0743 -0.4811 -0.0306
   49MOL   C30646482   4.132   5.690   0.509  0.3019  0.4165 -0.5280
   49MOL   C30746483   4.032   5.751   0.405 -0.4252 -0.1896 -0.4603
   49MOL   C30846484   4.093   5.821   0.277 -0.2129  0.0683 -0.2044
   49MOL   C30946485   4.003   5.933   0.210 -0.2840  0.3067 -0.2131
   49MOL   C31046486   4.082   6.011   0.097  0.3430  0.2991 -0.6915
   49MOL   O31146487   4.166   6.091   0.125  0.0876  0.0364 -0.0788
   49MOL   H31246488   4.216   5.169   1.316  0.6333 -1.1114 -0.9183
   49MOL   H31346489   4.047   5.279   1.398  0.2448  1.6137 -0.3517
   49MOL   H31446490   4.014   5.353   1.242  0.7866 -1.6320 -2.5503
   49MOL   H31546491   4.029   5.003   1.376  0.8140  2.4667  0.4926
   49MOL   H31646492   3.833   4.844   1.393 -0.7944  0.7124  0.1977
   49MOL   H31746493   3.596   4.937   1.361  0.5008 -0.9930 -0.7768
   49MOL   H31846494   3.569   5.155   1.253 -0.7772 -1.6350 -1.1259
   49MOL   H31946495   3.812   5.417   1.262  1.2234 -0.6126  0.7345
   49MOL   H32046496   3.651   5.369   1.188  0.6518  1.1115 -1.4224
   49MOL   H32146497   3.836   5.278   1.020  1.3408 -0.2396  0.9087
   49MOL   H32246498   3.973   5.363   0.874 -2.2488 -0.3465 -1.9714
   49MOL   H32346499   3.887   5.489   0.800  1.5379  0.3247 -0.5146
   49MOL   H32446500   4.156   5.510   0.939 -1.3817 -0.0419  0.3915
   49MOL   H32546501   4.062   5.652   0.930 -1.9159  0.5814 -1.5013
   49MOL   H32646502   4.199   5.485   0.705 -0.5096 -0.6661  1.2389
   49MOL   H32746503   4.224   5.640   0.753  0.3511 -0.1225 -1.3699
   49MOL   H32846504   4.011   5.513   0.576 -1.6535  0.7180 -1.4217
   49MOL   H32946505   3.967   5.672   0.655  1.3884  1.4929 -0.3014
   49MOL   H33046506   4.177   5.769   0.570  4.2967 -1.4480 -0.8900
   49MOL   H33146507   4.207   5.631   0.457  0.4858  0.9740 -0.9025
   49MOL   H33246508   3.962   5.810   0.465 -1.4170 -2.0449  0.2587
   49MOL   H33346509   3.979   5.670   0.355  0.2157 -1.2084  0.5051
   49MOL   H33446510   4.183   5.873   0.309  1.2603 -2.1401 -0.7282
   49MOL   H33546511   4.121   5.750   0.200 -1.7119  1.1355 -1.7669
   49MOL   H33646512   3.907   5.900   0.170  0.4084 -1.7090 -0.2360
   49MOL   H33746513   3.986   6.001   0.293 -1.9720  0.8274 -0.9586
   49MOL   N33846514   4.059   5.987   7.757  0.0446 -0.0035 -0.0598
   49MOL   C33946515   4.136   6.058   7.652  0.0901 -0.3208 -0.3140
   49MOL   C34046516   4.280   6.013   7.627 -0.9702  0.2162  0.3014
   49MOL   C34146517   4.310   5.871   7.629 -0.2634 -0.3035  0.0499
   49MOL   C34246518   4.438   5.821   7.597  0.0179  0.0680  0.8639
   49MOL   C34346519   4.543   5.915   7.572  0.4634 -0.5865 -0.0662
   49MOL   C34446520   4.514   6.056   7.581  0.5326  0.5464  0.0372
   49MOL   C34546521   4.383   6.106   7.608 -0.1106  0.3106  0.1519
   49MOL   C34646522   4.364   6.259   7.603  0.0304  0.0763  0.3934
   49MOL   N34746523   4.309   6.317   7.729  0.3895  0.7718  0.3468
   49MOL   C34846524   4.256   6.442   7.725  0.3291 -0.2722 -0.1799
   49MOL   O34946525   4.253   6.509   7.623  0.0018 -0.2472 -0.1235
   49MOL   C35046526   4.192   6.499   0.062 -0.2027  0.3664 -0.4017
   49MOL   C35146527   4.035   6.508   0.062  0.0351  0.3248 -0.0023
   49MOL   C35246528   3.964   6.370   0.042  0.0701  0.2158  0.2771
   49MOL   C35346529   3.810   6.371   0.030  0.8241  0.4967  0.1606
   49MOL   C35446530   3.737   6.233   0.015 -1.2476 -0.6110 -0.2518
   49MOL   C35546531   3.598   6.250   7.734  0.7460 -0.8504  0.6892
   49MOL   C35646532   3.534   6.114   7.718 -0.5182  0.4188 -0.0464
   49MOL   C35746533   3.392   6.126   7.665 -0.3760  0.2150  0.4305
   49MOL   C35846534   3.342   5.988   7.621 -0.1412 -0.4479  0.5877
   49MOL   O35946535   3.326   5.911   7.712 -0.2795 -0.9799 -0.6135
   49MOL   H36046536   3.992   5.914   7.734  0.0009  0.5555 -1.6899
   49MOL   H36146537   4.083   6.032   7.561  1.3203 -1.2337 -0.7883
   49MOL   H36246538   4.129   6.165   7.673  0.9015 -0.7280  2.2784
   49MOL   H36346539   4.241   5.792   7.655 -0.5214 -0.1114 -0.0514
   49MOL   H36446540   4.459   5.715   7.598 -0.7816 -0.0985  0.0265
   49MOL   H36546541   4.647   5.891   7.557  1.1548  2.6756 -0.9741
   49MOL   H36646542   4.596   6.124   7.566  0.4419  0.8022  0.6682
   49MOL   H36746543   4.303   6.286   7.517  0.1216 -0.5669  0.1232
   49MOL   H36846544   4.460   6.308   7.588 -0.3513  0.8216  0.3807
   49MOL   H36946545   4.295   6.244   0.006  1.5502 -1.6654 -1.9873
   49MOL   H37046546   4.234   6.596   0.088 -1.2756  0.0392  2.7142
   49MOL   H37146547   4.217   6.442   0.151  2.0047  1.2925 -0.3762
   49MOL   H37246548   4.000   6.570   7.769  0.9652 -0.2857 -0.8814
   49MOL   H37346549   4.000   6.547   0.157 -2.3300  0.9938 -1.1032
   49MOL   H37446550   4.005   6.320   7.744 -1.8168  1.5110 -1.3753
   49MOL   H37546551   3.994   6.307   0.127 -1.9978  0.2454  1.0571
   49MOL   H37646552   3.794   6.436   7.734 -0.5477  0.3966  0.3325
   49MOL   H37746553   3.767   6.426   0.113  1.0249 -1.5969  1.6805
   49MOL   H37846554   3.794   6.183   7.726 -0.0993  0.9283 -0.4292
   49MOL   H37946555   3.742   6.180   0.110 -0.9703 -1.1085 -0.5409
   49MOL   H38046556   3.600   6.304   7.640 -3.3629  0.8309  1.4839
   49MOL   H38146557   3.530   6.308   0.006  1.6255 -0.5237  1.3618
   49MOL   H38246558   3.601   6.044   7.667  1.8844  1.3810  1.7297
   49MOL   H38346559   3.517   6.072   0.027 -4.0926  4.1310  1.0461
   49MOL   H38446560   3.394   6.192   7.578  1.4327 -0.3023  0.0572
   49MOL   H38546561   3.318   6.175   7.727 -0.5894 -0.8248  1.0085
   49MOL   N38646562   3.325   5.971   7.495  0.3079  0.2284  0.1995
   49MOL   C38746563   3.297   5.844   7.433  0.4164 -0.2201 -0.0839
   49MOL   C38846564   3.416   5.812   7.351 -0.1238  0.6778 -0.8653
   49MOL   C38946565   3.405   5.839   7.216  0.9895 -0.4913  0.1458
   49MOL   C39046566   3.514   5.815   7.128 -1.0177 -0.2387 -0.0642
   49MOL   C39146567   3.634   5.760   7.181  0.0691 -0.3260 -0.2803
   49MOL   C39246568   3.646   5.730   7.316 -0.0259 -0.4277  0.3344
   49MOL   C39346569   3.538   5.751   7.401 -0.0184 -0.3243  0.1250
   49MOL   C39446570   3.567   5.731   7.550  0.6443 -0.7824  0.3059
   49MOL   N39546571   3.682   5.657   7.578 -0.0995  0.8468  0.1048
   49MOL   C39646572   3.787   5.705   7.653 -0.2971  0.0754  0.1637
   49MOL   O39746573   3.798   5.823   7.693 -0.5803  0.1366  0.4919
   49MOL   C39846574   3.915   5.624   7.649  0.0710 -0.3929  0.0524
   49MOL   C39946575   3.943   5.555   7.782 -0.1368 -0.5931 -0.2665
   49MOL   C40046576   4.084   5.492   0.003 -0.2434 -0.6877  0.3660
   49MOL   C40146577   4.115   5.370   7.713  0.4887 -0.5807  0.7555
   49MOL   C40246578   4.259   5.325   7.723  0.0858 -0.2065 -0.0846
   49MOL   C40346579   4.293   5.178   7.696  0.0610 -0.9064 -0.0623
   49MOL   C40446580   4.268   5.127   7.550  0.3602  0.2446 -0.1521
   49MOL   C40546581   4.321   4.984   7.522 -0.8413  0.4077 -0.2321
   49MOL   C40646582   4.258   4.870   7.608 -0.5961  0.3365  0.7169
   49MOL   O40746583   4.141   4.885   7.632  0.6313 -0.0566  0.1236
   49MOL   H40846584   3.365   6.043   7.437  0.7166 -0.7623 -0.7561
   49MOL   H40946585   3.278   5.769   7.509 -0.0554 -0.1471 -0.1282
   49MOL   H41046586   3.202   5.844   7.380  0.6977 -0.7101 -0.5989
   49MOL   H41146587   3.314   5.880   7.175  0.8500 -1.0837 -0.1442
   49MOL   H41246588   3.511   5.837   7.022  1.3038  0.9260  0.0741
   49MOL   H41346589   3.718   5.753   7.113 -1.3053 -0.4453 -2.0110
   49MOL   H41446590   3.747   5.708   7.346 -0.3143  0.8062  2.2762
   49MOL   H41546591   3.478   5.686   7.594 -0.2842 -0.3065 -1.0588
   49MOL   H41646592   3.571   5.830   7.596 -2.2994 -1.5201  2.3238
   49MOL   H41746593   3.683   5.564   7.537  0.0125  0.6621  0.5284
   49MOL   H41846594   3.907   5.546   7.574 -2.8132  0.5587 -0.7173
   49MOL   H41946595   3.996   5.696   7.643 -0.5131  0.4245  1.5925
   49MOL   H42046596   3.865   5.479   7.787 -2.0221  1.2031 -1.7875
   49MOL   H42146597   3.917   5.614   0.080 -0.2740 -1.1149  0.0473
   49MOL   H42246598   4.113   5.466   0.105 -1.3423  3.4837  1.8548
   49MOL   H42346599   4.163   5.565   7.772 -1.2587  0.3212  0.0158
   49MOL   H42446600   4.055   5.289   7.755  2.4565 -2.0325  0.8014
   49MOL   H42546601   4.093   5.388   7.607  1.7517  0.7450  0.6975
   49MOL   H42646602   4.316   5.386   7.654 -1.7905  2.4175  0.6189
   49MOL   H42746603   4.304   5.346   0.031  1.8870 -0.2138 -0.8844
   49MOL   H42846604   4.236   5.109   7.758  0.6181 -1.0023  0.3431
   49MOL   H42946605   4.392   5.161   7.736  0.5480 -1.4618 -1.4764
   49MOL   H43046606   4.310   5.187   7.470  0.9338 -0.6623 -0.5344
   49MOL   H43146607   4.162   5.140   7.528  0.7173  0.6834 -1.6881
   49MOL   H43246608   4.429   4.983   7.537 -0.9337  1.9209  0.6818
   49MOL   H43346609   4.304   4.960   7.417  0.7747  1.0272 -0.6646
   49MOL   N43446610   4.337   4.773   7.646  0.8072  0.3945  0.2777
   49MOL   C43546611   4.286   4.661   7.727 -0.5359  0.7995  0.1097
   49MOL   C43646612   4.282   4.682   0.088  0.2082  0.3829 -0.2733
   49MOL   C43746613   4.293   4.808   0.140  0.0181 -0.2291  0.0475
   49MOL   C43846614   4.301   4.840   0.279  0.3790 -0.4286  0.3779
   49MOL   C43946615   4.294   4.728   0.365  0.8665 -0.4814  0.5332
   49MOL   C44046616   4.285   4.596   0.315  0.0932  0.1792  0.3486
   49MOL   C44146617   4.284   4.572   0.174  0.4858  0.4836 -0.2159
   49MOL   C44246618   4.272   4.422   0.131 -0.5728 -0.1627  1.3076
   49MOL   N44346619   4.396   4.345   0.160  0.3003  0.1080 -0.4114
   49MOL   C44446620   4.408   4.214   0.133  0.2160 -0.3633  0.3674
   49MOL   O44546621   4.322   4.149   0.075  0.2226 -0.5942 -0.6713
   49MOL   C44646622   4.530   4.148   0.187 -0.3609  0.4095 -1.0061
   49MOL   C44746623   4.629   4.116   0.074 -0.0338 -0.5316 -0.0932
   49MOL   C44846624   4.683   4.236   7.787  0.5317  0.3190  0.1646
   49MOL   C44946625   4.759   4.184   7.668 -0.2215  0.3210  0.1893
   49MOL   C45046626   4.822   4.300   7.592  0.0212  0.3781 -0.2849
   49MOL   C45146627   4.865   4.262   7.447  0.5363 -0.2607 -0.2887
   49MOL   C45246628   4.956   4.148   7.436 -0.2587 -0.0392 -0.7642
   49MOL   C45346629   5.048   4.152   7.305 -0.1384  1.0048 -0.4821
   49MOL   C45446630   4.980   4.093   7.180 -0.7195 -0.2593 -0.1690
   49MOL   O45546631   4.857   4.077   7.188 -0.0222 -0.0847 -0.1260
   49MOL   H45646632   4.434   4.767   7.621  0.9986 -3.7334  1.6076
   49MOL   H45746633   4.365   4.587   7.721  0.2468  1.7448 -1.7658
   49MOL   H45846634   4.191   4.625   7.687 -1.7218  1.9785  1.7819
   49MOL   H45946635   4.287   4.902   0.087 -4.6623 -1.4408 -1.8329
   49MOL   H46046636   4.309   4.942   0.313 -1.0938 -0.3958  0.6678
   49MOL   H46146637   4.298   4.744   0.472  1.9958  2.2030  0.1253
   49MOL   H46246638   4.291   4.507   0.376  0.4825  0.4820  0.7500
   49MOL   H46346639   4.247   4.429   0.025 -0.6410 -2.5163  1.1508
   49MOL   H46446640   4.199   4.372   0.195 -1.5637  1.4021  1.4369
   49MOL   H46546641   4.468   4.390   0.215 -0.3233 -1.0741  1.4196
   49MOL   H46646642   4.499   4.054   0.232  1.9435  0.0393 -0.1299
   49MOL   H46746643   4.573   4.213   0.263 -0.6924 -0.4450 -0.0751
   49MOL   H46846644   4.573   4.051   0.007 -1.5891 -0.9977  1.6106
   49MOL   H46946645   4.717   4.061   0.108 -1.0901 -1.5003  1.1221
   49MOL   H47046646   4.604   4.300   7.747 -0.2451  0.9247  2.5388
   49MOL   H47146647   4.750   4.302   0.053  2.7385 -1.9674  0.3219
   49MOL   H47246648   4.843   4.126   7.708  1.8953  1.0120 -3.0239
   49MOL   H47346649   4.697   4.129   7.597  0.2597 -0.7064  0.5415
   49MOL   H47446650   4.746   4.376   7.570  0.4392  0.9480  0.2172
   49MOL   H47546651   4.895   4.334   7.666 -0.6033 -0.4071  0.7031
   49MOL   H47646652   4.902   4.356   7.406 -2.3090  1.7499  1.5326
   49MOL   H47746653   4.784   4.239   7.378  0.3278 -0.5060  0.0391
   49MOL   H47846654   5.027   4.157   7.518  1.0597 -0.3708 -1.8565
   49MOL   H47946655   4.900   4.055   7.447 -0.9917  0.1268 -2.8373
   49MOL   H48046656   5.089   4.252   7.286 -0.7687  1.9049  2.6858
   49MOL   H48146657   5.135   4.092   7.332 -0.2308  0.6437 -0.9698
   49MOL   N48246658   5.063   4.061   7.078  0.0837  0.0656 -0.9127
   49MOL   C48346659   5.018   3.982   6.964 -0.2989 -0.9063  0.2314
   49MOL   C48446660   4.997   4.064   6.835  0.1733 -0.1808  0.0625
   49MOL   C48546661   4.959   4.200   6.834  0.1187 -0.2596  0.3725
   49MOL   C48646662   4.951   4.275   6.717 -0.5738  0.8575  0.3544
   49MOL   C48746663   4.955   4.214   6.592  0.0474  0.0777 -0.8264
   49MOL   C48846664   4.998   4.079   6.585  0.0774  0.4094  0.1712
   49MOL   C48946665   5.019   4.005   6.707  0.0031 -0.1159 -0.2069
   49MOL   C49046666   5.067   3.858   6.695  1.2655 -0.7316 -0.0167
   49MOL   N49146667   4.980   3.757   6.754 -0.6787 -0.0913  0.6502
   49MOL   C49246668   5.034   3.632   6.771  0.7184 -0.9073 -0.0972
   49MOL   O49346669   5.154   3.608   6.734 -0.0640  0.1352 -0.1293
   49MOL   C49446670   4.958   3.539   6.864 -0.7208 -0.1833  0.2021
   49MOL   C49546671   5.048   3.477   6.978 -0.1650 -0.2443 -0.1526
   49MOL   C49646672   5.132   3.588   7.061  0.4227 -0.3613  0.2204
   49MOL   C49746673   5.201   3.545   7.188  0.6544 -0.4637  0.0673
   49MOL   C49846674   5.123   3.463   7.287 -0.2879  0.7155 -0.9397
   49MOL   C49946675   5.187   3.437   7.423  0.0008  0.1475  0.9749
   49MOL   C50046676   5.084   3.390   7.523 -0.2905 -0.1035 -0.1459
   49MOL   C50146677   4.984   3.283   7.483 -0.2603 -0.4643 -0.6877
   49MOL   C50246678   4.885   3.240   7.594  0.1289 -0.4770  0.2951
   49MOL   O50346679   4.907   3.286   7.706 -0.0497  0.1107 -0.4779
   49MOL   H50446680   5.161   4.083   7.087 -0.2129  0.0723  3.1985
   49MOL   H50546681   5.109   3.923   6.962 -1.1288 -2.2268  0.8415
   49MOL   H50646682   4.941   3.909   6.989 -1.5032  0.3854  0.3935
   49MOL   H50746683   4.939   4.248   6.929 -0.4007  0.5855 -0.1575
   49MOL   H50846684   4.905   4.371   6.735  0.5945  1.5491 -0.2838
   49MOL   H50946685   4.927   4.282   6.514 -0.6749  2.0239  1.0652
   49MOL   H51046686   5.011   4.033   6.488  0.0830 -0.1856  0.4547
   49MOL   H51146687   5.168   3.863   6.734  0.4719 -2.6759  2.4045
   49MOL   H51246688   5.060   3.830   6.590 -1.5670  1.0210 -0.3631
   49MOL   H51346689   4.881   3.757   6.774 -0.9807 -1.5934 -0.7074
   49MOL   H51446690   4.911   3.456   6.811 -0.7589 -0.3249  0.4529
   49MOL   H51546691   4.867   3.583   6.904 -1.4255 -1.0509 -0.4350
   49MOL   H51646692   5.124   3.406   6.944 -0.1955 -0.6984  0.7148
   49MOL   H51746693   4.983   3.419   7.044 -0.5487 -1.9725 -1.9874
   49MOL   H51846694   5.208   3.627   6.992  0.8767  0.0045  0.9269
   49MOL   H51946695   5.071   3.677   7.079  0.6521  0.3475 -2.1888
   49MOL   H52046696   5.295   3.494   7.167  0.6640 -0.5210  0.2531
   49MOL   H52146697   5.239   3.638   7.230 -0.3795 -0.2155  0.4629
   49MOL   H52246698   5.020   3.499   7.294  0.1600  1.9610 -0.6846
   49MOL   H52346699   5.114   3.365   7.239  1.7974 -0.7567  1.5287
   49MOL   H52446700   5.237   3.524   7.466 -1.3955  2.6609 -2.2349
   49MOL   H52546701   5.258   3.355   7.418 -0.2269 -0.0723  1.3467
   49MOL   H52646702   5.136   3.349   7.610  1.1561  2.7121  0.3883
   49MOL   H52746703   5.038   3.479   7.566  1.7785  0.0404  1.8641
   49MOL   H52846704   5.046   3.200   7.449  2.0297  0.3322  1.3390
   49MOL   H52946705   4.919   3.328   7.409  0.1035 -2.3985 -2.2141
   49MOL   N53046706   4.793   3.152   7.560 -0.4160 -0.1213  0.2650
   49MOL   C53146707   4.718   3.068   7.648  0.3701 -0.1913 -0.0245
   49MOL   C53246708   4.755   2.921   7.655  0.3169  0.4436 -1.2141
   49MOL   C53346709   4.892   2.883   7.641 -0.6692 -0.0469  0.0199
   49MOL   C53446710   4.931   2.750   7.648 -0.7169 -0.0389 -0.9676
   49MOL   C53546711   4.830   2.654   7.673 -0.1077 -0.1781 -0.1927
   49MOL   C53646712   4.696   2.686   7.698  0.8000  0.7041 -0.3685
   49MOL   C53746713   4.659   2.821   7.683  0.1295  0.4720 -0.2155
   49MOL   C53846714   4.510   2.853   7.707  0.3949  0.4472 -0.4199
   49MOL   N53946715   4.425   2.803   7.592 -0.5898  0.1151  0.2450
   49MOL   C54046716   4.298   2.826   7.565 -0.1382  0.1017  0.0150
   49MOL   O54146717   4.226   2.884   7.639  0.1052 -0.1070 -0.5180
   49MOL   C54246718   4.243   2.781   7.432 -0.2656 -0.0683 -0.2856
   49MOL   C54346719   4.100   2.720   7.428  0.4126 -0.3287 -0.1365
   49MOL   C54446720   4.099   2.570   7.405  0.1547  0.4095 -0.7368
   49MOL   C54546721   4.176   2.483   7.517 -0.0065 -0.8552 -0.2981
   49MOL   C54646722   4.140   2.505   7.660 -0.1040  0.3307  0.2190
   49MOL   C54746723   4.259   2.462   7.750  0.6321 -0.3372  0.1347
   49MOL   C54846724   4.226   2.471   0.104 -0.2899  0.1588 -0.6426
   49MOL   C54946725   4.334   2.410   0.197  0.7043  0.7356 -0.8130
   49MOL   C55046726   4.286   2.415   0.340  0.4198  0.2106  0.6914
   49MOL   O55146727   4.179   2.363   0.369  0.2283 -0.4558  0.6817
   49MOL   H55246728   4.766   3.148   7.463 -2.3817 -0.9444  0.8059
   49MOL   H55346729   4.612   3.091   7.633  0.0820  0.3793  2.6195
   49MOL   H55446730   4.729   3.109   7.749  0.3326  0.5645 -0.3267
   49MOL   H55546731   4.977   2.946   7.620 -2.2204  1.3354 -2.3788
   49MOL   H55646732   5.033   2.715   7.637 -1.0249 -0.7209 -1.7177
   49MOL   H55746733   4.860   2.551   7.676 -2.6135 -0.9442 -0.7107
   49MOL   H55846734   4.621   2.610   7.712  4.2975 -2.7494  0.7843
   49MOL   H55946735   4.482   2.956   7.729 -0.4867  0.1726 -0.2322
   49MOL   H56046736   4.480   2.810   0.012  0.6841  0.2504 -0.4175
   49MOL   H56146737   4.478   2.758   7.519  0.0775  0.2959  0.6092
   49MOL   H56246738   4.321   2.715   7.393 -0.4992  0.5411 -1.8057
   49MOL   H56346739   4.228   2.863   7.362 -2.6615  0.8024  1.2072
   49MOL   H56446740   4.064   2.762   7.334  0.3840  1.3737  0.6106
   49MOL   H56546741   4.032   2.748   7.508 -0.0389 -0.0830 -0.5983
   49MOL   H56646742   3.995   2.538   7.417 -0.4369  2.7843  0.7244
   49MOL   H56746743   4.127   2.547   7.302  1.3520  1.4320 -0.6550
   49MOL   H56846744   4.152   2.383   7.481  1.4398 -1.3704  0.1778
   49MOL   H56946745   4.283   2.499   7.506 -0.1253 -0.0558 -0.3580
   49MOL   H57046746   4.111   2.608   7.680  1.5984  0.7721  0.4588
   49MOL   H57146747   4.057   2.442   7.692 -2.2198  3.2665  0.6752
   49MOL   H57246748   4.353   2.515   7.737  1.1540 -0.8782  1.5597
   49MOL   H57346749   4.278   2.355   7.739  0.6972 -0.3472  0.3456
   49MOL   H57446750   4.231   2.575   0.135 -1.3167  0.3100 -0.9606
   49MOL   H57546751   4.129   2.428   0.129  0.3418 -0.3740  0.9142
   49MOL   H57646752   4.433   2.452   0.183  1.7913 -1.1753  0.9304
   49MOL   H57746753   4.348   2.307   0.163  1.6628  0.8129 -0.6560
   49MOL   N57846754   4.358   2.480   0.425 -0.0109 -0.4307 -0.3434
   49MOL   C57946755   4.342   2.474   0.572 -0.0235  0.1791 -0.6268
   49MOL   C58046756   4.417   2.577   0.645  0.6231 -0.5429 -0.1307
   49MOL   C58146757   4.541   2.540   0.695  0.2465  0.5821 -0.7990
   49MOL   C58246758   4.623   2.632   0.765 -0.2654 -0.1118 -0.1873
   49MOL   C58346759   4.582   2.762   0.779 -0.0667  0.4623 -0.1769
   49MOL   C58446760   4.456   2.805   0.732 -0.4663 -0.0567 -0.3455
   49MOL   C58546761   4.374   2.713   0.662  0.7421  0.1926  0.7317
   49MOL   C58646762   4.239   2.765   0.606  0.1310  0.3824 -0.6540
   49MOL   N58746763   4.254   2.792   0.471 -0.3142 -0.0475  0.1157
   49MOL   C58846764   4.267   2.915   0.420 -0.1888  0.3917  0.2909
   49MOL   O58946765   4.247   3.018   0.483 -0.4675 -0.1987 -0.3214
   49MOL   C59046766   4.295   2.914   0.268  0.3757 -0.3926  0.4814
   49MOL   C59146767   4.195   2.998   0.187  0.3141  0.4673 -0.5288
   49MOL   C59246768   4.049   2.946   0.180 -0.8675 -0.4914 -0.2189
   49MOL   C59346769   4.028   2.800   0.158  0.6473  0.1027  0.2536
   49MOL   C59446770   3.885   2.760   0.112 -0.3185 -0.0858  1.0974
   49MOL   C59546771   3.869   2.610   0.076  0.1047 -0.2072  0.0697
   49MOL   C59646772   3.766   2.570   7.755 -0.0011  0.5420 -0.4900
   49MOL   C59746773   3.620   2.620   7.778 -0.9901 -0.3360 -0.2170
   49MOL   C59846774   3.542   2.544   0.090 -0.4403  0.0105  0.5038
   49MOL   O59946775   3.500   2.429   0.070  0.2125  0.0239 -0.2269
   49MOL   H60046776   4.434   2.537   0.390 -0.3013  1.2058  1.6391
   49MOL   H60146777   4.361   2.377   0.619 -0.0975  0.0487 -0.8694
   49MOL   H60246778   4.234   2.485   0.584 -0.3107 -1.9746 -0.9922
   49MOL   H60346779   4.574   2.438   0.680  1.0176  0.5072  1.2919
   49MOL   H60446780   4.712   2.597   0.814 -1.0025  0.8560  1.8977
   49MOL   H60546781   4.649   2.831   0.827 -0.2166  1.6726 -1.6484
   49MOL   H60646782   4.420   2.902   0.759  0.4159 -0.5092  2.6388
   49MOL   H60746783   4.209   2.847   0.672 -1.1606 -0.6110  0.0241
   49MOL   H60846784   4.162   2.690   0.622 -0.6122  1.8147  3.1532
   49MOL   H60946785   4.267   2.716   0.406  3.7112  2.3670 -2.0981
   49MOL   H61046786   4.317   2.815   0.228  2.1886 -0.3468  1.3353
   49MOL   H61146787   4.389   2.968   0.260  0.3102 -0.4988 -1.0806
   49MOL   H61246788   4.232   3.014   0.086 -0.0787 -1.3497 -0.9809
   49MOL   H61346789   4.202   3.097   0.233 -1.1206  1.3376 -2.1249
   49MOL   H61446790   4.003   2.975   0.274 -0.3295 -0.9633  0.1923
   49MOL   H61546791   3.997   3.008   0.107  1.5070  0.8307 -0.8431
   49MOL   H61646792   4.105   2.768   0.087  0.4875  0.4090 -0.0623
   49MOL   H61746793   4.040   2.752   0.255 -0.2447  0.5740  0.6032
   49MOL   H61846794   3.817   2.784   0.194  0.7703 -0.0124  2.0069
   49MOL   H61946795   3.860   2.829   0.032  2.6563 -0.2991 -0.0672
   49MOL   H62046796   3.859   2.560   0.172  2.6110  2.1132  1.6309
   49MOL   H62146797   3.966   2.577   0.040  0.7677  1.3658  0.3841
   49MOL   H62246798   3.797   2.626   7.667  1.5117 -0.8301 -0.8441
   49MOL   H62346799   3.772   2.466   7.723  0.2638  0.4357 -0.1087
   49MOL   H62446800   3.614   2.725   0.013 -1.6159 -0.8486  1.8469
   49MOL   H62546801   3.551   2.611   7.693  0.1347 -1.8784 -0.9919
   49MOL   N62646802   3.515   2.614   0.203  0.6514  0.2243  0.7653
   49MOL   C62746803   3.441   2.551   0.311 -0.8300 -0.5152  0.5145
   49MOL   C62846804   3.298   2.600   0.319 -0.1520 -0.1828 -0.1614
   49MOL   C62946805   3.273   2.738   0.339  0.3789  0.3214 -0.4930
   49MOL   C63046806   3.149   2.786   0.352  0.2362 -0.2750 -0.1019
   49MOL   C63146807   3.043   2.698   0.359  0.8347 -0.0845  0.5046
   49MOL   C63246808   3.054   2.562   0.339  0.1812 -0.3273  0.1438
   49MOL   C63346809   3.183   2.512   0.318 -0.2950  0.3816 -0.7156
   49MOL   C63446810   3.203   2.357   0.309  0.1623 -0.3332 -0.2962
   49MOL   N63546811   3.265   2.318   0.186 -0.0651 -0.0483  0.0756
   49MOL   C63646812   3.232   2.208   0.118 -0.0026  0.4675 -0.2616
   49MOL   O63746813   3.152   2.124   0.162 -0.1076  0.4579 -0.0476
   49MOL   C63846814   3.304   2.183   7.782  0.0101 -0.2542 -0.0827
   49MOL   C63946815   3.319   2.032   7.735 -1.2216  0.0373 -0.1772
   49MOL   C64046816   3.189   1.961   7.688 -0.4216 -0.4613  0.3919
   49MOL   C64146817   3.220   1.822   7.630 -0.4601  0.0773 -0.6010
   49MOL   C64246818   3.296   1.723   7.722  0.0948 -0.0681  0.0662
   49MOL   C64346819   3.337   1.586   7.667 -0.8357 -1.3659  0.1104
   49MOL   C64446820   3.422   1.491   7.759 -0.1900 -0.1447  0.8061
   49MOL   C64546821   3.434   1.343   7.709  0.0496 -0.0560 -0.5659
   49MOL   C64646822   3.549   1.321   7.617 -0.4066 -0.3740 -0.1827
   49MOL   O64746823   3.662   1.323   7.662 -0.5861  1.0433  0.0864
   49MOL   H64846824   3.559   2.705   0.207 -1.0778  1.1884 -1.4324
   49MOL   H64946825   3.499   2.579   0.399  2.0965  0.6569 -1.6780
   49MOL   H65046826   3.452   2.443   0.321  2.4764 -0.6125 -2.9456
   49MOL   H65146827   3.357   2.807   0.337 -0.1682  1.0224  0.2797
   49MOL   H65246828   3.138   2.893   0.356 -0.4940 -0.3987  1.3125
   49MOL   H65346829   2.952   2.751   0.384  1.6458  1.5274  0.1407
   49MOL   H65446830   2.971   2.494   0.350 -0.9020  0.7592 -1.2624
   49MOL   H65546831   3.105   2.309   0.318  0.1034  0.1747  2.0559
   49MOL   H65646832   3.256   2.325   0.398  2.0769  1.0415 -0.9303
   49MOL   H65746833   3.350   2.367   0.162 -0.8197  0.4743 -1.6199
   49MOL   H65846834   3.401   2.225   7.755 -0.9942  1.1373 -1.6081
   49MOL   H65946835   3.245   2.239   7.710  0.3622  1.4330  0.9124
   49MOL   H66046836   3.370   1.980   0.026 -1.2880 -0.2630 -0.3310
   49MOL   H66146837   3.398   2.032   7.660 -0.4655 -1.2179  0.6179
   49MOL   H66246838   3.126   1.958   7.777 -1.1736 -0.6123 -0.1397
   49MOL   H66346839   3.137   2.018   7.611  0.6457 -2.1755 -1.6305
   49MOL   H66446840   3.128   1.774   7.600  0.3395 -1.0614 -1.2756
   49MOL   H66546841   3.285   1.830   7.543  1.1924 -0.4400  0.5552
   49MOL   H66646842   3.386   1.772   7.760  0.8318 -0.1597 -1.5487
   49MOL   H66746843   3.233   1.715   0.022 -0.6660  2.5576 -0.1998
   49MOL   H66846844   3.389   1.600   7.572 -1.7986  0.2237 -0.2139
   49MOL   H66946845   3.246   1.533   7.640 -0.6041 -1.1160 -1.2312
   49MOL   H67046846   3.518   1.540   7.777 -0.5195  0.4360  0.9684
   49MOL   H67146847   3.377   1.491   0.069  1.5418 -0.4467  1.6169
   49MOL   H67246848   3.333   1.314   7.680 -0.0783 -2.2024  1.7975
   49MOL   H67346849   3.444   1.271   0.001 -3.1599  0.2078  0.1260
   49MOL   N67446850   3.513   1.299   7.492  0.4289  0.8950  0.0691
   49MOL   C67546851   3.615   1.274   7.383 -0.2331  0.4018 -0.4322
   49MOL   C67646852   3.553   1.261   7.252 -0.1321 -0.5686  0.1190
   49MOL   C67746853   3.553   1.380   7.171 -1.0870 -0.0903 -0.3895
   49MOL   C67846854   3.512   1.379   7.039  0.0915  0.2659  0.4219
   49MOL   C67946855   3.466   1.254   6.979 -0.5321 -0.3234 -0.3252
   49MOL   C68046856   3.449   1.141   7.064  0.2791 -0.1413  0.5008
   49MOL   C68146857   3.497   1.145   7.199 -0.3629  0.5206 -0.2729
   49MOL   C68246858   3.489   1.017   7.277  0.5532  0.5350 -0.0903
   49MOL   N68346859   3.398   1.025   7.388  0.4040 -0.8036  0.1104
   49MOL   C68446860   3.381   0.931   7.483 -0.3426 -0.5955  0.1926
   49MOL   O68546861   3.414   0.815   7.467  0.3209 -0.9415 -0.2616
   49MOL   C68646862   3.303   0.970   7.608  0.6015 -0.3275  0.2054
   49MOL   C68746863   3.379   0.957   7.743 -0.4086 -0.1132  0.3051
   49MOL   C68846864   3.279   0.990   0.070  0.2738  0.4571 -0.4115
   49MOL   C68946865   3.355   1.019   0.205  0.7233  0.1411  0.3482
   49MOL   C69046866   3.261   1.070   0.319  0.2114  0.0680  0.5950
   49MOL   C69146867   3.240   1.212   0.316 -1.0298  0.3834  0.1138
   49MOL   C69246868   3.154   1.281   0.435  0.1499 -0.3093  0.6157
   49MOL   C69346869   3.171   1.432   0.438 -0.2467  0.1760 -0.8880
   49MOL   C69446870   3.309   1.471   0.474  0.2793 -0.0986 -1.0608
   49MOL   O69546871   3.360   1.434   0.579 -0.8268  0.0448 -0.3086
   49MOL   H69646872   3.419   1.309   7.458  1.0970 -0.9296 -2.4915
   49MOL   H69746873   3.684   1.190   7.389 -0.3259  0.3403 -0.2110
   49MOL   H69846874   3.689   1.354   7.388 -1.0904  1.1323  0.9906
   49MOL   H69946875   3.605   1.469   7.203 -2.1555  0.6484 -0.7080
   49MOL   H70046876   3.519   1.469   6.980  1.3415  1.2543  2.0531
   49MOL   H70146877   3.438   1.253   6.875  0.7925 -1.5969 -0.6934
   49MOL   H70246878   3.406   1.048   7.031 -1.0455  0.1790  1.3265
   49MOL   H70346879   3.585   0.982   7.314  0.2616 -0.8650 -0.6162
   49MOL   H70446880   3.465   0.936   7.209 -1.3164  1.3700 -0.4646
   49MOL   H70546881   3.331   1.101   7.385  2.2924  0.8290 -2.4786
   49MOL   H70646882   3.213   0.909   7.608  1.2939 -1.4428 -1.9700
   49MOL   H70746883   3.277   1.076   7.609  1.2577 -0.1591  0.2895
   49MOL   H70846884   3.463   1.025   7.743 -0.1374 -0.4349  1.7583
   49MOL   H70946885   3.415   0.855   7.756  0.1518  0.2008  1.2502
   49MOL   H71046886   3.222   1.080   0.047 -1.2289 -0.9729 -2.5008
   49MOL   H71146887   3.214   0.903   0.079 -0.8522  1.0280 -2.6824
   49MOL   H71246888   3.401   0.927   0.241  0.7581 -0.7700 -1.9329
   49MOL   H71346889   3.439   1.088   0.199 -0.5199  1.5819 -1.0566
   49MOL   H71446890   3.168   1.013   0.315 -0.2502  0.8029  0.8483
   49MOL   H71546891   3.311   1.050   0.414  1.9728  1.6894  0.0258
   49MOL   H71646892   3.195   1.226   0.218  1.9095 -0.5918 -1.4162
   49MOL   H71746893   3.338   1.259   0.311 -0.8235 -0.0853 -0.1796
   49MOL   H71846894   3.184   1.239   0.531  1.5026 -1.1596 -0.1624
   49MOL   H71946895   3.047   1.261   0.428  0.2422 -0.7053  0.2751
   49MOL   H72046896   3.100   1.482   0.503  1.3730  0.5379  0.6509
   49MOL   H72146897   3.149   1.466   0.336  1.2800  2.5939 -0.4514
   49MOL   N72246898   3.381   1.535   0.387  0.5462 -0.7629  0.1372
   49MOL   C72346899   3.524   1.573   0.409 -0.1838 -0.3954 -0.7500
   49MOL   C72446900   3.578   1.670   0.309  0.5509  0.3493 -0.2599
   49MOL   C72546901   3.509   1.793   0.299  0.3629 -0.0467 -0.8490
   49MOL   C72646902   3.549   1.893   0.211 -0.7128  0.4386 -0.3318
   49MOL   C72746903   3.661   1.864   0.127  0.6878 -0.0132  0.0110
   49MOL   C72846904   3.731   1.744   0.140  0.7586 -0.5974  0.5145
   49MOL   C72946905   3.687   1.642   0.227 -0.1281  0.8165  0.1034
   49MOL   C73046906   3.762   1.509   0.239 -0.1324  0.0404 -0.7975
   49MOL   N73146907   3.829   1.466   0.124  0.3704  0.5617 -0.0208
   49MOL   C73246908   3.952   1.497   0.084  0.1574  0.3676 -0.4735
   49MOL   O73346909   4.025   1.555   0.158  0.0115 -0.3178  0.2319
   49MOL   C73446910   3.987   1.480   7.728  0.5971  0.1127  0.1144
   49MOL   C73546911   3.956   1.604   7.639  0.2796 -0.7185  0.6769
   49MOL   C73646912   3.824   1.594   7.561  0.5602 -0.1078 -0.1621
   49MOL   C73746913   3.799   1.721   7.475 -0.0661  0.0019 -0.2414
   49MOL   C73846914   3.665   1.716   7.401  0.3020 -0.2602 -0.8374
   49MOL   C73946915   3.634   1.840   7.327 -0.0468 -0.1551 -0.3301
   49MOL   C74046916   3.735   1.878   7.219 -0.5526 -0.1572 -0.7217
   49MOL   C74146917   3.705   1.995   7.128 -0.5276  0.7190  0.2757
   49MOL   C74246918   3.595   1.970   7.021 -0.6756 -0.7924 -0.4482
   49MOL   O74346919   3.556   1.858   6.990  0.4118  0.5921  0.2812
   49MOL   H74446920   3.342   1.573   0.302  1.9570 -0.8492 -0.5732
   49MOL   H74546921   3.570   1.474   0.411 -1.3394 -0.9410 -1.0951
   49MOL   H74646922   3.525   1.611   0.511  2.7860 -1.4791 -0.3022
   49MOL   H74746923   3.417   1.817   0.351  0.2808  1.0824 -1.5012
   49MOL   H74846924   3.498   1.988   0.213  0.7657  1.2567 -0.8032
   49MOL   H74946925   3.698   1.936   0.055  0.8607  1.4115  1.4981
   49MOL   H75046926   3.819   1.722   0.082  1.3708 -1.9221  1.9148
   49MOL   H75146927   3.713   1.416   0.268 -0.5464  1.0605  1.8911
   49MOL   H75246928   3.826   1.535   0.323  0.7683  0.1071 -1.5029
   49MOL   H75346929   3.771   1.419   0.056 -3.0619  3.8943  0.4138
   49MOL   H75446930   3.936   1.391   7.692 -0.7173  0.7764  0.2815
   49MOL   H75546931   4.091   1.451   7.717  0.4974 -0.9918  1.9118
   49MOL   H75646932   4.037   1.611   7.566  0.3259  0.3274  0.8220
   49MOL   H75746933   3.960   1.697   7.695 -1.5126  0.2709 -0.7971
   49MOL   H75846934   3.810   1.497   7.514 -0.2022  0.6294 -1.4969
   49MOL   H75946935   3.753   1.595   7.644  0.5497 -1.5055 -0.1450
   49MOL   H76046936   3.817   1.810   7.535 -0.4613 -0.9039  1.2534
   49MOL   H76146937   3.880   1.711   7.402  0.7618 -2.1014  0.9279
   49MOL   H76246938   3.663   1.627   7.338  1.6037 -0.7668 -0.1909
   49MOL   H76346939   3.590   1.702   7.479  2.2736 -4.3398  0.4992
   49MOL   H76446940   3.625   1.921   7.399  1.3541 -0.7059  0.4865
   49MOL   H76546941   3.538   1.825   7.278 -0.7186  1.6095  0.4106
   49MOL   H76646942   3.834   1.906   7.255 -1.1298  2.2259 -0.9058
   49MOL   H76746943   3.745   1.781   7.171 -0.2849  0.4582 -1.9365
   49MOL   H76846944   3.681   2.081   7.189  2.7036  0.2299  2.2957
   49MOL   H76946945   3.793   2.024   7.071 -0.2479  0.0784  0.3768
   49MOL   N77046946   3.544   2.080   6.972  0.1973 -0.1541 -0.1410
   49MOL   C77146947   3.429   2.073   6.885  0.2627 -0.4233 -0.5673
   49MOL   C77246948   3.403   2.199   6.798 -0.3436 -0.8192 -0.2294
   49MOL   C77346949   3.498   2.260   6.717 -0.1837  0.2880  0.1691
   49MOL   C77446950   3.471   2.374   6.637 -0.5382  0.4576 -0.3519
   49MOL   C77546951   3.340   2.430   6.641 -0.2005 -0.0807  0.2575
   49MOL   C77646952   3.248   2.386   6.731 -0.6125 -0.1136  0.5775
   49MOL   C77746953   3.275   2.269   6.809 -0.9663 -0.8428 -0.1483
   49MOL   C77846954   3.168   2.227   6.910 -0.2439 -0.0186 -0.0864
   49MOL   N77946955   3.193   2.261   7.048  0.5307  0.3206 -0.0648
   49MOL   C78046956   3.203   2.175   7.148 -0.9327  0.6549  0.9457
   49MOL   O78146957   3.205   2.051   7.137 -0.2721  0.6418 -0.1128
   49MOL   C78246958   3.210   2.228   7.292  0.5477 -0.0530  0.4174
   49MOL   C78346959   3.340   2.180   7.371  0.2385 -1.0392 -0.0403
   49MOL   C78446960   3.458   2.270   7.351 -0.1541 -0.4566  0.6205
   49MOL   C78546961   3.454   2.418   7.385 -0.0188  0.0242  0.1326
   49MOL   C78646962   3.563   2.506   7.324  1.1405 -0.3290 -0.2199
   49MOL   C78746963   3.555   2.514   7.168 -0.7021 -0.0316  0.2824
   49MOL   C78846964   3.432   2.581   7.118  0.0854  0.6463  0.0653
   49MOL   C78946965   3.406   2.592   6.964  0.1982  0.6841 -0.5289
   49MOL   C79046966   3.500   2.695   6.905  0.1413  0.0993  0.2563
   49MOL   O79146967   3.513   2.811   6.949  0.3347  0.4371  0.2071
   49MOL   H79246968   3.597   2.165   6.970 -0.0601  0.0299  0.9446
   49MOL   H79346969   3.438   1.990   6.815  2.1626  0.8816 -1.9274
   49MOL   H79446970   3.341   2.058   6.948  0.8447 -0.1840  0.3080
   49MOL   H79546971   3.599   2.223   6.720 -0.0627  0.6171  0.1896
   49MOL   H79646972   3.550   2.420   6.579 -0.2090  2.0334  1.3040
   49MOL   H79746973   3.316   2.517   6.581 -3.1670  0.2625  1.8581
   49MOL   H79846974   3.149   2.427   6.740 -1.7921 -2.4047 -1.6443
   49MOL   H79946975   3.128   2.131   6.878  1.6489 -0.1765 -2.1594
   49MOL   H80046976   3.081   2.287   6.884 -0.0539 -0.1574 -1.0632
   49MOL   H80146977   3.172   2.358   7.066 -2.8105 -0.3806  0.1507
   49MOL   H80246978   3.121   2.182   7.334 -0.6568  0.8941 -1.0326
   49MOL   H80346979   3.190   2.335   7.293 -0.0238 -0.1263 -1.3384
   49MOL   H80446980   3.374   2.078   7.356  1.3850 -0.6655 -0.0094
   49MOL   H80546981   3.315   2.178   7.477 -0.0337 -0.9563 -0.1025
   49MOL   H80646982   3.488   2.264   7.247  3.7454  3.8145  1.3415
   49MOL   H80746983   3.539   2.213   7.396 -0.3735 -2.0480 -0.9669
   49MOL   H80846984   3.356   2.463   7.366 -0.8290 -1.4716  0.7130
   49MOL   H80946985   3.456   2.417   7.494 -1.7758  1.9541  0.2232
   49MOL   H81046986   3.557   2.608   7.362  1.8889  0.9719 -3.3997
   49MOL   H81146987   3.658   2.460   7.351  0.3953 -1.9848 -0.3743
   49MOL   H81246988   3.568   2.414   7.126  0.5019  0.5528 -0.7639
   49MOL   H81346989   3.642   2.564   7.126  0.3720 -1.2813  0.9903
   49MOL   H81446990   3.410   2.675   7.169 -1.4429  0.4385 -0.1775
   49MOL   H81546991   3.348   2.516   7.144  0.3697 -0.8522 -2.6113
   49MOL   H81646992   3.301   2.615   6.942 -0.5194 -2.0921 -0.1620
   49MOL   H81746993   3.419   2.495   6.917 -1.3277  0.2638 -0.1032
   49MOL   N81846994   3.562   2.654   6.795 -0.1148  0.2758 -0.0768
   49MOL   C81946995   3.677   2.720   6.736 -0.0333 -1.2034  0.2774
   49MOL   C82046996   3.637   2.810   6.619  0.1314 -0.0732 -0.1476
   49MOL   C82146997   3.601   2.740   6.497  0.0588 -0.5437  0.3247
   49MOL   C82246998   3.557   2.812   6.387  0.2405 -0.0892 -0.1444
   49MOL   C82346999   3.558   2.949   6.389 -0.8188  0.7108  0.6238
   49MOL   C82447000   3.597   3.022   6.500 -0.3341  0.0607 -0.8664
   49MOL   C82547001   3.634   2.951   6.621 -0.2974  0.2539 -0.3407
   49MOL   C82647002   3.679   3.035   6.743  0.0217  0.6262 -0.2823
   49MOL   N82747003   3.798   3.116   6.713 -0.1357  0.5285  0.6753
   49MOL   C82847004   3.831   3.233   6.768  0.5783  0.4598 -0.9490
   49MOL   O82947005   3.760   3.270   6.858  0.1670  0.1278 -0.0326
   49MOL   C83047006   3.951   3.301   6.714 -0.3513  0.0698  0.1472
   49MOL   C83147007   3.978   3.443   6.764  0.6575 -0.5782 -0.1982
   49MOL   C83247008   4.098   3.522   6.699 -0.9473  0.3408  0.3252
   49MOL   C83347009   4.123   3.658   6.757 -0.2425 -0.7235 -0.4846
   49MOL   C83447010   4.152   3.650   6.903  0.2674 -0.0075 -0.6490
   49MOL   C83547011   4.227   3.779   6.957 -0.7400 -0.2177 -0.9846
   49MOL   C83647012   4.296   3.758   7.093 -0.1223 -0.3195  0.0448
   49MOL   C83747013   4.197   3.730   7.205  0.6210 -0.0097 -0.4239
   49MOL   C83847014   4.254   3.734   7.346 -0.7914 -0.3718 -0.3108
   49MOL   O83947015   4.372   3.700   7.363  0.2575  0.5981  0.6352
   49MOL   H84047016   3.531   2.559   6.782 -0.9055  0.5339 -0.0907
   49MOL   H84147017   3.725   2.772   6.819  1.4912 -2.3039  0.1020
   49MOL   H84247018   3.749   2.644   6.707  1.3422  0.4572 -0.6997
   49MOL   H84347019   3.611   2.633   6.484  0.5229 -0.3518 -0.9740
   49MOL   H84447020   3.529   2.754   6.301  0.8603  0.2702 -0.5913
   49MOL   H84547021   3.519   2.997   6.300  1.9717  1.1602 -0.3876
   49MOL   H84647022   3.598   3.130   6.504  1.1768  0.0298  0.5604
   49MOL   H84747023   3.694   2.980   6.836  3.2529  0.8427 -0.6278
   49MOL   H84847024   3.598   3.107   6.757 -1.7583 -1.7334  1.8973
   49MOL   H84947025   3.848   3.088   6.630 -2.9960 -0.5184 -0.7478
   49MOL   H85047026   3.932   3.306   6.607  0.2009  1.6764  0.1157
   49MOL   H85147027   4.042   3.242   6.722 -1.0777 -1.0231  0.4753
   49MOL   H85247028   3.982   3.440   6.873 -1.9976 -0.6109 -0.0759
   49MOL   H85347029   3.887   3.498   6.741  0.2115 -1.2424 -0.0567
   49MOL   H85447030   4.072   3.528   6.593 -2.2255 -0.9100  0.5581
   49MOL   H85547031   4.183   3.453   6.696 -0.1660  1.2844  0.3183
   49MOL   H85647032   4.204   3.700   6.698  1.4947 -1.4115  1.3744
   49MOL   H85747033   4.035   3.720   6.740  0.9751  1.3631  0.6253
   49MOL   H85847034   4.058   3.649   6.958  0.0416 -0.5757 -1.0390
   49MOL   H85947035   4.214   3.561   6.916 -0.2736 -0.6944 -2.5505
   49MOL   H86047036   4.163   3.867   6.963  0.1693  0.3913  0.0471
   49MOL   H86147037   4.304   3.819   6.891 -0.5171  0.3517 -0.3805
   49MOL   H86247038   4.353   3.850   7.109  0.3264 -0.6184  0.1674
   49MOL   H86347039   4.359   3.670   7.077 -0.4868 -0.5186 -0.3076
   49MOL   H86447040   4.111   3.798   7.200  2.2843  2.0279 -2.4731
   49MOL   H86547041   4.147   3.636   7.181 -1.3355  1.2847 -1.6552
   49MOL   N86647042   4.189   3.788   7.449  0.3795 -0.5437  0.1670
   49MOL   C86747043   4.228   3.811   7.588 -0.0962 -0.8725  0.6389
   49MOL   C86847044   4.252   3.682   7.663  0.5055 -0.6788 -0.5101
   49MOL   C86947045   4.215   3.558   7.610 -0.8454 -0.6080  0.1049
   49MOL   C87047046   4.248   3.438   7.682  0.3843  0.3707  1.0478
   49MOL   C87147047   4.313   3.440   0.018 -0.3787 -0.1939 -0.0236
   49MOL   C87247048   4.345   3.565   0.074 -0.1306 -0.3454 -0.3017
   49MOL   C87347049   4.316   3.680   0.001  0.6828 -0.3949 -0.3725
   49MOL   C87447050   4.360   3.811   0.075 -0.2704 -0.4011  0.3686
   49MOL   N87547051   4.246   3.881   0.135  0.5289  0.0545 -1.1286
   49MOL   C87647052   4.160   3.840   0.236 -0.4532  0.5988  1.0311
   49MOL   O87747053   4.177   3.740   0.300 -0.1641  0.3148 -0.2287
   49MOL   C87847054   4.047   3.935   0.269  0.5498  0.2485 -0.1069
   49MOL   C87947055   3.917   3.894   0.193 -0.3589  0.6135 -0.1091
   49MOL   C88047056   3.802   3.974   0.238 -0.2458 -0.0400 -0.3770
   49MOL   C88147057   3.690   3.940   0.134 -0.8146 -0.1780  0.1257
   49MOL   C88247058   3.560   4.010   0.172 -0.8606  0.4408  0.3743
   49MOL   C88347059   3.457   4.006   0.064  0.6139 -0.0388  0.0962
   49MOL   C88447060   3.320   4.068   0.118  0.2133 -0.3286  0.3707
   49MOL   C88547061   3.222   4.072   7.789 -0.1296 -0.6640  0.1702
   49MOL   C88647062   3.078   4.074   0.028  0.2221 -0.4823  0.5939
   49MOL   O88747063   3.042   4.132   0.130  0.3099 -0.3337 -0.5960
   49MOL   H88847064   4.095   3.825   7.437  0.7406  0.0563 -0.8534
   49MOL   H88947065   4.321   3.868   7.588 -1.2566  1.0933  1.1171
   49MOL   H89047066   4.151   3.873   7.635  0.8882  0.9379 -0.0833
   49MOL   H89147067   4.169   3.551   7.512  0.6960 -0.2014 -0.6565
   49MOL   H89247068   4.230   3.348   7.624 -1.5947  0.8343  0.9076
   49MOL   H89347069   4.348   3.348   0.062 -0.2970 -0.2113 -0.1247
   49MOL   H89447070   4.398   3.569   0.168 -0.1146 -1.1778 -0.2757
   49MOL   H89547071   4.407   3.878   0.003  0.4078 -0.7454  0.4888
   49MOL   H89647072   4.437   3.789   0.149  0.1117 -0.8529 -0.1645
   49MOL   H89747073   4.240   3.977   0.106 -1.8288  0.7295  1.4381
   49MOL   H89847074   4.074   4.039   0.254 -0.6923  0.4282 -1.3274
   49MOL   H89947075   4.025   3.921   0.375  0.8558  1.6116  0.1370
   49MOL   H90047076   3.912   3.793   0.233  0.6903  1.0136  1.0640
   49MOL   H90147077   3.938   3.897   0.086 -0.2072  1.7304 -0.0586
   49MOL   H90247078   3.769   3.963   0.341 -2.2451 -0.1584 -1.0067
   49MOL   H90347079   3.828   4.078   0.219  0.1413 -0.3917 -1.8807
   49MOL   H90447080   3.732   3.966   0.036  0.1890  1.2857  0.9223
   49MOL   H90547081   3.669   3.833   0.135 -1.2679 -0.0760  1.8299
   49MOL   H90647082   3.527   3.962   0.264 -0.3460  1.8629  1.3248
   49MOL   H90747083   3.571   4.116   0.194 -1.7686  0.7120 -0.4282
   49MOL   H90847084   3.458   3.900   0.037  1.0391 -0.5353  1.9287
   49MOL   H90947085   3.501   4.052   7.767  1.0938 -2.5159 -1.0249
   49MOL   H91047086   3.273   4.010   0.198  0.9025  0.6061  1.4595
   49MOL   H91147087   3.356   4.166   0.150 -0.8719  0.1383  0.1757
   49MOL   H91247088   3.244   4.133   7.701 -1.5057  1.4329  1.2535
   49MOL   H91347089   3.249   3.981   7.735  1.2534 -1.2220  1.7769
   49MOL   N91447090   2.997   4.018   7.731  0.8380 -0.4651 -0.1472
   49MOL   C91547091   2.854   4.006   7.737  0.9752 -0.1377  0.0786
   49MOL   C91647092   2.786   4.050   7.606  0.2783 -0.1467 -0.3885
   49MOL   C91747093   2.697   4.156   7.613  0.2103 -0.0737  0.0194
   49MOL   C91847094   2.638   4.209   7.497 -0.3800 -0.7353 -0.1837
   49MOL   C91947095   2.656   4.148   7.377 -0.4291  0.0288  0.1487
   49MOL   C92047096   2.754   4.041   7.365  0.5505  0.0936 -0.7900
   49MOL   C92147097   2.815   3.991   7.486 -0.3935 -0.8919 -0.3297
   49MOL   C92247098   2.898   3.870   7.463 -0.1264  0.1845 -0.3730
   49MOL   N92347099   3.007   3.890   7.369  0.0638 -0.0266  0.8792
   49MOL   C92447100   3.133   3.894   7.422 -0.6005 -0.7331  0.3179
   49MOL   O92547101   3.163   3.879   7.539  0.0602 -0.2171 -0.2147
   49MOL   C92647102   3.239   3.929   7.318 -0.4805  0.5841  0.8567
   49MOL   C92747103   3.389   3.901   7.367 -0.3989 -0.4932 -0.1567
   49MOL   C92847104   3.422   3.755   7.383  0.2118  0.3554 -0.5852
   49MOL   C92947105   3.554   3.719   7.451 -0.4445  0.6601 -0.1454
   49MOL   C93047106   3.571   3.562   7.470  1.0533  0.8646 -0.6197
   49MOL   C93147107   3.702   3.524   7.537 -0.4032 -0.0941  0.2967
   49MOL   C93247108   3.723   3.567   7.682  0.0199 -0.0103 -0.5994
   49MOL   C93347109   3.870   3.580   7.722 -0.5423  0.6099  0.1416
   49MOL   C93447110   3.921   3.472   0.032  0.1989  0.3536  0.2044
   49MOL   O93547111   3.931   3.353   7.780 -0.1302 -0.1870  0.1673
   49MOL   H93647112   3.034   3.969   7.651  0.1192 -1.6031  0.2036
   49MOL   H93747113   2.828   3.901   7.750  1.9621 -0.8014 -2.9897
   49MOL   H93847114   2.802   4.060   0.027 -0.6507 -2.1639  0.4353
   49MOL   H93947115   2.679   4.197   7.711  3.2553  0.8239  0.2647
   49MOL   H94047116   2.571   4.294   7.505 -1.2999 -1.1968 -2.4863
   49MOL   H94147117   2.623   4.197   7.286  1.0092  0.1651 -0.3062
   49MOL   H94247118   2.765   3.994   7.269  0.9363  0.9855 -1.1950
   49MOL   H94347119   2.832   3.800   7.413  0.3318 -0.9777  0.6091
   49MOL   H94447120   2.926   3.811   7.551 -1.0233 -0.3504 -0.4446
   49MOL   H94547121   2.991   3.898   7.270  2.0500  1.4443  0.6294
   49MOL   H94647122   3.233   4.035   7.292  1.7954  0.6798  0.6337
   49MOL   H94747123   3.216   3.870   7.229  0.1707  1.2056  0.2702
   49MOL   H94847124   3.397   3.945   7.467 -0.9121  1.2784 -0.8674
   49MOL   H94947125   3.469   3.941   7.305 -1.1076  1.0200 -0.1242
   49MOL   H95047126   3.340   3.702   7.431  0.7827  0.1131  0.1404
   49MOL   H95147127   3.428   3.713   7.282 -0.7074  0.1650 -0.5651
   49MOL   H95247128   3.637   3.766   7.397  0.5302 -2.2039 -1.2383
   49MOL   H95347129   3.552   3.767   7.549 -0.5925  1.8855 -0.7289
   49MOL   H95447130   3.575   3.512   7.373  1.6992  0.5137 -0.4148
   49MOL   H95547131   3.489   3.516   7.526  1.4455  1.2627  0.2979
   49MOL   H95647132   3.705   3.415   7.541  1.2094 -0.0271  1.5441
   49MOL   H95747133   3.783   3.553   7.471 -1.8456  1.9402 -0.6588
   49MOL   H95847134   3.671   3.498   7.749  0.6951 -0.4942 -0.5741
   49MOL   H95947135   3.680   3.665   7.699  2.5356  1.3248 -1.7347
   49MOL   H96047136   3.895   3.679   7.759  0.7830 -0.2974  1.7420
   49MOL   H96147137   3.930   3.574   7.631 -4.1367  0.1382 -2.2903
   49MOL   H96247138   3.952   3.499   0.133  2.0363 -5.1141  1.3148
   50MOL     N147139   4.472   4.809   5.104  0.2989 -0.1899  0.2328
   50MOL     C247140   4.402   4.842   5.223  0.0494 -0.5178  0.2205
   50MOL     C347141   4.442   4.989   5.271  0.4166  0.0606  0.7047
   50MOL     C447142   4.561   5.053   5.220 -0.3740  0.4686 -0.0808
   50MOL     C547143   4.587   5.191   5.243 -0.8159 -0.1664  0.4359
   50MOL     C647144   4.517   5.257   5.338  0.2604  0.1258 -0.5415
   50MOL     C747145   4.405   5.191   5.402 -0.1283  0.2762  1.0656
   50MOL     C847146   4.368   5.062   5.367  0.2396 -0.0722  0.8958
   50MOL     C947147   4.248   4.996   5.427 -0.3375 -0.6342  0.0507
   50MOL    N1047148   4.181   5.076   5.524  0.2926 -0.0016 -0.3404
   50MOL    C1147149   4.050   5.112   5.523  0.1980 -0.3468 -0.1344
   50MOL    O1247150   3.985   5.088   5.422 -0.0199 -0.0582 -0.6755
   50MOL    C1347151   3.990   5.183   5.642 -0.6134 -0.3381 -0.4227
   50MOL    C1447152   3.843   5.141   5.680  0.3708 -0.1218 -0.3961
   50MOL    C1547153   3.788   5.199   5.816  0.5520  0.7796 -0.1341
   50MOL    C1647154   3.648   5.160   5.863  0.3875 -0.1134  1.0017
   50MOL    C1747155   3.638   5.025   5.936  0.3090  0.4076 -0.4865
   50MOL    C1847156   3.503   5.026   6.014  0.2989  0.0742 -0.2462
   50MOL    C1947157   3.469   4.877   6.052 -0.3721 -0.0730 -0.2742
   50MOL    C2047158   3.373   4.867   6.175  0.3517 -0.2192 -0.3466
   50MOL    C2147159   3.227   4.877   6.133 -0.6564  0.1928  0.3233
   50MOL    O2247160   3.192   4.837   6.019 -0.1260  0.2016  0.1160
   50MOL    H2347161   4.503   4.896   5.063 -0.6200 -0.6746 -1.5264
   50MOL    H2447162   4.298   4.843   5.189  0.2145 -1.6045 -0.3532
   50MOL    H2547163   4.416   4.765   5.299 -0.9542 -0.6291  0.3020
   50MOL    H2647164   4.628   5.005   5.149  1.2174  0.5274  1.3250
   50MOL    H2747165   4.675   5.235   5.199 -1.4848  0.4048 -0.3341
   50MOL    H2847166   4.533   5.359   5.369 -0.1985  0.0859 -0.1651
   50MOL    H2947167   4.350   5.246   5.477 -2.9505 -1.3112  0.2693
   50MOL    H3047168   4.280   4.897   5.461 -3.1318 -1.5788  0.0033
   50MOL    H3147169   4.180   4.980   5.344 -1.3422 -1.1780  0.9810
   50MOL    H3247170   4.246   5.095   5.599  2.1684 -0.2575 -1.8620
   50MOL    H3347171   3.992   5.291   5.625 -0.5332 -0.2839 -0.0673
   50MOL    H3447172   4.054   5.163   5.728  0.0103  2.2421 -0.2426
   50MOL    H3547173   3.839   5.032   5.684  2.6448 -0.1668  1.7489
   50MOL    H3647174   3.774   5.168   5.600 -0.6467  0.4720  0.6462
   50MOL    H3747175   3.858   5.174   5.895  1.5602  3.0173 -0.2858
   50MOL    H3847176   3.790   5.308   5.817 -2.6797  0.9034  1.3246
   50MOL    H3947177   3.619   5.232   5.940  1.6439 -2.0079  3.3239
   50MOL    H4047178   3.577   5.156   5.781 -0.0614 -0.1660  1.3898
   50MOL    H4147179   3.650   4.939   5.871  0.0614  1.5890 -2.1116
   50MOL    H4247180   3.717   5.011   6.010  0.7166  0.9583 -0.8187
   50MOL    H4347181   3.429   5.055   5.940 -0.1848 -0.5255 -0.0053
   50MOL    H4447182   3.507   5.096   6.097 -0.5908  0.3261 -0.4033
   50MOL    H4547183   3.440   4.815   5.967  0.7328  0.9932 -1.4497
   50MOL    H4647184   3.561   4.827   6.083  0.1513  0.3128 -1.1639
   50MOL    H4747185   3.390   4.943   6.251  1.1201  0.2348 -0.9505
   50MOL    H4847186   3.369   4.770   6.222  0.1861  0.2304  0.5724
   50MOL    H4947187   4.429   4.761   5.026 -0.5672  2.0997 -0.7529
   50MOL    N5047188   3.135   4.920   6.223 -0.8155 -0.4998 -0.0763
   50MOL    C5147189   2.995   4.927   6.202  0.2033 -1.2060 -0.4776
   50MOL    C5247190   2.910   4.971   6.326  0.1411  0.2707  1.3389
   50MOL    C5347191   2.846   4.860   6.395 -0.4469  0.4841  0.5310
   50MOL    C5447192   2.766   4.885   6.511 -0.4373  0.6720  0.2808
   50MOL    C5547193   2.765   5.017   6.569 -0.9425 -0.2042  0.0607
   50MOL    C5647194   2.827   5.129   6.502 -0.0257 -0.0292  0.0603
   50MOL    C5747195   2.899   5.107   6.378  0.7927  0.0231  0.9553
   50MOL    C5847196   2.972   5.220   6.311  0.3805 -0.4182  0.0924
   50MOL    N5947197   2.889   5.345   6.317 -0.5346 -0.5461  0.3528
   50MOL    C6047198   2.927   5.464   6.364 -0.3923 -0.5552  0.2818
   50MOL    O6147199   3.045   5.487   6.397 -0.0789  0.3229  0.3200
   50MOL    C6247200   2.813   5.565   6.374 -0.1423 -0.3180  0.2526
   50MOL    C6347201   2.849   5.691   6.460 -0.5016  0.2812  0.3323
   50MOL    C6447202   2.870   5.662   6.608  0.2644  0.2688  0.1141
   50MOL    C6547203   2.912   5.791   6.680 -0.0507 -0.2408 -0.0261
   50MOL    C6647204   2.936   5.771   6.832 -0.2388  0.0121  0.2975
   50MOL    C6747205   2.990   5.895   6.904 -0.2695  0.7489  1.1305
   50MOL    C6847206   3.013   5.869   7.053  0.6729 -0.0849 -0.3649
   50MOL    C6947207   2.894   5.909   7.138  0.0726  0.7641 -0.3459
   50MOL    C7047208   2.777   5.813   7.131 -1.0083 -0.6734  0.3347
   50MOL    O7147209   2.786   5.704   7.184 -0.2071 -0.1351 -0.0601
   50MOL    H7247210   3.174   4.964   6.306  1.2416 -1.0295 -0.7188
   50MOL    H7347211   2.966   4.836   6.149  0.2206 -1.2391 -0.4303
   50MOL    H7447212   2.974   5.004   6.128 -1.0923 -0.9229  0.1614
   50MOL    H7547213   2.842   4.761   6.353  0.4457  0.2621  0.9565
   50MOL    H7647214   2.712   4.806   6.561  1.0198 -0.0644  0.7249
   50MOL    H7747215   2.716   5.044   6.662  0.6900 -2.1289  1.5272
   50MOL    H7847216   2.811   5.228   6.543 -2.3597 -0.2697 -0.1848
   50MOL    H7947217   2.984   5.194   6.206 -0.2584  0.9608 -0.3367
   50MOL    H8047218   3.078   5.220   6.337  0.5148 -0.7991 -0.4475
   50MOL    H8147219   2.795   5.344   6.281  0.1014 -1.1471 -1.3328
   50MOL    H8247220   2.723   5.530   6.424 -0.5148  1.3872  0.8116
   50MOL    H8347221   2.795   5.585   6.269  1.3769  0.3382  0.1080
   50MOL    H8447222   2.778   5.773   6.448  1.4674  1.7083 -2.0818
   50MOL    H8547223   2.936   5.743   6.419  0.1873  0.0630  1.5065
   50MOL    H8647224   2.776   5.621   6.646 -0.3609  0.6943 -0.9249
   50MOL    H8747225   2.942   5.581   6.619  0.3336  0.3098 -0.0284
   50MOL    H8847226   3.006   5.823   6.635  0.6726 -0.9971  0.9445
   50MOL    H8947227   2.836   5.862   6.647  0.7127  0.3383 -0.5427
   50MOL    H9047228   2.843   5.735   6.877  0.4497 -0.6892  1.1750
   50MOL    H9147229   3.017   5.699   6.843  0.5950  0.5203 -2.1640
   50MOL    H9247230   2.921   5.978   6.886 -2.1638 -1.3207 -1.5403
   50MOL    H9347231   3.092   5.909   6.868 -0.2275 -2.2766 -0.0407
   50MOL    H9447232   3.098   5.927   7.090  0.0289  0.2066  0.6781
   50MOL    H9547233   3.040   5.767   7.078 -1.5118 -0.4961  0.4251
   50MOL    H9647234   2.864   6.010   7.110  2.5329  1.4123 -0.7630
   50MOL    H9747235   2.928   5.909   7.242 -0.0580  0.9518 -0.3046
   50MOL    N9847236   2.664   5.864   7.082 -0.1268 -0.0003  0.4412
   50MOL    C9947237   2.534   5.801   7.083  0.3901 -0.2386 -0.7621
   50MOL   C10047238   2.462   5.787   6.948  0.4965 -0.1334  0.4670
   50MOL   C10147239   2.536   5.770   6.830  0.4813 -0.6590 -0.0176
   50MOL   C10247240   2.466   5.764   6.707  0.1757  0.0340 -0.2249
   50MOL   C10347241   2.328   5.750   6.703  0.0997  0.8250 -0.1597
   50MOL   C10447242   2.249   5.753   6.822  0.1527 -0.9401  0.0396
   50MOL   C10547243   2.314   5.780   6.946 -0.0047 -0.3040 -0.0660
   50MOL   C10647244   2.227   5.795   7.072 -0.3614  1.1876 -0.7413
   50MOL   N10747245   2.154   5.911   7.072 -0.2467  0.8239 -0.4181
   50MOL   C10847246   2.170   6.012   7.157  0.0931  0.6223 -0.2581
   50MOL   O10947247   2.254   6.011   7.247  0.0695 -0.1811 -0.4285
   50MOL   C11047248   2.071   6.134   7.139 -0.3995 -0.3297 -0.1454
   50MOL   C11147249   1.969   6.150   7.265 -0.8770 -0.1568 -0.1245
   50MOL   C11247250   1.911   6.291   7.275 -0.0186  0.4783 -0.2429
   50MOL   C11347251   1.845   6.331   7.151 -0.6137 -0.0271  0.4398
   50MOL   C11447252   1.739   6.443   7.156  0.9499  1.0547 -0.4479
   50MOL   C11547253   1.663   6.465   7.022 -0.3841  0.1024  0.9130
   50MOL   C11647254   1.751   6.542   6.923  0.7169 -0.3637  1.5733
   50MOL   C11747255   1.686   6.566   6.782 -0.0141 -1.1222  0.3819
   50MOL   C11847256   1.669   6.446   6.697  0.2970 -0.2318  0.7650
   50MOL   O11947257   1.768   6.369   6.687 -0.2363  0.6945 -0.0095
   50MOL   H12047258   2.671   5.962   7.058 -1.1032 -0.1358 -0.4316
   50MOL   H12147259   2.541   5.705   7.133  1.0686  0.7912  1.1619
   50MOL   H12247260   2.482   5.867   7.152  1.8574  0.5889 -0.4158
   50MOL   H12347261   2.644   5.771   6.830  0.4802  1.1376  0.4058
   50MOL   H12447262   2.518   5.766   6.613  0.4004 -0.0374 -0.1000
   50MOL   H12547263   2.272   5.745   6.611 -2.7840 -2.7414  1.6719
   50MOL   H12647264   2.142   5.747   6.813  0.1801 -0.5400 -0.6455
   50MOL   H12747265   2.286   5.771   7.161 -1.5685 -0.6371 -0.4081
   50MOL   H12847266   2.158   5.710   7.074  0.0121  0.9000  1.6631
   50MOL   H12947267   2.076   5.908   7.007 -2.2358 -0.9500  1.9868
   50MOL   H13047268   2.007   6.118   7.052 -1.9850 -1.5620  1.2125
   50MOL   H13147269   2.134   6.222   7.127 -0.9050 -0.2676 -2.8548
   50MOL   H13247270   2.025   6.117   7.352  1.1252  1.3572 -0.8071
   50MOL   H13347271   1.891   6.075   7.253 -2.1575  0.7779  2.0496
   50MOL   H13447272   1.852   6.296   7.366 -1.5407 -2.3078 -1.0297
   50MOL   H13547273   1.996   6.359   7.290 -1.5539  2.4508 -0.3329
   50MOL   H13647274   1.919   6.357   7.076  0.1614  1.2013  1.6159
   50MOL   H13747275   1.789   6.244   7.116 -2.1360  0.2692  2.0349
   50MOL   H13847276   1.665   6.412   7.229  0.7568  0.6302 -0.8203
   50MOL   H13947277   1.782   6.530   7.206 -2.3185  0.9777  2.6768
   50MOL   H14047278   1.578   6.530   7.042 -2.3527 -2.4065  0.8944
   50MOL   H14147279   1.615   6.374   6.987 -1.5851  1.1800 -0.2688
   50MOL   H14247280   1.763   6.642   6.964 -0.9240 -0.0834  1.3881
   50MOL   H14347281   1.853   6.515   6.896  0.1110  1.1145 -2.4373
   50MOL   H14447282   1.751   6.636   6.730  0.6984 -3.6459 -2.2706
   50MOL   H14547283   1.599   6.629   6.799 -0.0370 -1.1417  0.3351
   50MOL   N14647284   1.560   6.420   6.626  0.0341  0.1921 -0.6950
   50MOL   C14747285   1.534   6.288   6.553 -0.0034 -0.1519  0.0297
   50MOL   C14847286   1.607   6.259   6.420 -0.2409  0.1127  0.1681
   50MOL   C14947287   1.677   6.365   6.358  0.1750 -0.8269 -0.3772
   50MOL   C15047288   1.724   6.343   6.228 -0.0126  0.4659  0.5328
   50MOL   C15147289   1.702   6.221   6.166 -0.0401 -0.0825 -0.2263
   50MOL   C15247290   1.632   6.115   6.225 -0.4009 -0.8702  0.5839
   50MOL   C15347291   1.581   6.132   6.355 -0.4896 -0.0857  0.5050
   50MOL   C15447292   1.493   6.024   6.415  0.3541 -0.6556 -0.1539
   50MOL   N15547293   1.508   5.892   6.355  0.2388 -0.2323 -0.9947
   50MOL   C15647294   1.591   5.797   6.398  0.0876  0.5264  0.3727
   50MOL   O15747295   1.676   5.820   6.482  0.5013  0.3538 -0.2942
   50MOL   C15847296   1.580   5.656   6.329  0.0025  0.4013 -0.1886
   50MOL   C15947297   1.715   5.582   6.298 -0.5447 -0.5631 -0.4408
   50MOL   C16047298   1.770   5.626   6.160  0.1295 -0.1632  0.4871
   50MOL   C16147299   1.881   5.538   6.105  0.7388  0.1376 -0.0235
   50MOL   C16247300   1.964   5.594   5.996 -0.2692  0.2338 -0.4239
   50MOL   C16347301   2.057   5.491   5.928 -0.4489 -0.5144 -0.1398
   50MOL   C16447302   2.043   5.473   5.776 -0.3185 -0.2847  0.1282
   50MOL   C16547303   1.905   5.434   5.734  0.4967 -0.3380 -0.0663
   50MOL   C16647304   1.904   5.354   5.603  0.2900 -0.5080  0.1617
   50MOL   O16747305   2.006   5.309   5.559 -0.2847 -0.0900 -0.4366
   50MOL   H16847306   1.484   6.486   6.623 -0.1991 -0.0270  0.0499
   50MOL   H16947307   1.432   6.286   6.516  0.3733 -0.7300 -1.0173
   50MOL   H17047308   1.544   6.210   6.629  0.6826  1.0158  1.1703
   50MOL   H17147309   1.686   6.457   6.413  0.9217 -1.1881  0.1158
   50MOL   H17247310   1.772   6.426   6.178  2.0903  0.7707  2.9558
   50MOL   H17347311   1.747   6.206   6.069  0.9848 -0.1585  0.2522
   50MOL   H17447312   1.611   6.023   6.173  0.4898  0.1502 -1.6649
   50MOL   H17547313   1.386   6.046   6.423 -0.2067 -1.7170 -3.7047
   50MOL   H17647314   1.523   6.020   6.519 -1.2891 -0.6831  0.3404
   50MOL   H17747315   1.438   5.868   6.287 -0.9471 -1.0875  0.4933
   50MOL   H17847316   1.508   5.665   6.248  1.8240  4.0524 -1.5006
   50MOL   H17947317   1.537   5.595   6.409 -0.0346  2.4078  1.3707
   50MOL   H18047318   1.695   5.475   6.297  0.4776 -0.7928  1.6654
   50MOL   H18147319   1.790   5.606   6.373  0.8597 -1.4868 -1.5105
   50MOL   H18247320   1.685   5.641   6.093 -2.4090 -1.3447  3.3426
   50MOL   H18347321   1.815   5.724   6.174 -1.6718  0.7605 -0.1134
   50MOL   H18447322   1.948   5.515   6.189  0.6097  0.9438  0.3097
   50MOL   H18547323   1.844   5.443   6.066  1.7212  0.1943 -1.1194
   50MOL   H18647324   1.902   5.642   5.920  0.2118 -0.1674 -1.0816
   50MOL   H18747325   2.037   5.668   6.028 -0.0436  0.1741 -0.7852
   50MOL   H18847326   2.071   5.397   5.982 -1.7469 -1.2469 -1.0469
   50MOL   H18947327   2.156   5.535   5.936  1.3603 -4.3750  0.1543
   50MOL   H19047328   2.087   5.560   5.727  0.8835 -0.5737  0.6901
   50MOL   H19147329   2.115   5.394   5.755 -0.3976 -0.2840 -0.1526
   50MOL   H19247330   1.842   5.520   5.712  0.0735 -0.7157 -0.3484
   50MOL   H19347331   1.851   5.370   5.805 -0.4143 -2.7162 -2.7995
   50MOL   N19447332   1.786   5.344   5.539 -0.2293 -0.7802  0.2484
   50MOL   C19547333   1.758   5.286   5.407  0.2382  0.2185 -0.9139
   50MOL   C19647334   1.634   5.203   5.401  0.7662  0.2452 -0.1093
   50MOL   C19747335   1.648   5.072   5.359  0.5969 -0.4458 -0.0528
   50MOL   C19847336   1.534   4.990   5.340 -0.2567 -0.2262 -0.1133
   50MOL   C19947337   1.407   5.039   5.376  0.2690 -0.5843 -0.4730
   50MOL   C20047338   1.394   5.173   5.424 -0.1376 -0.3022 -0.0813
   50MOL   C20147339   1.504   5.253   5.427  0.4237 -0.2923  0.0227
   50MOL   C20247340   1.486   5.397   5.471  0.0268 -0.3778  1.2193
   50MOL   N20347341   1.406   5.423   5.587  0.1309  0.0698 -0.5925
   50MOL   C20447342   1.457   5.410   5.710 -0.3922 -0.9047  0.4906
   50MOL   O20547343   1.569   5.366   5.730  0.3799 -0.1416  0.0840
   50MOL   C20647344   1.361   5.434   5.826 -0.1136  0.0384 -0.0728
   50MOL   C20747345   1.386   5.334   5.944  0.3887  0.2797 -0.2423
   50MOL   C20847346   1.506   5.375   6.037 -0.5426 -0.1120  0.0694
   50MOL   C20947347   1.540   5.261   6.132 -0.1143 -0.1349  0.5808
   50MOL   C21047348   1.426   5.217   6.233 -0.3108 -0.5957  0.3853
   50MOL   C21147349   1.383   5.332   6.322  0.3357  0.4616 -0.1170
   50MOL   C21247350   1.266   5.419   6.264  0.4287  0.0048 -0.3068
   50MOL   C21347351   1.192   5.511   6.360 -0.6907 -0.7415  0.9530
   50MOL   C21447352   1.093   5.443   6.451 -0.2657  0.3190 -0.2604
   50MOL   O21547353   1.028   5.352   6.407 -0.1467 -0.2353  0.2019
   50MOL   H21647354   1.706   5.369   5.596 -0.1509 -0.3359  0.1645
   50MOL   H21747355   1.760   5.366   5.333 -2.3245  1.5657  0.4096
   50MOL   H21847356   1.837   5.221   5.372  1.1263  1.1438 -0.6696
   50MOL   H21947357   1.745   5.032   5.332  0.2646 -0.6472 -0.9641
   50MOL   H22047358   1.544   4.887   5.311  1.4269 -0.6708  1.9212
   50MOL   H22147359   1.320   4.976   5.383  0.0133 -0.1957 -0.0699
   50MOL   H22247360   1.296   5.211   5.450 -1.2098 -2.9635 -0.0705
   50MOL   H22347361   1.427   5.447   5.393 -1.2844  2.2885  3.8372
   50MOL   H22447362   1.579   5.453   5.473 -0.6522  0.9081 -1.2093
   50MOL   H22547363   1.306   5.437   5.575 -0.2139 -2.0908 -0.4756
   50MOL   H22647364   1.259   5.406   5.796 -0.0911 -0.7342  0.5288
   50MOL   H22747365   1.369   5.539   5.853 -1.1484  0.9023 -2.9652
   50MOL   H22847366   1.292   5.345   5.998  1.0200  2.5928  0.4423
   50MOL   H22947367   1.411   5.232   5.914  0.5616 -0.1300  1.2328
   50MOL   H23047368   1.595   5.385   5.976 -1.2629 -2.1397 -1.3866
   50MOL   H23147369   1.488   5.466   6.093 -1.4088 -0.3712  0.2251
   50MOL   H23247370   1.588   5.180   6.076  0.5929  0.6604  0.0361
   50MOL   H23347371   1.625   5.290   6.193 -0.4480 -0.1188  1.0390
   50MOL   H23447372   1.344   5.177   6.174  0.3339  1.8057 -2.2305
   50MOL   H23547373   1.463   5.128   6.284  4.2805 -0.1871 -2.0070
   50MOL   H23647374   1.469   5.397   6.336 -1.5618  2.7203  1.4530
   50MOL   H23747375   1.367   5.293   6.423 -2.6444  0.1308 -0.6495
   50MOL   H23847376   1.183   5.358   6.227 -0.0315  0.2187  0.3645
   50MOL   H23947377   1.307   5.486   6.189  1.9113 -1.2745 -0.6742
   50MOL   H24047378   1.276   5.553   6.416  0.1001 -2.9664  1.4587
   50MOL   H24147379   1.147   5.595   6.306  0.0366  0.9468  2.9038
   50MOL   N24247380   1.083   5.491   6.574  0.0304  0.1285 -0.1470
   50MOL   C24347381   0.975   5.456   6.673 -0.1038  0.3709  1.1421
   50MOL   C24447382   0.870   5.563   6.700  0.9024  0.0666  0.1197
   50MOL   C24547383   0.875   5.639   6.816  0.3538  0.2497  0.1824
   50MOL   C24647384   0.781   5.742   6.842  0.0193  0.3246  0.6344
   50MOL   C24747385   0.670   5.761   6.762  0.2960  0.5313  0.5634
   50MOL   C24847386   0.669   5.690   6.638  0.0198 -0.4610 -0.1258
   50MOL   C24947387   0.758   5.587   6.608 -0.2710 -0.1245  0.1257
   50MOL   C25047388   0.738   5.510   6.477  0.0518 -0.7933 -0.3634
   50MOL   N25147389   0.655   5.579   6.384 -0.7824  0.1387  0.3846
   50MOL   C25247390   0.699   5.651   6.278 -0.3959  0.5056  0.9077
   50MOL   O25347391   0.815   5.659   6.250 -0.0604 -0.0637  0.0207
   50MOL   C25447392   0.597   5.715   6.188 -0.1563  0.0194  1.1269
   50MOL   C25547393   0.527   5.835   6.270  0.0873  0.5994 -0.2483
   50MOL   C25647394   0.456   5.936   6.179 -0.4277 -0.1692  0.0231
   50MOL   C25747395   0.386   6.048   6.260 -0.8692 -0.3520 -0.1474
   50MOL   C25847396   0.342   6.168   6.172  0.8043 -0.5029 -0.0638
   50MOL   C25947397   0.319   6.291   6.256 -0.4515 -0.2506  0.7909
   50MOL   C26047398   0.197   6.291   6.345  0.0867  0.1571 -0.2008
   50MOL   C26147399   0.189   6.431   6.403 -0.5935 -0.8060 -0.3883
   50MOL   C26247400   0.301   6.463   6.504  0.4465  0.3665  0.0254
   50MOL   O26347401   0.339   6.386   6.591 -0.1305 -0.4282  0.5965
   50MOL   H26447402   1.111   5.588   6.576  0.0118  0.1778 -1.8011
   50MOL   H26547403   0.920   5.372   6.631  0.3243  0.9580 -0.6419
   50MOL   H26647404   1.018   5.429   6.769 -0.3166 -3.9473  0.1169
   50MOL   H26747405   0.966   5.628   6.874  0.5793 -0.4531 -0.2928
   50MOL   H26847406   0.796   5.798   6.932  0.1215  0.0874  0.7669
   50MOL   H26947407   0.607   5.848   6.775  0.6049  0.7515  0.5999
   50MOL   H27047408   0.599   5.725   6.563 -0.0774 -0.3694  0.0054
   50MOL   H27147409   0.691   5.416   6.505  1.9440 -1.7447 -0.3036
   50MOL   H27247410   0.833   5.491   6.426 -0.5386 -2.6319 -0.8387
   50MOL   H27347411   0.559   5.572   6.414 -1.1148  2.4538  0.0060
   50MOL   H27447412   0.519   5.653   6.144  1.3973 -0.4372 -1.0730
   50MOL   H27547413   0.653   5.757   6.104  0.7141  0.7158  2.0433
   50MOL   H27647414   0.597   5.886   6.337 -0.0519 -1.9356  1.9236
   50MOL   H27747415   0.460   5.786   6.340 -0.0102 -0.8356 -1.3470
   50MOL   H27847416   0.385   5.877   6.121 -0.5501  0.4881 -0.4870
   50MOL   H27947417   0.536   5.971   6.115 -1.7922  1.0076 -1.0625
   50MOL   H28047418   0.293   6.011   6.303 -0.6285 -0.2088  0.5069
   50MOL   H28147419   0.453   6.081   6.340 -0.3289  2.6988 -1.7835
   50MOL   H28247420   0.430   6.171   6.107 -0.2634 -0.1030 -1.5343
   50MOL   H28347421   0.262   6.163   6.098  0.4504  1.3634  0.1755
   50MOL   H28447422   0.316   6.370   6.181  1.3596  0.5604  1.5289
   50MOL   H28547423   0.408   6.330   6.306 -0.2452 -1.8043  1.6686
   50MOL   H28647424   0.107   6.273   6.288 -1.3387  1.6735  1.4908
   50MOL   H28747425   0.204   6.222   6.429  2.3322 -0.7050 -1.0645
   50MOL   H28847426   0.178   6.509   6.329 -2.0379  0.0965  0.7480
   50MOL   H28947427   0.098   6.437   6.463  0.3660 -1.5321  1.1894
   50MOL   N29047428   0.359   6.583   6.493 -0.3687 -0.4393  0.3811
   50MOL   C29147429   0.456   6.646   6.580 -0.1645  0.2772  0.0343
   50MOL   C29247430   0.398   6.764   6.660  0.7349 -0.1694 -0.3428
   50MOL   C29347431   0.409   6.888   6.605  0.5426 -0.3206 -0.4180
   50MOL   C29447432   0.356   6.997   6.678 -0.2825 -0.6087 -0.0920
   50MOL   C29547433   0.287   6.981   6.805 -0.5080  0.0272 -0.3532
   50MOL   C29647434   0.275   6.850   6.849 -0.9556  0.2020 -0.4066
   50MOL   C29747435   0.330   6.740   6.785 -0.5691 -0.6030  0.2680
   50MOL   C29847436   0.308   6.603   6.848  0.3275  0.0498 -0.6275
   50MOL   N29947437   0.166   6.576   6.861 -0.1914  0.4079 -0.2817
   50MOL   C30047438   0.124   6.448   6.865  0.3304 -0.1054  0.9192
   50MOL   O30147439   0.202   6.357   6.876 -0.2338  0.4500  0.3863
   50MOL   C30247440   7.770   6.411   6.847  0.6312 -0.3872 -0.1129
   50MOL   C30347441   7.707   6.345   6.965 -0.4621 -0.1675 -0.5315
   50MOL   C30447442   7.557   6.328   6.967  0.3718  0.1246 -0.8843
   50MOL   C30547443   7.518   6.261   7.104  0.3664 -0.5401  0.3365
   50MOL   C30647444   7.366   6.257   7.107  0.2893  0.4661 -0.7119
   50MOL   C30747445   7.306   6.400   7.102  0.5973  0.4111 -0.1753
   50MOL   C30847446   7.162   6.407   7.153  0.0322 -0.2085  0.0907
   50MOL   C30947447   7.129   6.555   7.157  0.2798 -0.3358  0.3477
   50MOL   C31047448   6.983   6.589   7.183 -0.2384  0.3816 -0.1517
   50MOL   O31147449   6.903   6.588   7.095  0.4310  0.8418  0.1930
   50MOL   H31247450   0.328   6.645   6.420 -0.3531 -0.4743  0.3441
   50MOL   H31347451   0.502   6.579   6.653 -0.2147  0.2612  0.0514
   50MOL   H31447452   0.538   6.689   6.522  0.9558 -1.3058  0.3922
   50MOL   H31547453   0.456   6.910   6.510  0.4578  0.4681 -0.2794
   50MOL   H31647454   0.373   7.096   6.639  1.4375  0.0926  2.3223
   50MOL   H31747455   0.230   7.055   6.858 -1.3489 -1.8398  1.4321
   50MOL   H31847456   0.219   6.841   6.941 -1.0573 -1.8929 -0.6480
   50MOL   H31947457   0.338   6.609   6.953  0.3636  1.2816 -0.6991
   50MOL   H32047458   0.364   6.524   6.799 -1.5068 -0.1350 -2.4573
   50MOL   H32147459   0.107   6.658   6.851  0.8273  0.9127 -2.5164
   50MOL   H32247460   7.705   6.496   6.824 -2.9049 -2.3961  1.8919
   50MOL   H32347461   7.756   6.351   6.757 -0.4386  0.2918 -0.4112
   50MOL   H32447462   7.722   6.419   7.044 -0.8539  1.8791 -2.3524
   50MOL   H32547463   7.765   6.253   6.974 -1.0184 -0.5969 -1.2857
   50MOL   H32647464   7.532   6.272   6.877  1.5721 -3.0636  0.6531
   50MOL   H32747465   7.524   6.432   6.969  0.6841  0.2111  1.8248
   50MOL   H32847466   7.558   6.159   7.104  2.2359  0.1669  1.8198
   50MOL   H32947467   7.565   6.318   7.184  1.6965 -1.7980  0.4709
   50MOL   H33047468   7.329   6.193   7.027 -2.9690 -0.5050  1.4761
   50MOL   H33147469   7.343   6.216   7.205 -0.3876 -1.9088 -1.8316
   50MOL   H33247470   7.303   6.422   6.995  0.6318 -2.6149 -0.8580
   50MOL   H33347471   7.365   6.467   7.164  1.6756 -1.9610  1.4263
   50MOL   H33447472   7.096   6.355   7.084  0.0640 -2.1477  1.4592
   50MOL   H33547473   7.148   6.350   7.245 -0.2130  1.2415  0.9632
   50MOL   H33647474   7.196   6.612   7.221  1.2560 -1.3888  0.2726
   50MOL   H33747475   7.148   6.580   7.053  1.8431  0.3391  0.7856
   50MOL   N33847476   6.962   6.623   7.309  0.5809  0.2216 -0.1614
   50MOL   C33947477   6.847   6.691   7.368  0.2859 -0.1842 -0.4351
   50MOL   C34047478   6.888   6.809   7.451  0.2876  0.8028  0.0087
   50MOL   C34147479   7.014   6.870   7.427  0.4795 -0.1446  0.0543
   50MOL   C34247480   7.043   6.989   7.494  0.2061  0.1663  0.5611
   50MOL   C34347481   6.951   7.046   7.581  0.6207  0.4098 -0.4452
   50MOL   C34447482   6.825   6.982   7.597  0.3542 -0.3608 -0.2456
   50MOL   C34547483   6.795   6.868   7.535  0.2600  0.1613  0.5884
   50MOL   C34647484   6.655   6.809   7.558 -0.7888 -0.3821  0.0347
   50MOL   N34747485   6.596   6.848   7.693 -0.0677 -0.0781  0.4444
   50MOL   C34847486   6.567   6.767   0.005 -0.4237  0.1352 -0.0248
   50MOL   O34947487   6.560   6.646   7.789  0.5403 -0.1555 -0.7280
   50MOL   C35047488   6.555   6.840   0.141 -0.1250  0.8620  0.0466
   50MOL   C35147489   6.672   6.807   0.238 -0.2482 -0.2690 -0.0546
   50MOL   C35247490   6.636   6.823   0.385  0.7979 -1.0436 -0.2896
   50MOL   C35347491   6.760   6.788   0.467 -0.0264 -0.3143 -0.2299
   50MOL   C35447492   6.742   6.778   0.623 -0.2667  0.5271  0.5741
   50MOL   C35547493   6.848   6.689   0.690 -0.1226 -0.3481 -0.6093
   50MOL   C35647494   6.877   6.718   0.836  0.0265  0.0881 -0.2576
   50MOL   C35747495   7.012   6.661   0.889 -0.4836 -0.0698  0.9575
   50MOL   C35847496   7.137   6.740   0.838  0.3182  0.0282 -0.0561
   50MOL   O35947497   7.132   6.826   0.749 -0.7530 -0.1373  0.1683
   50MOL   H36047498   7.049   6.621   7.360  2.3722  1.5463 -3.0063
   50MOL   H36147499   6.761   6.720   7.308 -0.2763  1.4005  1.1050
   50MOL   H36247500   6.826   6.623   7.451  4.6182 -1.0401  0.1180
   50MOL   H36347501   7.081   6.846   7.347  1.8946  0.3108  1.0842
   50MOL   H36447502   7.132   7.041   7.464 -0.3684 -0.2674 -2.0157
   50MOL   H36547503   6.978   7.133   7.640 -0.1036  0.3719 -0.0462
   50MOL   H36647504   6.761   7.031   7.669  0.2500 -1.6932  0.5839
   50MOL   H36747505   6.646   6.702   7.540 -1.4574 -0.3609  0.2197
   50MOL   H36847506   6.600   6.857   7.477 -1.3666  1.0515  1.2521
   50MOL   H36947507   6.561   6.942   7.708 -1.1141 -0.5771  1.1640
   50MOL   H37047508   6.459   6.800   0.173  0.1020 -2.3174 -2.9799
   50MOL   H37147509   6.546   6.948   0.133 -0.8382  0.7590 -0.5677
   50MOL   H37247510   6.750   6.879   0.215 -0.3016 -0.0391  0.4885
   50MOL   H37347511   6.725   6.713   0.223  1.9207  0.6739  1.4503
   50MOL   H37447512   6.609   6.927   0.406  1.1588 -0.9507 -0.2915
   50MOL   H37547513   6.549   6.759   0.391  2.6460 -3.7588 -1.6350
   50MOL   H37647514   6.840   6.856   0.437 -0.1390 -1.1076 -2.4450
   50MOL   H37747515   6.801   6.691   0.438  1.5572  0.9119 -2.2354
   50MOL   H37847516   6.755   6.878   0.662 -2.4395  1.1112 -0.1095
   50MOL   H37947517   6.639   6.753   0.649 -0.5160 -0.0416 -0.8644
   50MOL   H38047518   6.937   6.707   0.630 -1.9486 -1.1887 -3.7111
   50MOL   H38147519   6.827   6.582   0.680  2.2161 -0.8238 -0.8267
   50MOL   H38247520   6.869   6.826   0.854  1.3889  0.0342  0.7315
   50MOL   H38347521   6.798   6.671   0.895  1.6693  0.7755  2.6413
   50MOL   H38447522   7.011   6.558   0.856 -2.0805  0.3491 -0.3829
   50MOL   H38547523   7.019   6.667   0.997 -1.4970 -1.2268  1.0848
   50MOL   N38647524   7.254   6.711   0.895 -0.3694 -0.2747 -0.2244
   50MOL   C38747525   7.382   6.792   0.877  0.6762  0.1080  0.3690
   50MOL   C38847526   7.361   6.936   0.918 -0.5163  0.1112  0.1753
   50MOL   C38947527   7.318   6.947   1.053 -0.0419 -0.6265  0.1618
   50MOL   C39047528   7.307   7.073   1.104  0.5218 -0.4153  0.3715
   50MOL   C39147529   7.329   7.187   1.027 -0.9328  0.0693 -0.7713
   50MOL   C39247530   7.366   7.174   0.890 -0.7775 -0.4639 -0.0103
   50MOL   C39347531   7.383   7.047   0.830 -0.4276 -0.1652 -0.3664
   50MOL   C39447532   7.424   7.033   0.684 -0.0296  0.0666  0.4816
   50MOL   N39547533   7.318   6.975   0.612  0.6007  0.5907 -0.1306
   50MOL   C39647534   7.333   6.936   0.483 -0.8720  0.1061 -0.3192
   50MOL   O39747535   7.433   6.970   0.417 -0.5707  1.0423 -0.1568
   50MOL   C39847536   7.235   6.843   0.422  0.2807 -0.5220  0.6229
   50MOL   C39947537   7.231   6.861   0.262 -0.0014  0.6969 -0.3370
   50MOL   C40047538   7.179   6.998   0.202 -0.2375  0.4947  0.3705
   50MOL   C40147539   7.032   7.030   0.237 -0.4069 -0.0145 -0.1745
   50MOL   C40247540   6.973   7.139   0.148 -0.3043 -0.0046 -0.0324
   50MOL   C40347541   6.848   7.204   0.215 -0.2313 -0.8726 -0.1354
   50MOL   C40447542   6.778   7.296   0.112  0.4159  0.0677  0.1545
   50MOL   C40547543   6.850   7.424   0.065  0.1159 -0.2301 -0.1757
   50MOL   C40647544   6.809   7.482   7.718 -0.1008  0.4254 -0.4718
   50MOL   O40747545   6.889   7.499   7.630  0.3429 -0.8211 -0.1219
   50MOL   H40847546   7.255   6.627   0.950 -0.0270  1.2556  2.1831
   50MOL   H40947547   7.464   6.751   0.937 -0.7450 -1.3294  1.3855
   50MOL   H41047548   7.401   6.788   0.770 -1.0634  0.3761  0.0252
   50MOL   H41147549   7.305   6.860   1.115  1.1561 -1.1402 -0.2866
   50MOL   H41247550   7.279   7.091   1.206  1.6604 -0.0096  0.6171
   50MOL   H41347551   7.330   7.279   1.084  1.0767  0.7794 -1.8873
   50MOL   H41447552   7.376   7.258   0.823  3.1353 -0.3994  0.5672
   50MOL   H41547553   7.519   6.982   0.668  0.8926  1.7017  0.6189
   50MOL   H41647554   7.439   7.133   0.644  0.3233  0.3015  1.1982
   50MOL   H41747555   7.233   6.939   0.654  0.8392 -0.2605 -0.3601
   50MOL   H41847556   7.271   6.743   0.444  1.9292 -0.1652 -0.3242
   50MOL   H41947557   7.135   6.843   0.464 -0.4550 -2.5311 -0.9980
   50MOL   H42047558   7.177   6.775   0.223  1.0385  1.1715 -2.9570
   50MOL   H42147559   7.331   6.827   0.234  0.6533 -0.0389  2.7733
   50MOL   H42247560   7.201   7.000   0.096 -0.2487  0.6295  0.3704
   50MOL   H42347561   7.248   7.074   0.237 -0.9687  1.4012 -0.1340
   50MOL   H42447562   6.974   6.937   0.237 -1.3232  0.5448 -0.5514
   50MOL   H42547563   7.029   7.065   0.340 -0.7423  0.5342 -0.3720
   50MOL   H42647564   7.050   7.212   0.122 -1.6568  0.9978 -1.3455
   50MOL   H42747565   6.962   7.097   0.047 -1.7917  0.8348 -0.2332
   50MOL   H42847566   6.864   7.253   0.311 -1.1755 -3.0350  1.1626
   50MOL   H42947567   6.773   7.126   0.233 -2.7488  1.6636  0.8339
   50MOL   H43047568   6.683   7.336   0.146  1.0060  1.0937  0.6050
   50MOL   H43147569   6.757   7.243   0.019  2.4756 -0.6607  0.0876
   50MOL   H43247570   6.955   7.395   0.077  0.1465 -0.3056 -0.6205
   50MOL   H43347571   6.820   7.499   0.138 -0.5725 -1.1241  0.4681
   50MOL   N43447572   6.683   7.514   7.695 -0.6768 -0.5300 -0.1210
   50MOL   C43547573   6.629   7.562   7.567  0.1785 -0.0093  0.8591
   50MOL   C43647574   6.617   7.714   7.555 -0.1121 -0.0988 -0.0746
   50MOL   C43747575   6.683   0.004   7.646  0.0288  0.5428  0.2659
   50MOL   C43847576   6.695   0.140   7.621 -0.4299 -0.0929  1.0886
   50MOL   C43947577   6.615   0.200   7.519 -0.2812  0.3067 -0.3975
   50MOL   C44047578   6.544   0.115   7.433  0.9610  0.6113  0.4282
   50MOL   C44147579   6.537   7.767   7.456  0.2757  0.0742  0.4464
   50MOL   C44247580   6.463   7.670   7.360  0.2587 -0.0159  0.1590
   50MOL   N44347581   6.417   7.728   7.239  0.4772 -1.0087 -0.2686
   50MOL   C44447582   6.464   7.686   7.118  0.3265  0.3157 -0.8276
   50MOL   O44547583   6.555   7.603   7.104  0.3827 -0.2216 -0.1720
   50MOL   C44647584   6.416   7.766   6.996 -0.4636 -0.4987 -0.2263
   50MOL   C44747585   6.302   7.693   6.923 -0.2144  0.7557 -0.4834
   50MOL   C44847586   6.341   7.555   6.861 -0.8692 -0.5538 -0.0039
   50MOL   C44947587   6.434   7.556   6.734  0.3563 -0.6138 -0.0506
   50MOL   C45047588   6.369   7.621   6.609 -0.1118  0.1145 -0.3161
   50MOL   C45147589   6.245   7.561   6.548  0.2897  0.1181 -0.2265
   50MOL   C45247590   6.182   7.647   6.446 -0.6551  0.0072  0.3877
   50MOL   C45347591   6.070   7.572   6.378 -0.2802  0.3408 -0.2890
   50MOL   C45447592   5.982   7.667   6.294 -0.0907 -0.1860  0.0804
   50MOL   O45547593   5.895   7.733   6.342  0.6808 -0.8434 -0.0908
   50MOL   H45647594   6.615   7.527   7.769  3.1404 -0.3653  3.5103
   50MOL   H45747595   6.531   7.520   7.544 -0.2645  1.6890 -0.4908
   50MOL   H45847596   6.694   7.517   7.492 -1.7371 -0.4764 -0.5688
   50MOL   H45947597   6.751   7.758   7.722 -1.9731 -1.7896  1.0120
   50MOL   H46047598   6.771   0.193   7.676  1.7279 -1.6805 -0.2563
   50MOL   H46147599   6.618   0.305   7.496 -0.7245  0.7718  1.5675
   50MOL   H46247600   6.483   0.155   7.353 -1.2285  0.4255  1.9645
   50MOL   H46347601   6.378   7.638   7.420  0.3440  1.1786  0.9354
   50MOL   H46447602   6.520   7.579   7.345  0.1766  0.1908 -1.5449
   50MOL   H46547603   6.340   0.004   7.241  0.2774 -1.1498 -2.0793
   50MOL   H46647604   6.498   0.010   6.933  0.8599 -1.1529  1.0878
   50MOL   H46747605   6.376   0.069   7.036  0.8958  0.2809 -0.6647
   50MOL   H46847606   6.259   7.757   6.847  1.9421  0.7828 -1.7371
   50MOL   H46947607   6.221   7.666   6.990 -1.9140 -1.3055 -3.2487
   50MOL   H47047608   6.381   7.491   6.940  0.1056  0.9460  0.7392
   50MOL   H47147609   6.245   7.515   6.827 -1.5325  0.9515  0.0852
   50MOL   H47247610   6.524   7.613   6.756  0.6988 -0.7253 -1.1595
   50MOL   H47347611   6.464   7.452   6.716 -1.7917 -1.3451  0.3749
   50MOL   H47447612   6.350   7.726   6.633  0.4872  0.1041  0.2249
   50MOL   H47547613   6.442   7.623   6.528 -0.4564  1.8688 -0.5972
   50MOL   H47647614   6.173   7.529   6.623 -0.0011  1.0052 -0.1164
   50MOL   H47747615   6.284   7.474   6.495  3.6089  1.9325 -0.9214
   50MOL   H47847616   6.124   7.727   6.492  0.1381  1.3598 -0.9347
   50MOL   H47947617   6.248   7.705   6.381 -0.4289 -2.0747 -1.3017
   50MOL   H48047618   6.108   7.498   6.308  0.9254  1.6203 -1.0022
   50MOL   H48147619   6.002   7.528   6.451 -2.6428  1.5139 -1.7080
   50MOL   N48247620   6.008   7.665   6.161  0.2186 -0.1542 -0.4575
   50MOL   C48347621   5.931   7.729   6.055  0.5178 -0.1254 -0.1174
   50MOL   C48447622   5.972   0.083   6.032 -0.1383 -0.7817 -0.1465
   50MOL   C48547623   6.097   0.139   6.073  0.5251  0.5122 -0.5389
   50MOL   C48647624   6.133   0.272   6.055 -0.0246  0.0608  0.0880
   50MOL   C48747625   6.046   0.363   5.991 -0.8641 -0.5312  0.2436
   50MOL   C48847626   5.923   0.313   5.943  0.3273  0.2986 -0.2764
   50MOL   C48947627   5.884   0.171   5.959  1.2533 -0.2862  0.3243
   50MOL   C49047628   5.754   0.121   5.907 -0.1795 -0.2021 -0.2228
   50MOL   N49147629   5.700   0.216   5.812 -0.3455 -0.4369  0.0470
   50MOL   C49247630   5.578   0.205   5.763  0.6088  0.2432  0.9915
   50MOL   O49347631   5.505   0.113   5.791 -0.5606 -0.1004 -0.2089
   50MOL   C49447632   5.534   0.321   5.675  1.1412 -0.1475  0.4027
   50MOL   C49547633   5.407   0.391   5.732 -0.4800 -0.4101 -0.1256
   50MOL   C49647634   5.422   0.496   5.848  0.1443 -0.0802  0.2255
   50MOL   C49747635   5.297   0.584   5.865 -0.1197  0.3020 -0.0805
   50MOL   C49847636   5.159   0.522   5.848  0.4878 -0.3286 -0.0159
   50MOL   C49947637   5.036   0.614   5.875  0.5237  0.1730  0.2208
   50MOL   C50047638   4.905   0.530   5.868 -0.5122  0.2395 -0.4454
   50MOL   C50147639   4.779   0.619   5.871 -0.8978 -0.2990 -0.1497
   50MOL   C50247640   4.655   0.572   5.803 -0.3155 -0.9770 -0.0123
   50MOL   O50347641   4.599   0.465   5.833 -0.6142  0.2188 -0.5430
   50MOL   H50447642   6.092   7.619   6.130  0.6351 -0.6654  1.3483
   50MOL   H50547643   5.944   7.663   5.970 -0.7795 -0.3343 -0.1561
   50MOL   H50647644   5.824   7.728   6.076  0.6374  0.0946  0.5201
   50MOL   H50747645   6.165   0.068   6.117  2.6350  2.5806 -0.3722
   50MOL   H50847646   6.234   0.299   6.078  0.2687 -1.4771  0.6836
   50MOL   H50947647   6.071   0.468   5.990  0.9271 -0.9481 -0.7494
   50MOL   H51047648   5.862   0.387   5.893 -0.5059 -1.9797 -2.7986
   50MOL   H51147649   5.690   0.121   5.995 -1.2901 -0.0903 -1.0197
   50MOL   H51247650   5.773   0.021   5.867 -0.1584  0.2821 -1.4298
   50MOL   H51347651   5.748   0.302   5.790 -1.3073  0.4070  1.1525
   50MOL   H51447652   5.513   0.284   5.575  2.1618 -0.8667  0.4409
   50MOL   H51547653   5.610   0.400   5.670 -0.5486  1.4488 -0.7942
   50MOL   H51647654   5.323   0.323   5.747 -0.6062 -0.9499 -2.9017
   50MOL   H51747655   5.373   0.449   5.646 -0.2679 -0.1749 -0.0498
   50MOL   H51847656   5.434   0.441   5.942 -0.7272  0.7859  0.8455
   50MOL   H51947657   5.517   0.549   5.842  0.4016 -0.6679 -1.0789
   50MOL   H52047658   5.297   0.634   5.961 -0.3694 -0.8845  0.5433
   50MOL   H52147659   5.313   0.670   5.799  1.3504  3.1372  3.7881
   50MOL   H52247660   5.153   0.492   5.743 -0.0860  0.1826 -0.1341
   50MOL   H52347661   5.147   0.438   5.917 -1.7251  0.4805  0.6080
   50MOL   H52447662   5.022   0.693   5.801 -2.7052  2.1807  2.8612
   50MOL   H52547663   5.053   0.673   5.965  1.7713 -2.0582  1.4839
   50MOL   H52647664   4.903   0.472   5.775  0.6542  0.1310 -0.4200
   50MOL   H52747665   4.893   0.469   5.957 -1.8884  0.4844 -0.4658
   50MOL   H52847666   4.797   0.718   5.830 -0.8220 -0.1771  0.1785
   50MOL   H52947667   4.743   0.634   5.972 -1.8405  0.9283 -0.6648
   50MOL   N53047668   4.612   0.649   5.703 -0.4271  0.1811  0.5900
   50MOL   C53147669   4.505   0.603   5.621  0.0144  0.6468  0.0772
   50MOL   C53247670   4.462   0.710   5.527 -0.2269  0.6596  0.9142
   50MOL   C53347671   4.482   0.680   5.392 -0.8974 -0.3686 -0.6156
   50MOL   C53447672   4.442   0.774   5.294  0.0524 -0.0666 -0.9373
   50MOL   C53547673   4.399   0.904   5.336  0.4546 -1.5161  1.1609
   50MOL   C53647674   4.374   0.931   5.467 -0.6124 -0.0034 -1.2837
   50MOL   C53747675   4.413   0.837   5.568 -0.2369 -0.1241  0.0254
   50MOL   C53847676   4.394   0.877   5.718 -0.8734  0.1249 -0.0289
   50MOL   N53947677   4.253   0.869   5.751  0.7726  0.2656 -0.3122
   50MOL   C54047678   4.209   0.893   5.873  0.1986  0.1215 -0.3940
   50MOL   O54147679   4.267   0.958   5.956 -0.2600  0.2474  0.3437
   50MOL   C54247680   4.069   0.858   5.899 -0.2215  0.3300  0.7338
   50MOL   C54347681   4.042   0.787   6.030  0.0014 -0.1650  0.1677
   50MOL   C54447682   3.894   0.741   6.039  0.2787  0.3030  0.7149
   50MOL   C54547683   3.871   0.601   5.971  0.0462 -0.0630  0.2424
   50MOL   C54647684   3.733   0.551   6.012 -0.1068 -1.0773 -0.4235
   50MOL   C54747685   3.668   0.441   5.927 -0.1507 -0.1770 -0.4192
   50MOL   C54847686   3.746   0.314   5.910 -0.3937  0.1714  0.1576
   50MOL   C54947687   3.779   0.252   6.048  0.0244 -0.0268  0.2830
   50MOL   C55047688   3.662   0.180   6.115  0.1087 -0.0241 -0.1667
   50MOL   O55147689   3.613   0.083   6.060 -0.1008  0.4652 -0.2109
   50MOL   H55247690   4.660   0.734   5.679 -2.2805  0.4184 -2.4625
   50MOL   H55347691   4.416   0.565   5.671 -3.4556  3.4790 -3.6142
   50MOL   H55447692   4.539   0.510   5.575  0.9151  0.9447  0.1301
   50MOL   H55547693   4.533   0.592   5.356 -0.7313  0.5194 -2.6300
   50MOL   H55647694   4.441   0.753   5.188  0.1092 -0.3324 -0.8848
   50MOL   H55747695   4.363   0.981   5.269  0.0126 -0.1715  2.9358
   50MOL   H55847696   4.329   1.026   5.491 -0.3905 -0.6266  1.8205
   50MOL   H55947697   4.435   0.976   5.736  0.5064 -0.3250 -0.6683
   50MOL   H56047698   4.438   0.801   5.782  0.5388  0.1103 -0.9832
   50MOL   H56147699   4.200   0.816   5.684  1.5900 -0.2688 -0.5298
   50MOL   H56247700   4.036   0.794   5.818 -1.1436  2.1179 -0.3317
   50MOL   H56347701   4.018   0.955   5.906  2.5551  1.8961 -0.0739
   50MOL   H56447702   4.057   0.860   6.109  2.1452  0.5855 -0.8866
   50MOL   H56547703   4.104   0.699   6.049 -0.2945 -0.7189 -1.3826
   50MOL   H56647704   3.884   0.722   6.146  1.8577 -3.0098  0.3203
   50MOL   H56747705   3.817   0.808   6.000  0.6853  0.1782 -0.3093
   50MOL   H56847706   3.883   0.603   5.863 -0.9998 -2.1188  0.0630
   50MOL   H56947707   3.943   0.527   6.004  1.2340  0.6189 -0.7683
   50MOL   H57047708   3.727   0.523   6.117 -3.3154 -0.1650 -0.3165
   50MOL   H57147709   3.657   0.629   6.013  0.0579 -0.9216 -0.1258
   50MOL   H57247710   3.646   0.483   5.829 -2.0331 -1.7616 -0.7182
   50MOL   H57347711   3.569   0.410   5.961 -0.5879  0.1313 -1.4144
   50MOL   H57447712   3.696   0.235   5.853  0.5212  1.3576 -2.3762
   50MOL   H57547713   3.839   0.331   5.855 -0.6409  1.3276  0.0895
   50MOL   H57647714   3.814   0.326   6.119 -0.3170  1.0517 -0.6668
   50MOL   H57747715   3.858   0.177   6.047 -0.9130 -1.0480  0.9781
   50MOL   N57847716   3.612   0.232   6.226  0.8564  0.2508 -0.6942
   50MOL   C57947717   3.508   0.179   6.311  0.1032 -0.2713 -0.1862
   50MOL   C58047718   3.366   0.222   6.275  0.0561  0.0180  0.0087
   50MOL   C58147719   3.350   0.340   6.205 -0.2702 -0.1394  0.4210
   50MOL   C58247720   3.223   0.378   6.159  0.7920 -0.0988 -0.2036
   50MOL   C58347721   3.115   0.296   6.183 -0.3074  0.4251  0.1713
   50MOL   C58447722   3.126   0.186   6.259 -0.1642  0.2967  0.5610
   50MOL   C58547723   3.256   0.152   6.313 -0.1632 -0.2920  0.3353
   50MOL   C58647724   3.261   0.040   6.408  0.4354 -0.1160  0.1170
   50MOL   N58747725   3.138   0.019   6.484  0.6002 -0.3501  0.0464
   50MOL   C58847726   3.108   0.078   6.601 -0.3603  0.2425  0.1822
   50MOL   O58947727   3.194   0.138   6.665  0.1628 -0.2270 -0.2601
   50MOL   C59047728   2.961   0.057   6.644  0.5218  0.3559  0.2587
   50MOL   C59147729   2.915   0.169   6.738 -0.5178 -0.2641 -0.7433
   50MOL   C59247730   2.762   0.168   6.787 -0.3246  0.0338 -0.7431
   50MOL   C59347731   2.732   0.058   6.896  0.5804 -0.3561 -0.2620
   50MOL   C59447732   2.599   0.089   6.963 -0.3803 -0.9352 -0.5166
   50MOL   C59547733   2.583   0.018   7.095 -0.1248 -0.5275 -0.1577
   50MOL   C59647734   2.428   0.034   7.136 -0.7435 -0.7458  0.6005
   50MOL   C59747735   2.398   7.777   7.282 -0.3420 -0.4858 -0.0474
   50MOL   C59847736   2.389   7.626   7.295  0.0201  0.4409 -0.1443
   50MOL   O59947737   2.491   7.557   7.288  0.2120 -0.0388  0.4019
   50MOL   H60047738   3.648   0.325   6.242  1.1810 -0.1362  0.8568
   50MOL   H60147739   3.528   0.223   6.409  0.8062  0.2364 -0.5511
   50MOL   H60247740   3.528   0.073   6.329  2.7009  0.4125  1.1338
   50MOL   H60347741   3.434   0.403   6.181  0.6982  0.2291  4.4101
   50MOL   H60447742   3.202   0.472   6.111 -1.2039  0.1666  1.1267
   50MOL   H60547743   3.014   0.323   6.153 -0.0235  0.3529 -0.8711
   50MOL   H60647744   3.041   0.124   6.283  1.9151 -1.6884  3.1283
   50MOL   H60747745   3.342   0.051   6.480 -1.2767 -0.3803  2.1486
   50MOL   H60847746   3.276   7.736   6.356  0.2388  1.2636 -2.5378
   50MOL   H60947747   3.069   7.749   6.441  1.2545 -0.0446 -1.4561
   50MOL   H61047748   2.959   7.747   6.687  0.3087  0.7847  1.2722
   50MOL   H61147749   2.903   0.057   6.552 -0.8588 -2.7427  1.0530
   50MOL   H61247750   2.930   0.270   6.700  0.1070  0.2234  0.7649
   50MOL   H61347751   2.976   0.148   6.825  0.4672  0.9434 -1.1224
   50MOL   H61447752   2.752   0.269   6.826 -1.2765 -0.3930  0.1173
   50MOL   H61547753   2.694   0.163   6.702 -1.3403 -1.2956  0.1362
   50MOL   H61647754   2.743   7.750   6.849 -0.8527 -0.7097  0.1047
   50MOL   H61747755   2.811   0.058   6.971  1.2807  1.4513 -0.9552
   50MOL   H61847756   2.591   0.193   6.993 -0.6195 -1.4923  1.4048
   50MOL   H61947757   2.517   0.058   6.899  0.0691 -1.1200 -1.0052
   50MOL   H62047758   2.637   0.072   7.174  0.6985 -1.4098 -0.1074
   50MOL   H62147759   2.611   7.703   7.096  0.2273 -0.4541  2.8081
   50MOL   H62247760   2.413   0.142   7.133 -1.2034 -0.8416 -1.1006
   50MOL   H62347761   2.358   7.785   7.062 -0.6270  0.6614 -0.2452
   50MOL   H62447762   2.479   0.022   7.346 -0.6442 -0.4054  0.2936
   50MOL   H62547763   2.310   0.042   7.314 -0.1514 -0.5583  0.6181
   50MOL   N62647764   2.267   7.572   7.311 -0.9334 -0.9050  0.0478
   50MOL   C62747765   2.235   7.429   7.319  0.1679 -0.6080 -0.8033
   50MOL   C62847766   2.103   7.399   7.386  0.6578  0.4799  0.1366
   50MOL   C62947767   2.027   7.506   7.443 -0.7053 -0.3667 -0.3038
   50MOL   C63047768   1.903   7.489   7.500 -0.2115  0.0727  0.0254
   50MOL   C63147769   1.853   7.361   7.521  0.0319 -0.5608  0.3066
   50MOL   C63247770   1.924   7.252   7.469 -0.2328 -0.1544  0.5134
   50MOL   C63347771   2.048   7.267   7.399  0.1172  0.4739 -0.6074
   50MOL   C63447772   2.135   7.148   7.352  0.8401  0.4663  0.7493
   50MOL   N63547773   2.085   7.022   7.380 -0.2217  0.4799  0.0719
   50MOL   C63647774   2.161   6.915   7.414  0.0061  0.3333 -0.6488
   50MOL   O63747775   2.286   6.916   7.415  0.4539 -0.0140  0.2024
   50MOL   C63847776   2.078   6.795   7.468  0.2052 -0.1525  0.5371
   50MOL   C63947777   2.117   6.762   7.614 -0.2533  0.6414  0.5407
   50MOL   C64047778   2.097   6.874   7.721 -0.3670 -0.4046  0.5385
   50MOL   C64147779   1.948   6.933   7.737  0.5220 -0.9628 -0.3971
   50MOL   C64247780   1.938   7.061   0.029 -1.3296  0.1770  0.0271
   50MOL   C64347781   1.793   7.109   0.018 -0.5040  0.2512 -0.1713
   50MOL   C64447782   1.763   7.243   0.089  0.6081  0.0896 -0.1128
   50MOL   C64547783   1.632   7.316   0.047  0.3702 -0.8500  1.0213
   50MOL   C64647784   1.635   7.471   0.060 -0.1291  0.1771 -0.3334
   50MOL   O64747785   1.747   7.532   0.056 -0.1996  0.1345 -0.0187
   50MOL   H64847786   2.195   7.641   7.324  0.1325 -0.1826  2.4490
   50MOL   H64947787   2.312   7.379   7.378 -0.9293 -1.2370  0.1133
   50MOL   H65047788   2.237   7.374   7.225  0.5577 -0.5721 -0.8153
   50MOL   H65147789   2.070   7.604   7.455  1.9426 -1.3276 -1.6373
   50MOL   H65247790   1.848   7.574   7.539 -2.9685 -1.5962 -0.1482
   50MOL   H65347791   1.757   7.356   7.571 -0.2426 -1.4593 -0.3195
   50MOL   H65447792   1.875   7.155   7.473 -3.2677  1.3151  0.5375
   50MOL   H65547793   2.231   7.155   7.402  0.3913  0.5021  1.6125
   50MOL   H65647794   2.149   7.149   7.243  0.0126  2.3553  0.6347
   50MOL   H65747795   1.986   7.008   7.366  0.1467  0.2250 -2.5193
   50MOL   H65847796   2.096   6.715   7.397  0.6051  0.0311  0.4253
   50MOL   H65947797   1.974   6.825   7.456  0.0681 -1.0573 -0.5660
   50MOL   H66047798   2.223   6.739   7.613 -0.0674  1.4284  1.2870
   50MOL   H66147799   2.066   6.671   7.645 -0.4732  1.2128  1.8731
   50MOL   H66247800   2.129   6.830   0.025 -3.5473 -2.2347  0.8224
   50MOL   H66347801   2.170   6.948   7.688 -0.6575 -0.0774  0.6275
   50MOL   H66447802   1.916   6.961   7.636  1.4572  3.3838  0.4177
   50MOL   H66547803   1.881   6.851   7.762 -2.4199  0.9473 -1.6685
   50MOL   H66647804   1.963   7.041   0.133  1.0994 -0.4483 -0.6425
   50MOL   H66747805   2.003   7.137   7.776 -0.7558 -1.3338 -1.8401
   50MOL   H66847806   1.720   7.035   0.050  0.2552 -0.1968  0.5328
   50MOL   H66947807   1.773   7.135   7.704  0.8311 -2.2270 -1.0827
   50MOL   H67047808   1.761   7.235   0.198  1.0748 -3.7727 -0.3253
   50MOL   H67147809   1.846   7.307   0.058  1.9541 -1.5732  0.0019
   50MOL   H67247810   1.555   7.270   0.108 -1.3575 -0.1583 -0.5915
   50MOL   H67347811   1.604   7.281   7.738  2.4066  0.9851 -0.2557
   50MOL   N67447812   1.515   7.534   0.069  0.4480 -1.2552 -0.9705
   50MOL   C67547813   1.499   7.677   0.053 -0.2930  0.7448  0.6723
   50MOL   C67647814   1.367   7.729   0.003 -0.1209 -0.3210 -0.3056
   50MOL   C67747815   1.252   7.650   0.015  0.1233 -0.1360 -0.2762
   50MOL   C67847816   1.122   7.685   7.759 -0.0876 -0.4302 -0.4869
   50MOL   C67947817   1.112   0.027   7.699  0.1688 -0.3472  0.2150
   50MOL   C68047818   1.234   0.101   7.682  0.0731 -0.6002  0.8674
   50MOL   C68147819   1.359   0.067   7.732 -0.1622  0.7143 -0.4808
   50MOL   C68247820   1.478   0.157   7.729  0.3371 -0.6301  0.2932
   50MOL   N68347821   1.549   0.151   7.602  0.2975  0.2920  0.4100
   50MOL   C68447822   1.681   0.133   7.592  0.5923  0.5352 -0.1705
   50MOL   O68547823   1.745   0.089   7.688 -0.4051 -0.4438  0.5204
   50MOL   C68647824   1.750   0.158   7.455  0.6829  0.3285 -1.0933
   50MOL   C68747825   1.875   0.079   7.426 -0.1977  0.3427 -0.5730
   50MOL   C68847826   1.972   0.159   7.338  0.2680  0.3143 -0.8926
   50MOL   C68947827   2.052   0.264   7.419  0.1219 -0.1765  0.4856
   50MOL   C69047828   2.147   0.343   7.328  0.1858 -0.7833 -0.2364
   50MOL   C69147829   2.238   0.437   7.402  0.0491  0.1404 -0.5548
   50MOL   C69247830   2.344   0.496   7.313  0.8759  0.0624  0.5199
   50MOL   C69347831   2.462   0.551   7.393 -0.3871 -0.4898  0.0716
   50MOL   C69447832   2.433   0.663   7.487  0.1870  0.3808  0.0942
   50MOL   O69547833   2.350   0.746   7.457 -0.3794  0.1104  0.2921
   50MOL   H69647834   1.428   7.484   0.076 -0.0624 -0.4406 -1.3239
   50MOL   H69747835   1.578   7.711   7.776 -0.3820 -1.2225 -0.4692
   50MOL   H69847836   1.535   7.730   0.141 -1.7054  0.6070  1.3399
   50MOL   H69947837   1.259   7.554   0.063  1.2705 -0.0050 -0.1669
   50MOL   H70047838   1.033   7.626   7.775 -0.5026  0.5074  0.7786
   50MOL   H70147839   1.018   0.067   7.667 -1.1189 -3.8765 -0.6814
   50MOL   H70247840   1.229   0.198   7.636 -0.2967 -0.7638  0.5600
   50MOL   H70347841   1.546   0.132   0.020 -2.6579 -1.5935  2.6046
   50MOL   H70447842   1.448   0.259   7.753  0.0910 -0.5587 -0.3162
   50MOL   H70547843   1.503   0.194   7.524 -1.8303  1.2319  2.1262
   50MOL   H70647844   1.761   0.266   7.455  2.0738  0.1959  0.0674
   50MOL   H70747845   1.669   0.151   7.381 -0.7148 -0.8854  0.5121
   50MOL   H70847846   1.847   7.778   7.372 -0.4890 -1.4372  2.4850
   50MOL   H70947847   1.924   0.039   7.514 -0.8505 -0.1441 -0.4285
   50MOL   H71047848   2.046   0.086   7.305 -0.2087 -0.1769 -0.8880
   50MOL   H71147849   1.922   0.193   7.247 -0.5847  0.8414 -0.2360
   50MOL   H71247850   1.989   0.334   7.474  0.0371  0.0484  0.0990
   50MOL   H71347851   2.108   0.217   7.500  1.1621  0.0406 -0.1077
   50MOL   H71447852   2.208   0.281   7.263 -0.4026  0.6067 -2.1625
   50MOL   H71547853   2.088   0.395   7.252  0.1667 -0.0632  0.2587
   50MOL   H71647854   2.287   0.391   7.488 -0.2904 -2.2069 -1.5797
   50MOL   H71747855   2.171   0.513   7.443 -1.4615 -0.7386 -1.3982
   50MOL   H71847856   2.305   0.578   7.253  1.0508 -1.9225 -2.4438
   50MOL   H71947857   2.373   0.417   7.244  2.1872 -0.6625  1.8536
   50MOL   H72047858   2.544   0.583   7.329  1.2476  0.8174  2.7515
   50MOL   H72147859   2.513   0.468   7.442 -0.8026 -0.9528 -0.2696
   50MOL   N72247860   2.498   0.665   7.602  0.0696 -0.1423 -0.3376
   50MOL   C72347861   2.491   0.768   7.700 -0.6891 -0.5321  0.4873
   50MOL   C72447862   2.547   0.905   7.653  0.0275 -0.1032 -0.1542
   50MOL   C72547863   2.674   0.896   7.603 -0.0604  0.4525 -0.4818
   50MOL   C72647864   2.737   1.013   7.556 -0.1968 -0.6627  0.1742
   50MOL   C72747865   2.672   1.133   7.565  0.5131 -0.6521  0.4039
   50MOL   C72847866   2.538   1.143   7.605 -0.1691  0.8179  0.5231
   50MOL   C72947867   2.480   1.028   7.658  0.0516 -0.4823  0.1486
   50MOL   C73047868   2.339   1.036   7.705 -0.1229 -0.6038 -0.0553
   50MOL   N73147869   2.240   0.982   7.609 -0.0140 -0.1329  0.6497
   50MOL   C73247870   2.108   0.992   7.619 -0.3857  0.2049  0.5765
   50MOL   O73347871   2.051   1.071   7.696 -0.4311  0.0277  0.6720
   50MOL   C73447872   2.019   0.919   7.520 -0.1175  0.0718 -0.1809
   50MOL   C73547873   1.892   0.868   7.595 -0.3744 -0.0627 -0.1710
   50MOL   C73647874   1.899   0.726   7.650  0.5433  0.3521 -0.6843
   50MOL   C73747875   1.755   0.675   7.637  0.1358  0.6783  0.5524
   50MOL   C73847876   1.740   0.529   7.686 -0.0287  0.2209  0.0845
   50MOL   C73947877   1.731   0.493   0.042 -0.0617  0.2098 -0.2307
   50MOL   C74047878   1.601   0.536   0.117  0.6204 -0.1237 -0.2370
   50MOL   C74147879   1.565   0.437   0.232 -0.0233 -0.6260  0.3105
   50MOL   C74247880   1.466   0.500   0.339  0.1902 -0.4022  0.8511
   50MOL   O74347881   1.422   0.612   0.326  0.0968 -0.3980  0.1899
   50MOL   H74447882   2.544   0.582   7.638  1.6808  1.1094  0.6138
   50MOL   H74547883   2.540   0.722   7.786  0.2972 -2.0394 -0.8231
   50MOL   H74647884   2.387   0.782   7.728 -0.0803  1.8034  1.6390
   50MOL   H74747885   2.737   0.808   7.603  0.9149  0.9413  5.7470
   50MOL   H74847886   2.838   1.021   7.518  0.3036  2.2379  1.9483
   50MOL   H74947887   2.724   1.222   7.534 -0.6370  0.4508  1.6069
   50MOL   H75047888   2.491   1.239   7.619  1.7418  1.9696 -0.6432
   50MOL   H75147889   2.318   1.141   7.720  1.6024 -0.2014 -0.3741
   50MOL   H75247890   2.332   0.981   0.009 -0.8469  0.9682  0.8120
   50MOL   H75347891   2.276   0.906   7.552 -2.7154  1.1872 -3.0253
   50MOL   H75447892   2.080   0.842   7.472 -1.4099 -1.3453  0.3997
   50MOL   H75547893   1.986   0.990   7.443  0.5033  1.0256  0.4262
   50MOL   H75647894   1.813   0.881   7.521 -0.6018  2.2193  0.4515
   50MOL   H75747895   1.863   0.926   7.682  1.8913  1.6235 -0.5090
   50MOL   H75847896   1.968   0.659   7.599  1.1421  0.2893  0.1941
   50MOL   H75947897   1.925   0.732   7.756  0.0931 -2.0569 -0.3933
   50MOL   H76047898   1.684   0.736   7.694 -0.7928 -0.4899  0.6650
   50MOL   H76147899   1.736   0.679   7.529  0.2117 -2.4161  0.3890
   50MOL   H76247900   1.649   0.485   7.645  2.0600 -3.9216 -0.3244
   50MOL   H76347901   1.818   0.475   7.634  0.1301  1.6203 -1.1479
   50MOL   H76447902   1.819   0.533   0.092  1.4168 -1.4075 -1.4590
   50MOL   H76547903   1.742   0.385   0.050  1.2256  0.3970  0.7266
   50MOL   H76647904   1.618   0.639   0.149 -3.8151  1.2260 -1.8221
   50MOL   H76747905   1.512   0.541   0.054 -0.8050  0.4956  1.7841
   50MOL   H76847906   1.523   0.343   0.196 -0.7393 -0.3641  0.4372
   50MOL   H76947907   1.659   0.412   0.280  0.2448 -1.7658 -0.7911
   50MOL   N77047908   1.427   0.421   0.439  0.2065  0.6897 -0.5054
   50MOL   C77147909   1.319   0.453   0.533  0.4438  0.0904 -0.3447
   50MOL   C77247910   1.363   0.546   0.646  0.2646 -0.5650  0.2928
   50MOL   C77347911   1.500   0.535   0.688  0.2488  0.1610 -0.9601
   50MOL   C77447912   1.544   0.622   0.793  0.6199  0.9230 -0.6852
   50MOL   C77547913   1.452   0.710   0.859 -0.1940  0.2898  0.5101
   50MOL   C77647914   1.314   0.707   0.818 -0.4752  0.0209  0.1158
   50MOL   C77747915   1.267   0.628   0.711 -0.2219 -0.4482 -0.1157
   50MOL   C77847916   1.123   0.625   0.666 -0.3469  0.0901  0.0680
   50MOL   N77947917   1.113   0.708   0.548  0.5955  0.3252 -0.5245
   50MOL   C78047918   1.006   0.722   0.469 -0.0047  0.9792 -0.0351
   50MOL   O78147919   0.906   0.646   0.469 -0.0883 -0.6882  0.2327
   50MOL   C78247920   1.025   0.827   0.358 -0.1512 -0.2138  0.6189
   50MOL   C78347921   0.901   0.844   0.265  0.1907 -0.4339 -0.3941
   50MOL   C78447922   0.922   0.945   0.153  0.2082  0.7778  0.1645
   50MOL   C78547923   0.926   1.090   0.202  0.6530  0.2911 -0.1621
   50MOL   C78647924   0.924   1.191   0.083 -0.3343  0.1362 -0.1319
   50MOL   C78747925   0.918   1.335   0.131 -0.3003 -0.2754 -0.3001
   50MOL   C78847926   0.959   1.428   0.023  0.2762 -0.1568  0.2755
   50MOL   C78947927   0.989   1.571   0.072 -0.2925  0.4263 -0.2228
   50MOL   C79047928   0.879   1.637   0.161 -0.1723  0.4621  0.5337
   50MOL   O79147929   0.828   1.576   0.248 -0.1808 -0.2973 -0.0383
   50MOL   H79247930   1.462   0.327   0.451 -0.0953  0.7362  0.7713
   50MOL   H79347931   1.240   0.494   0.471 -0.8709 -0.5986  0.8453
   50MOL   H79447932   1.287   0.364   0.588 -0.5386 -0.8500 -2.3809
   50MOL   H79547933   1.576   0.478   0.637  0.0053  0.0593 -1.2109
   50MOL   H79647934   1.647   0.640   0.819  0.5263 -0.9449  1.0875
   50MOL   H79747935   1.487   0.789   0.924  1.0927  0.3633 -0.2644
   50MOL   H79847936   1.238   0.763   0.871 -1.9993 -1.9559  0.0877
   50MOL   H79947937   1.048   0.655   0.739  0.4827  2.5603 -0.0515
   50MOL   H80047938   1.093   0.528   0.626 -0.6464  0.1391  0.1748
   50MOL   H80147939   1.189   0.774   0.539  1.2860 -0.2022  1.2167
   50MOL   H80247940   1.115   0.808   0.299  0.4362  0.7561  1.1931
   50MOL   H80347941   1.046   0.923   0.405 -1.6004  0.6479 -0.4542
   50MOL   H80447942   0.816   0.888   0.318  0.3450  0.6500 -1.0416
   50MOL   H80547943   0.864   0.745   0.235 -1.8259  0.1375  0.1374
   50MOL   H80647944   0.832   0.930   0.094 -0.3660  1.2750  0.9163
   50MOL   H80747945   1.003   0.931   0.081 -0.3343 -1.0330 -0.1231
   50MOL   H80847946   0.843   1.109   0.270  1.2575  0.8169  0.4231
   50MOL   H80947947   1.015   1.094   0.263  1.5262 -0.7761 -1.3359
   50MOL   H81047948   1.021   1.182   0.035  0.9670  0.9179  2.2912
   50MOL   H81147949   0.850   1.158   0.010  0.7659 -1.4191 -0.5499
   50MOL   H81247950   0.966   1.354   0.227  0.4397 -3.2711 -0.0329
   50MOL   H81347951   0.811   1.346   0.150 -0.3426 -2.1209  0.6522
   50MOL   H81447952   0.883   1.421   7.735  0.0187 -1.6284  0.6430
   50MOL   H81547953   1.045   1.387   7.761 -0.6420 -2.2917  0.3840
   50MOL   H81647954   0.998   1.632   7.772  0.2095  2.2398  1.0225
   50MOL   H81747955   1.082   1.569   0.129  1.3035 -0.5484 -2.7832
   50MOL   N81847956   0.839   1.762   0.131 -0.7043 -0.3345 -0.4578
   50MOL   C81947957   0.727   1.831   0.189 -1.0009 -0.1352  0.3824
   50MOL   C82047958   0.723   1.980   0.145  0.1386  0.1960  0.0880
   50MOL   C82147959   0.663   2.012   0.023  0.0608 -1.3686  0.0736
   50MOL   C82247960   0.666   2.144   7.765 -0.4325  0.4372  0.2645
   50MOL   C82347961   0.744   2.242   0.042 -0.0313 -0.4046 -0.5152
   50MOL   C82447962   0.807   2.214   0.165  0.0285  0.1301 -0.2786
   50MOL   C82547963   0.798   2.079   0.215 -0.2063  0.7340  0.1302
   50MOL   C82647964   0.856   2.057   0.357 -0.2790  0.1596  0.4056
   50MOL   N82747965   0.783   2.126   0.457  0.5328 -0.2099 -0.1646
   50MOL   C82847966   0.824   2.158   0.582  0.7133 -0.1394 -0.4215
   50MOL   O82947967   0.934   2.131   0.618  0.3192  0.5583 -0.1605
   50MOL   C83047968   0.728   2.215   0.687 -0.0259  0.3852 -0.4568
   50MOL   C83147969   0.776   2.191   0.833  0.0764 -0.3077  0.3081
   50MOL   C83247970   0.673   2.224   0.947 -0.4513  0.2199  0.2720
   50MOL   C83347971   0.631   2.371   0.938  0.2268 -0.3007 -0.4214
   50MOL   C83447972   0.540   2.423   1.050  0.0827 -0.9630  0.1843
   50MOL   C83547973   0.409   2.361   1.047 -0.1612 -0.4208 -0.6282
   50MOL   C83647974   0.304   2.414   1.150  0.3997 -0.7714 -0.8459
   50MOL   C83747975   0.163   2.377   1.111 -0.4994  0.7075 -0.4335
   50MOL   C83847976   0.064   2.464   1.182  0.3018  0.1337 -0.6038
   50MOL   O83947977   0.098   2.572   1.227 -0.2445  0.5909  0.4438
   50MOL   H84047978   0.869   1.806   0.045  1.8925 -1.8250 -0.3892
   50MOL   H84147979   0.640   1.786   0.140 -0.7325  2.2964 -2.4501
   50MOL   H84247980   0.727   1.814   0.296  3.6234 -3.5232  0.0194
   50MOL   H84347981   0.596   1.937   7.772  0.2860 -2.2038  1.2115
   50MOL   H84447982   0.616   2.180   7.677  0.9513  2.9576  0.4468
   50MOL   H84547983   0.748   2.345   0.009 -0.6236  0.0541  0.8234
   50MOL   H84647984   0.868   2.282   0.223 -0.8955  0.3918  0.4060
   50MOL   H84747985   0.955   2.101   0.346 -0.7523  1.3888  0.9396
   50MOL   H84847986   0.865   1.949   0.365  0.3697 -0.0329 -2.5204
   50MOL   H84947987   0.684   2.136   0.441  0.7911  1.2484 -0.9033
   50MOL   H85047988   0.627   2.177   0.671  0.0293 -0.0614  0.2298
   50MOL   H85147989   0.739   2.322   0.671 -3.0523  0.6336 -1.2274
   50MOL   H85247990   0.858   2.260   0.853 -0.4882 -0.0085  1.6747
   50MOL   H85347991   0.815   2.091   0.845  0.8156 -0.1502 -0.7180
   50MOL   H85447992   0.720   2.212   1.044 -0.0285 -1.8366 -0.1752
   50MOL   H85547993   0.588   2.157   0.934 -1.3367  1.1825  0.9809
   50MOL   H85647994   0.718   2.435   0.951 -1.0778  1.3317  0.4348
   50MOL   H85747995   0.606   2.412   0.840 -3.2056  0.4460  0.7014
   50MOL   H85847996   0.590   2.399   1.144  2.2495  0.6011 -0.5232
   50MOL   H85947997   0.533   2.531   1.048 -0.6592 -0.9791  1.2372
   50MOL   H86047998   0.424   2.253   1.054  0.1184 -0.3928 -0.8017
   50MOL   H86147999   0.364   2.381   0.950  0.4134  1.7311 -0.4618
   50MOL   H86248000   0.316   2.522   1.156 -3.6933 -0.1795 -2.2805
   50MOL   H86348001   0.325   2.377   1.251 -0.7483 -2.0908 -1.0742
   50MOL   H86448002   0.124   2.366   1.010 -1.6831  2.7909 -0.2456
   50MOL   H86548003   0.148   2.273   1.140  4.2202  0.3141  1.0003
   50MOL   N86648004   7.725   2.415   1.186  0.2013 -0.0985 -0.3602
   50MOL   C86748005   7.616   2.483   1.252 -0.1156  0.9992 -0.7965
   50MOL   C86848006   7.491   2.393   1.274 -0.5349 -0.1360  0.2945
   50MOL   C86948007   7.503   2.254   1.248  0.4258 -0.0135  0.1114
   50MOL   C87048008   7.400   2.171   1.283  1.1152 -0.3919  0.2063
   50MOL   C87148009   7.282   2.220   1.343  0.3486 -0.4205  0.2034
   50MOL   C87248010   7.267   2.361   1.362  0.6178  0.4340 -0.3679
   50MOL   C87348011   7.375   2.446   1.334 -0.2778  0.3315  0.4861
   50MOL   C87448012   7.365   2.593   1.366 -0.4130  0.1028  0.1387
   50MOL   N87548013   7.255   2.637   1.438  0.1245 -0.3714  0.1943
   50MOL   C87648014   7.140   2.700   1.405  0.6164 -0.2369 -0.6858
   50MOL   O87748015   7.111   2.738   1.293 -0.3697 -0.2639 -0.0458
   50MOL   C87848016   7.043   2.726   1.519 -0.3145  0.5155 -0.2294
   50MOL   C87948017   6.892   2.699   1.492 -0.3171 -0.3889  0.0025
   50MOL   C88048018   6.827   2.808   1.408  0.3409 -0.4720  0.1164
   50MOL   C88148019   6.688   2.780   1.371  0.2867  0.3254 -0.1315
   50MOL   C88248020   6.603   2.901   1.324  0.1812  0.0254 -0.1343
   50MOL   C88348021   6.460   2.852   1.300  0.3914 -0.5429  0.4504
   50MOL   C88448022   6.370   2.970   1.278  0.6717 -0.1991  0.5078
   50MOL   C88548023   6.355   3.010   1.133 -0.7413 -0.7956 -0.8134
   50MOL   C88648024   6.273   2.907   1.058 -0.8562 -0.1641  0.7708
   50MOL   O88748025   6.189   2.835   1.106  0.1098  0.7041 -0.2539
   50MOL   H88848026   7.696   2.343   1.121  0.0413  0.7338 -1.2186
   50MOL   H88948027   7.652   2.520   1.347 -0.4956  1.1398 -0.7052
   50MOL   H89048028   7.594   2.574   1.196 -0.5988  0.9713 -0.6536
   50MOL   H89148029   7.591   2.211   1.202 -0.8505 -1.1663 -1.2870
   50MOL   H89248030   7.416   2.067   1.258 -2.6023 -1.1485  0.7314
   50MOL   H89348031   7.199   2.155   1.367 -0.8689  0.3946 -1.7122
   50MOL   H89448032   7.181   2.400   1.414 -0.2319  1.1062 -2.2347
   50MOL   H89548033   7.363   2.639   1.268  1.9194 -1.9701 -0.9413
   50MOL   H89648034   7.454   2.626   1.421  0.8409 -1.9164 -0.6346
   50MOL   H89748035   7.247   2.598   1.530  1.1191 -0.3836  0.2772
   50MOL   H89848036   7.038   2.828   1.559  0.8670  0.5147 -0.0699
   50MOL   H89948037   7.076   2.655   1.594  0.1723  1.3628  0.3626
   50MOL   H90048038   6.855   2.675   1.592  1.0068 -1.0712  0.3356
   50MOL   H90148039   6.883   2.606   1.437  1.1958  0.1180 -1.1284
   50MOL   H90248040   6.831   2.906   1.457  2.8161 -0.7954  0.6096
   50MOL   H90348041   6.878   2.832   1.315 -1.6050  1.6768 -0.4426
   50MOL   H90448042   6.697   2.711   1.288 -2.4429  0.6352 -0.7138
   50MOL   H90548043   6.632   2.725   1.447 -1.3274  0.5722 -1.1200
   50MOL   H90648044   6.602   2.973   1.406 -3.4547 -1.1116  0.9480
   50MOL   H90748045   6.645   2.946   1.234 -0.2512 -0.7175 -0.7137
   50MOL   H90848046   6.427   2.799   1.389 -0.6581  0.3511  0.6093
   50MOL   H90948047   6.458   2.787   1.213  1.7981 -0.1732  0.1239
   50MOL   H91048048   6.272   2.941   1.317  1.0061 -0.5597  1.0892
   50MOL   H91148049   6.405   3.063   1.323  0.0463  0.3565 -0.1486
   50MOL   H91248050   6.309   3.109   1.126 -1.4684 -0.9055  2.0260
   50MOL   H91348051   6.454   3.021   1.089  0.8390 -0.6574  2.5964
   50MOL   N91448052   6.307   2.891   0.934 -0.4465  0.1489 -0.4104
   50MOL   C91548053   6.252   2.795   0.844 -0.1830 -0.4585 -0.7883
   50MOL   C91648054   6.159   2.863   0.738  0.0529 -0.2010  0.2002
   50MOL   C91748055   6.022   2.858   0.762  0.3021 -0.2643  0.1605
   50MOL   C91848056   5.929   2.886   0.661  0.9483  0.3446 -0.1111
   50MOL   C91948057   5.971   2.931   0.533 -0.6148  0.0206 -0.2584
   50MOL   C92048058   6.108   2.943   0.509  0.4642  0.3750 -0.4152
   50MOL   C92148059   6.202   2.908   0.608  0.4199 -0.2811  0.2273
   50MOL   C92248060   6.351   2.934   0.585  0.4175  0.2569  0.1238
   50MOL   N92348061   6.379   3.074   0.598  0.1153 -0.1603  0.1504
   50MOL   C92448062   6.447   3.135   0.700 -0.0017 -0.1641  1.0150
   50MOL   O92548063   6.497   3.072   0.794  0.2137  0.2205  0.3460
   50MOL   C92648064   6.445   3.286   0.701  0.2642  0.0629  0.0706
   50MOL   C92748065   6.387   3.345   0.827  0.4903 -0.0530  0.0346
   50MOL   C92848066   6.227   3.325   0.841 -0.0398  0.5999 -0.3989
   50MOL   C92948067   6.160   3.365   0.978 -0.1986 -0.3952 -0.1619
   50MOL   C93048068   6.008   3.349   1.002  0.2904  0.2537  0.6099
   50MOL   C93148069   5.973   3.201   0.999 -0.7789 -0.6327 -0.1072
   50MOL   C93248070   5.842   3.161   1.063 -0.1170 -0.2707 -0.0093
   50MOL   C93348071   5.829   3.014   1.107 -0.1047 -0.3540 -0.0554
   50MOL   C93448072   5.907   2.987   1.236 -0.2624 -0.6427  0.5249
   50MOL   O93548073   5.875   3.040   1.341 -0.2296  0.5971  0.0662
   50MOL   H93648074   6.368   2.961   0.896  0.5694  0.8139  2.3111
   50MOL   H93748075   6.335   2.749   0.790 -0.6790  1.6741 -3.4788
   50MOL   H93848076   6.196   2.710   0.882  0.6081 -1.3804 -1.6462
   50MOL   H93948077   5.989   2.837   0.863  0.2122  1.5373  0.5160
   50MOL   H94048078   5.822   2.878   0.672  1.3396 -1.6475  2.8550
   50MOL   H94148079   5.900   2.956   0.455 -1.3257 -1.4876 -0.1210
   50MOL   H94248080   6.150   2.975   0.415 -0.4514 -0.1948 -1.0174
   50MOL   H94348081   6.382   2.917   0.482  2.1109  2.9228  0.1398
   50MOL   H94448082   6.420   2.871   0.640  0.8200 -1.1509 -1.9267
   50MOL   H94548083   6.330   3.132   0.532 -1.0047 -0.0839  1.0304
   50MOL   H94648084   6.399   3.322   0.610 -0.7467 -1.4891 -0.0516
   50MOL   H94748085   6.545   3.328   0.710  0.3666  0.0465 -0.9534
   50MOL   H94848086   6.412   3.451   0.833 -0.6494  0.1951  0.5867
   50MOL   H94948087   6.422   3.301   0.920  0.4345  0.4644  0.2987
   50MOL   H95048088   6.177   3.393   0.772  0.1269 -0.0782 -1.1835
   50MOL   H95148089   6.200   3.225   0.810  2.3173 -0.1030 -0.2659
   50MOL   H95248090   6.213   3.327   1.065  1.4911 -0.8071 -1.3418
   50MOL   H95348091   6.193   3.467   0.996 -2.4802  0.0341  1.9251
   50MOL   H95448092   5.954   3.405   0.926  1.2302 -0.6620 -0.7639
   50MOL   H95548093   5.992   3.394   1.100  0.9717  0.8253  0.4690
   50MOL   H95648094   5.985   3.150   0.903  1.5181 -1.4655  0.5907
   50MOL   H95748095   6.053   3.152   1.055 -1.1906 -0.3221  0.7634
   50MOL   H95848096   5.776   3.179   0.978 -0.4070 -2.4218 -0.2528
   50MOL   H95948097   5.819   3.233   1.142 -0.5743  1.0543 -1.3332
   50MOL   H96048098   5.859   2.948   1.026  0.5017  2.0104 -1.8360
   50MOL   H96148099   5.723   2.996   1.124 -0.0577 -0.6391 -0.0649
   50MOL   H96248100   5.988   2.914   1.242 -1.2665 -2.0385 -2.0478
   51MOL     N148101   6.473   5.937   6.105  0.5741  0.4436 -0.0256
   51MOL     C248102   6.430   6.059   6.171  0.1069  0.2921 -0.5032
   51MOL     C348103   6.283   6.076   6.143  0.0066 -1.2945 -1.1844
   51MOL     C448104   6.240   6.174   6.053 -0.7432  0.1854 -0.1912
   51MOL     C548105   6.101   6.196   6.041 -0.3579  0.4027 -0.2765
   51MOL     C648106   6.008   6.103   6.097 -0.6838 -0.1488  0.0158
   51MOL     C748107   6.058   6.007   6.192  0.4687 -0.1283 -0.2423
   51MOL     C848108   6.192   6.001   6.220 -0.2256  0.3492  0.7879
   51MOL     C948109   6.234   5.898   6.327 -0.8940  0.4223 -0.8139
   51MOL    N1048110   6.294   5.773   6.273  0.5711 -0.4235 -0.3710
   51MOL    C1148111   6.278   5.646   6.310  0.3469 -0.1061  0.4766
   51MOL    O1248112   6.191   5.618   6.389 -0.4386 -0.1218  0.0835
   51MOL    C1348113   6.371   5.544   6.245  0.2949 -0.4224 -0.5544
   51MOL    C1448114   6.301   5.409   6.214 -0.8148 -0.1135  0.5991
   51MOL    C1548115   6.188   5.431   6.120  0.3730 -0.2947  0.0146
   51MOL    C1648116   6.101   5.312   6.083 -0.4443 -0.3081 -0.2220
   51MOL    C1748117   6.173   5.179   6.042 -0.9684  0.3110  0.8455
   51MOL    C1848118   6.254   5.195   5.911  0.1040 -0.1647  0.6313
   51MOL    C1948119   6.299   5.071   5.839 -0.1458 -0.1763 -0.4087
   51MOL    C2048120   6.180   4.996   5.763 -0.2401  0.5022 -0.0928
   51MOL    C2148121   6.196   4.847   5.736 -0.5025  0.5244 -0.2657
   51MOL    O2248122   6.100   4.767   5.731  0.2533  0.0040  0.1800
   51MOL    H2348123   6.556   5.963   6.053 -0.1274  1.8237 -0.4811
   51MOL    H2448124   6.457   6.066   6.276  2.0634 -0.1742 -0.9496
   51MOL    H2548125   6.480   6.143   6.123  0.3534 -0.1949 -1.1178
   51MOL    H2648126   6.314   6.233   6.000 -0.1155 -0.1215  0.3443
   51MOL    H2748127   6.054   6.270   5.978  0.5975  0.8116 -0.5077
   51MOL    H2848128   5.903   6.102   6.076 -0.2211 -2.4961 -2.3581
   51MOL    H2948129   5.994   5.943   6.251 -0.2873 -0.1769 -1.1000
   51MOL    H3048130   6.150   5.872   6.392  0.8699 -1.2624  0.8602
   51MOL    H3148131   6.308   5.938   6.396 -0.7056 -1.2071 -0.0457
   51MOL    H3248132   6.339   5.802   6.187 -0.1084 -0.9762 -0.9267
   51MOL    H3348133   6.455   5.523   6.311 -1.0774  2.2127  2.1903
   51MOL    H3448134   6.414   5.598   6.161 -1.6374 -1.9247 -2.5412
   51MOL    H3548135   6.286   5.349   6.304 -1.2836  0.0909  0.6596
   51MOL    H3648136   6.376   5.359   6.154 -1.3083 -3.0503  2.3153
   51MOL    H3748137   6.122   5.515   6.142 -1.3440 -1.9295  1.2477
   51MOL    H3848138   6.237   5.455   6.025 -0.3484  1.2366  0.0092
   51MOL    H3948139   6.053   5.290   6.179  0.9312 -0.4149  0.4651
   51MOL    H4048140   6.016   5.335   6.019 -2.5163 -0.1360  2.4502
   51MOL    H4148141   6.237   5.135   6.119 -2.2199 -0.7930  1.2727
   51MOL    H4248142   6.104   5.095   6.030 -0.2106 -0.2942  0.6535
   51MOL    H4348143   6.347   5.252   5.919  0.5339 -0.5043 -1.4502
   51MOL    H4448144   6.189   5.248   5.842  0.5581 -0.8120 -0.3032
   51MOL    H4548145   6.365   5.102   5.758  0.6103  1.0109  0.6494
   51MOL    H4648146   6.349   5.002   5.907  0.8271 -0.8939 -1.8084
   51MOL    H4748147   6.151   5.037   5.666  2.6818 -1.8346 -2.0365
   51MOL    H4848148   6.095   5.001   5.831  0.8166 -0.9540  1.3689
   51MOL    H4948149   6.404   5.918   6.033  1.6930  1.0865 -1.2813
   51MOL    N5048150   6.321   4.799   5.714  0.0244  0.5809  0.3561
   51MOL    C5148151   6.363   4.656   5.682  0.1942 -0.9316  0.0530
   51MOL    C5248152   6.497   4.627   5.751  0.1269 -0.3646 -0.3467
   51MOL    C5348153   6.615   4.603   5.670 -0.0164 -0.4544 -0.0169
   51MOL    C5448154   6.749   4.587   5.723 -0.0803 -0.5631 -0.7331
   51MOL    C5548155   6.757   4.584   5.865  0.2663  0.1102 -0.2752
   51MOL    C5648156   6.640   4.592   5.949 -0.2768 -0.2365  0.2274
   51MOL    C5748157   6.519   4.620   5.890 -0.6277  0.2926 -0.0465
   51MOL    C5848158   6.400   4.643   5.988 -0.1835 -0.5768 -0.2020
   51MOL    N5948159   6.427   4.758   6.079  0.1734 -0.9183 -0.4264
   51MOL    C6048160   6.333   4.813   6.153 -0.0788  0.3336  0.3132
   51MOL    O6148161   6.217   4.779   6.148 -0.1616  0.7835 -0.5085
   51MOL    C6248162   6.381   4.908   6.258  0.8211 -0.2453 -0.0451
   51MOL    C6348163   6.303   4.915   6.390 -0.0263  0.8469 -0.4165
   51MOL    C6448164   6.260   4.781   6.459  0.6127 -0.3208 -0.4576
   51MOL    C6548165   6.383   4.686   6.467 -0.0357 -0.2019  0.0123
   51MOL    C6648166   6.338   4.549   6.520  0.1264 -0.1305 -1.2517
   51MOL    C6748167   6.446   4.446   6.523  0.0009  0.2606  0.2748
   51MOL    C6848168   6.499   4.394   6.388 -0.4682 -0.2821 -0.5840
   51MOL    C6948169   6.636   4.323   6.399  0.2890 -0.2103 -0.3300
   51MOL    C7048170   6.691   4.267   6.265  0.1228 -0.2116 -0.1668
   51MOL    O7148171   6.647   4.319   6.159 -0.7091 -0.0994  0.1733
   51MOL    H7248172   6.395   4.867   5.723  1.3706 -1.0915  2.2164
   51MOL    H7348173   6.371   4.649   5.574  0.6901  1.3437 -0.0866
   51MOL    H7448174   6.283   4.586   5.706  0.3211 -0.8891  0.6111
   51MOL    H7548175   6.624   4.606   5.563 -0.5267 -0.4091 -0.0562
   51MOL    H7648176   6.838   4.582   5.663  0.9892 -0.3176  0.7966
   51MOL    H7748177   6.857   4.572   5.905 -1.4108 -0.4745  3.9027
   51MOL    H7848178   6.644   4.577   6.056 -1.0302  1.0152  0.4350
   51MOL    H7948179   6.388   4.562   6.059  1.2747 -1.6729 -1.1938
   51MOL    H8048180   6.308   4.647   5.929  0.2865  0.3936 -0.8915
   51MOL    H8148181   6.521   4.792   6.094 -0.6094  0.4634  1.5881
   51MOL    H8248182   6.388   5.005   6.209 -0.3461  0.6148  1.4349
   51MOL    H8348183   6.485   4.880   6.273  0.6062  0.8294  4.0624
   51MOL    H8448184   6.212   4.971   6.369 -1.4464 -1.3319 -0.3051
   51MOL    H8548185   6.369   4.975   6.452  0.8015 -0.6956  0.2080
   51MOL    H8648186   6.211   4.789   6.557  1.7261 -1.1829  0.1814
   51MOL    H8748187   6.182   4.744   6.393 -1.2839 -0.7441  1.9071
   51MOL    H8848188   6.437   4.680   6.373 -1.5065  0.5896 -0.8854
   51MOL    H8948189   6.453   4.744   6.528 -0.9627 -0.3494  1.2242
   51MOL    H9048190   6.292   4.553   6.619  1.4384  0.0077 -0.6236
   51MOL    H9148191   6.254   4.515   6.461  0.4414 -0.2669 -1.6259
   51MOL    H9248192   6.402   4.357   6.569 -0.8099  0.7025  0.3569
   51MOL    H9348193   6.535   4.466   6.583 -0.8360  2.0760  0.9298
   51MOL    H9448194   6.499   4.466   6.306  1.4675 -0.1582 -0.4959
   51MOL    H9548195   6.426   4.317   6.362  0.6587 -1.2306 -0.9911
   51MOL    H9648196   6.634   4.230   6.454 -1.7613 -0.6155 -1.0531
   51MOL    H9748197   6.715   4.386   6.440  1.3060 -1.1500 -0.8134
   51MOL    N9848198   6.785   4.173   6.268  0.7173  0.1651 -0.0659
   51MOL    C9948199   6.854   4.122   6.147 -0.4753  0.1894 -0.7467
   51MOL   C10048200   6.935   4.228   6.072 -0.2624 -0.8520  0.7656
   51MOL   C10148201   7.045   4.285   6.141  0.4495  0.2019 -0.3047
   51MOL   C10248202   7.128   4.383   6.082  0.4789 -0.5130  0.2379
   51MOL   C10348203   7.122   4.402   5.946 -0.0403 -0.6963 -0.6590
   51MOL   C10448204   7.013   4.345   5.874 -0.4319 -0.4408  0.7458
   51MOL   C10548205   6.919   4.258   5.936 -0.8376 -0.4097  0.2817
   51MOL   C10648206   6.809   4.188   5.855 -0.0861 -0.3770 -0.0029
   51MOL   N10748207   6.674   4.241   5.890 -0.2033 -0.5873 -0.4502
   51MOL   C10848208   6.558   4.205   5.839  0.0472  0.5420 -0.7158
   51MOL   O10948209   6.546   4.120   5.750 -0.3806  0.4117 -0.3194
   51MOL   C11048210   6.439   4.296   5.880  0.1652 -0.3463  0.2368
   51MOL   C11148211   6.342   4.226   5.977  0.1512  0.3336 -0.5593
   51MOL   C11248212   6.296   4.082   5.942  0.6303  0.1324 -0.6743
   51MOL   C11348213   6.181   4.027   6.034  0.0402  0.4533 -0.4917
   51MOL   C11448214   6.139   3.890   5.985 -0.7346 -0.0285 -0.9343
   51MOL   C11548215   6.037   3.824   6.081  0.2790  0.1847  0.3631
   51MOL   C11648216   6.001   3.677   6.034 -0.0104  0.5137 -0.3803
   51MOL   C11748217   5.897   3.600   6.115 -0.1234  0.2457  0.2799
   51MOL   C11848218   5.867   3.462   6.056 -0.4116 -0.1479  0.2084
   51MOL   O11948219   5.764   3.406   6.069 -0.4160 -0.0667  0.1553
   51MOL   H12048220   6.810   4.154   6.364  0.6489 -0.6424 -0.2034
   51MOL   H12148221   6.906   4.030   6.177 -0.3992  1.0315  1.7900
   51MOL   H12248222   6.779   4.081   6.080 -2.4323  2.9081 -0.2732
   51MOL   H12348223   7.058   4.262   6.246 -1.6341 -1.0225 -0.2922
   51MOL   H12448224   7.208   4.428   6.138  0.5308  0.0795 -0.3042
   51MOL   H12548225   7.184   4.471   5.890 -1.9398  0.2754 -1.6360
   51MOL   H12648226   7.023   4.358   5.768 -0.6562 -2.2743  0.4976
   51MOL   H12748227   6.805   4.080   5.866 -0.1141 -0.5305 -1.4760
   51MOL   H12848228   6.827   4.203   5.749  2.6953  1.0754  0.6432
   51MOL   H12948229   6.671   4.301   5.971 -1.5524 -0.4301 -0.6195
   51MOL   H13048230   6.401   4.332   5.785  0.2141 -0.3608  0.2119
   51MOL   H13148231   6.491   4.380   5.927  0.8243 -2.0823  2.7357
   51MOL   H13248232   6.250   4.284   5.981 -0.7870 -1.1948  0.8068
   51MOL   H13348233   6.384   4.230   6.078  0.9090 -0.6885 -0.8291
   51MOL   H13448234   6.271   4.074   5.836  1.5163 -1.5952 -0.7682
   51MOL   H13548235   6.381   4.014   5.948 -1.5719 -2.7057 -0.1620
   51MOL   H13648236   6.220   4.021   6.135 -0.7819 -0.0057 -0.1946
   51MOL   H13748237   6.097   4.096   6.035  0.7648  1.4428 -3.2238
   51MOL   H13848238   6.105   3.905   5.883 -2.3706  2.1487 -0.1328
   51MOL   H13948239   6.226   3.825   5.983 -0.7817 -0.4151  3.3643
   51MOL   H14048240   5.949   3.888   6.089 -0.8410 -0.9595 -2.1348
   51MOL   H14148241   6.079   3.823   6.181  2.0553 -0.4821 -0.3715
   51MOL   H14248242   5.967   3.681   5.931  0.4236 -3.0096 -0.7203
   51MOL   H14348243   6.092   3.619   6.023  1.1684  1.7335  2.4578
   51MOL   H14448244   5.805   3.659   6.120  0.0501  0.4559  1.0530
   51MOL   H14548245   5.938   3.592   6.216 -1.0497  1.8862  0.8096
   51MOL   N14648246   5.952   3.414   5.968  0.8191 -0.1571  0.4871
   51MOL   C14748247   5.944   3.280   5.902 -0.3796 -0.2334 -0.9009
   51MOL   C14848248   5.984   3.269   5.754  0.1629  0.7171  0.4991
   51MOL   C14948249   5.968   3.383   5.676 -0.5367 -0.3867  0.0616
   51MOL   C15048250   6.005   3.373   5.540 -0.4335  0.7669 -0.1405
   51MOL   C15148251   6.044   3.252   5.478  0.7736 -0.0679 -0.8074
   51MOL   C15248252   6.074   3.137   5.560 -0.2065 -0.2192  0.0670
   51MOL   C15348253   6.037   3.146   5.700 -0.5963  0.2422 -0.2132
   51MOL   C15448254   6.051   3.027   5.787  0.3175  0.9966  0.7661
   51MOL   N15548255   6.149   2.937   5.731 -0.5872 -0.1126  0.4515
   51MOL   C15648256   6.193   2.831   5.796  0.5001  0.4736 -0.1724
   51MOL   O15748257   6.174   2.812   5.913  0.3882 -0.0082 -0.6440
   51MOL   C15848258   6.288   2.745   5.720  0.5710 -0.6879  0.0726
   51MOL   C15948259   6.434   2.782   5.730  0.1503  0.6675  0.0628
   51MOL   C16048260   6.511   2.696   5.632 -0.5359  0.1064  0.8835
   51MOL   C16148261   6.656   2.727   5.628  0.5441  0.4921 -0.2585
   51MOL   C16248262   6.723   2.688   5.501 -1.2361 -0.2414  0.7979
   51MOL   C16348263   6.804   2.560   5.514 -0.5427 -0.1341  0.2095
   51MOL   C16448264   6.871   2.525   5.378 -0.7295  0.8238  0.0767
   51MOL   C16548265   6.945   2.383   5.394  0.2875  0.8875  0.1873
   51MOL   C16648266   7.033   2.353   5.267  0.1688 -0.4514 -0.1155
   51MOL   O16748267   7.143   2.411   5.258  0.1540 -0.2527  0.4887
   51MOL   H16848268   6.035   3.467   5.946  0.4408  0.0679 -0.4411
   51MOL   H16948269   5.839   3.252   5.904 -0.5875  0.5735 -0.0968
   51MOL   H17048270   5.998   3.207   5.962 -0.4248 -0.9557 -1.7378
   51MOL   H17148271   5.934   3.479   5.710  0.6955  0.3070 -0.6100
   51MOL   H17248272   5.999   3.461   5.478  1.7277  0.4169 -0.8899
   51MOL   H17348273   6.075   3.237   5.376 -0.9767 -1.0595 -1.2283
   51MOL   H17448274   6.118   3.046   5.521 -1.3499 -0.9621  0.5044
   51MOL   H17548275   5.960   2.966   5.785  0.2559  1.1118 -0.9452
   51MOL   H17648276   6.089   3.041   5.888  0.3809  0.5730  0.8029
   51MOL   H17748277   6.159   2.938   5.631  2.2063  1.1373  0.6951
   51MOL   H17848278   6.249   2.752   5.619  0.1969 -2.2587  0.1059
   51MOL   H17948279   6.282   2.644   5.759  1.0862 -0.3777  0.9720
   51MOL   H18048280   6.463   2.756   5.831 -2.0055 -0.1005  0.5187
   51MOL   H18148281   6.442   2.889   5.712  1.0363  0.8041  1.2135
   51MOL   H18248282   6.486   2.594   5.661 -1.4885  0.5742  1.7263
   51MOL   H18348283   6.466   2.715   5.534  2.2406  1.5622 -0.1777
   51MOL   H18448284   6.670   2.835   5.632  0.7890  0.5081 -1.5302
   51MOL   H18548285   6.703   2.682   5.716 -2.2797 -0.8285  0.6396
   51MOL   H18648286   6.652   2.686   5.419 -0.1455  3.1719 -0.3577
   51MOL   H18748287   6.789   2.769   5.468 -0.9073 -0.8264  0.0141
   51MOL   H18848288   6.753   2.472   5.554  0.7940  0.0443  2.4076
   51MOL   H18948289   6.893   2.585   5.571  0.6573 -4.2818  0.3631
   51MOL   H19048290   6.801   2.504   5.296 -0.8324 -0.1805  0.4123
   51MOL   H19148291   6.941   2.600   5.343  1.2716 -1.1720 -0.3744
   51MOL   H19248292   6.875   2.304   5.421  0.7929  0.1152 -0.7146
   51MOL   H19348293   7.010   2.384   5.481  0.1500 -1.9422  0.3887
   51MOL   N19448294   6.993   2.256   5.180  0.4516  0.7412 -0.2531
   51MOL   C19548295   7.062   2.227   5.058 -0.7550  0.1669 -0.1910
   51MOL   C19648296   6.982   2.138   4.968  0.4196  0.1237 -0.2558
   51MOL   C19748297   6.855   2.187   4.922  0.4471 -0.1700 -0.3339
   51MOL   C19848298   6.787   2.113   4.828 -0.2920 -0.0326  0.1412
   51MOL   C19948299   6.841   1.990   4.774  0.5459 -0.4002 -0.3924
   51MOL   C20048300   6.955   1.934   4.835 -0.0105  0.1579 -0.0030
   51MOL   C20148301   7.027   2.012   4.926 -0.8305 -0.0019  0.9064
   51MOL   C20248302   7.160   1.958   4.980  0.1624  0.1580 -0.1298
   51MOL   N20348303   7.268   2.022   4.910 -0.5409  0.3121 -0.1092
   51MOL   C20448304   7.394   1.969   4.921 -0.7616  0.1956 -0.0518
   51MOL   O20548305   7.411   1.869   4.987 -0.2655  0.4638 -0.5867
   51MOL   C20648306   7.512   2.034   4.844 -0.6855 -0.1588 -0.3711
   51MOL   C20748307   7.596   1.940   4.758 -1.2729  0.2598  0.2408
   51MOL   C20848308   7.532   1.890   4.632  0.6028 -0.3062  0.7662
   51MOL   C20948309   7.620   1.799   4.549  0.7713  0.4637 -0.3489
   51MOL   C21048310   7.728   1.867   4.465 -0.3000  0.2340  0.5830
   51MOL   C21148311   0.029   1.765   4.389  0.4998  0.0487 -0.1054
   51MOL   C21248312   0.119   1.826   4.278  0.3793 -0.5107  0.9341
   51MOL   C21348313   0.045   1.851   4.146 -0.0430 -0.5697  0.5641
   51MOL   C21448314   0.117   1.977   4.091  0.3647  0.7286 -0.8060
   51MOL   O21548315   0.058   2.082   4.103  0.2730 -0.2771 -0.1804
   51MOL   H21648316   6.908   2.204   5.195  1.8375 -1.2824  0.8519
   51MOL   H21748317   7.077   2.321   5.005  1.6299 -1.0202 -1.7647
   51MOL   H21848318   7.163   2.197   5.087 -0.4296 -0.6687 -2.0700
   51MOL   H21948319   6.810   2.278   4.958  1.0414 -0.3184  0.7893
   51MOL   H22048320   6.692   2.149   4.791 -0.9975 -0.5933  1.3915
   51MOL   H22148321   6.778   1.940   4.701 -0.2097 -1.0637  0.7017
   51MOL   H22248322   7.005   1.841   4.810  0.6055  0.5427 -0.2104
   51MOL   H22348323   7.171   1.851   4.963  2.1146 -0.2202  3.1735
   51MOL   H22448324   7.166   1.974   5.087  0.9973  0.6456 -0.2409
   51MOL   H22548325   7.254   2.107   4.857  1.3208  1.8660  1.8048
   51MOL   H22648326   7.586   2.071   4.915 -0.7227 -1.2010  0.2309
   51MOL   H22748327   7.485   2.112   4.774  1.9042  1.0259 -0.0989
   51MOL   H22848328   7.688   1.996   4.736 -1.8162  1.1519  0.1998
   51MOL   H22948329   7.632   1.855   4.815 -0.4667  0.7542  0.4895
   51MOL   H23048330   7.449   1.829   4.669  0.1862  0.4066  1.0153
   51MOL   H23148331   7.484   1.968   4.574  2.0275 -0.8168 -1.1228
   51MOL   H23248332   7.667   1.721   4.609  2.3750  1.2924 -0.5284
   51MOL   H23348333   7.554   1.746   4.479  1.4890  0.7954 -1.2799
   51MOL   H23448334   7.682   1.941   4.400  3.2682  2.2854  0.2627
   51MOL   H23548335   7.787   1.931   4.530 -0.6065 -0.6031  1.7068
   51MOL   H23648336   7.749   1.696   4.342 -0.4719  0.7633  0.2850
   51MOL   H23748337   0.096   1.716   4.460  3.1176  1.9109 -1.2155
   51MOL   H23848338   0.206   1.771   4.244  0.1316  0.1478 -0.8467
   51MOL   H23948339   0.154   1.921   4.319  1.1297 -0.2454 -0.2761
   51MOL   H24048340   0.048   1.772   4.071  0.8130  0.8388 -0.9183
   51MOL   H24148341   7.730   1.871   4.165 -0.4918  1.2698 -3.3782
   51MOL   N24248342   0.244   1.967   4.054 -0.2953 -0.1882  0.6152
   51MOL   C24348343   0.328   2.080   4.021 -0.7026 -0.6734 -0.2165
   51MOL   C24448344   0.432   2.065   3.906 -0.2125  0.2741 -0.4803
   51MOL   C24548345   0.460   1.937   3.858  0.1877 -0.1570 -0.1792
   51MOL   C24648346   0.548   1.919   3.755  0.3735 -0.0690 -0.0950
   51MOL   C24748347   0.618   2.025   3.701 -0.3327 -0.0807  0.1995
   51MOL   C24848348   0.587   2.155   3.736 -0.1657  0.1721  0.2039
   51MOL   C24948349   0.504   2.173   3.847  0.2334 -0.4034 -0.0308
   51MOL   C25048350   0.485   2.319   3.900 -0.0463  0.6266  0.2859
   51MOL   N25148351   0.596   2.373   3.971 -0.4958 -0.4479 -0.2582
   51MOL   C25248352   0.631   2.501   3.986 -0.4290 -0.3249 -0.4133
   51MOL   O25348353   0.579   2.588   3.924 -0.5796 -0.2591  0.0412
   51MOL   C25448354   0.734   2.535   4.095  0.1628  0.4050  0.1209
   51MOL   C25548355   0.787   2.681   4.105 -0.4539  0.5232  0.5229
   51MOL   C25648356   0.907   2.692   4.003 -0.5152 -0.7604  1.0907
   51MOL   C25748357   0.938   2.841   3.972  0.2549  0.0426 -0.4261
   51MOL   C25848358   0.838   2.900   3.868  0.3535  0.1064  0.2931
   51MOL   C25948359   0.859   2.849   3.724 -0.0321  0.3784  0.0431
   51MOL   C26048360   0.767   2.923   3.624 -0.1471 -0.0792  0.3048
   51MOL   C26148361   0.769   2.862   3.482  0.1201 -0.6552 -0.8564
   51MOL   C26248362   0.887   2.897   3.398  0.2196 -0.9883  0.1622
   51MOL   O26348363   0.987   2.939   3.446 -0.5745 -0.0097 -0.0089
   51MOL   H26448364   0.292   1.878   4.057  4.0186  1.9963  0.2108
   51MOL   H26548365   0.262   2.162   3.992  0.2495  0.6761  1.3528
   51MOL   H26648366   0.383   2.122   4.105  0.3547 -2.0462 -0.2057
   51MOL   H26748367   0.407   1.849   3.894  0.1544 -0.1797 -0.2834
   51MOL   H26848368   0.557   1.820   3.713 -2.6615 -1.6811  2.8024
   51MOL   H26948369   0.679   2.019   3.612 -1.2814 -1.1617 -0.3826
   51MOL   H27048370   0.644   2.235   3.692 -1.2415  1.8920  1.8957
   51MOL   H27148371   0.393   2.335   3.958  0.1284  0.4952  0.6034
   51MOL   H27248372   0.478   2.385   3.814  0.5883  1.2963  0.7430
   51MOL   H27348373   0.630   2.319   4.049  2.5912  0.4861 -0.9231
   51MOL   H27448374   0.816   2.463   4.087 -0.5494 -0.3674 -0.3341
   51MOL   H27548375   0.703   2.509   4.196 -2.7180  0.0165 -0.8003
   51MOL   H27648376   0.825   2.704   4.205 -1.7180  0.1528  1.0999
   51MOL   H27748377   0.709   2.755   4.090 -1.7380 -1.0036 -0.5235
   51MOL   H27848378   0.903   2.635   3.911  0.4486  0.9016  0.0026
   51MOL   H27948379   0.989   2.634   4.046  0.1746  0.3116  1.2405
   51MOL   H28048380   0.956   2.890   4.068 -2.5414 -1.5067  0.9626
   51MOL   H28148381   1.040   2.835   3.934  1.1161 -1.0264  1.9389
   51MOL   H28248382   0.740   2.871   3.906  0.0630 -0.1571 -0.6642
   51MOL   H28348383   0.848   3.007   3.882 -0.8016 -0.0668  2.7993
   51MOL   H28448384   0.832   2.743   3.728 -0.4700  0.4991  0.4162
   51MOL   H28548385   0.965   2.856   3.702  0.1866  0.6061  1.1660
   51MOL   H28648386   0.665   2.922   3.664 -0.6655  2.3134 -0.8850
   51MOL   H28748387   0.792   3.029   3.628 -0.3656 -0.0598  1.3226
   51MOL   H28848388   0.756   2.756   3.501 -2.2093 -0.1140  0.8139
   51MOL   H28948389   0.680   2.901   3.431  0.1736 -0.0801 -0.5158
   51MOL   N29048390   0.885   2.849   3.275  0.1054  0.6656  0.7560
   51MOL   C29148391   1.000   2.859   3.190  0.5764 -0.1026  0.8119
   51MOL   C29248392   1.078   2.727   3.185  0.3482 -0.8027  0.0320
   51MOL   C29348393   1.140   2.675   3.303  0.3018  0.7116 -0.7008
   51MOL   C29448394   1.224   2.559   3.288 -0.8882 -0.0900 -0.2206
   51MOL   C29548395   1.224   2.494   3.167  0.8669  0.2143 -0.1754
   51MOL   C29648396   1.173   2.549   3.052 -0.6972  0.1306  0.0669
   51MOL   C29748397   1.097   2.667   3.059  0.5422 -0.8255 -0.7887
   51MOL   C29848398   1.026   2.715   2.935 -0.1589 -0.0005  0.1610
   51MOL   N29948399   0.886   2.670   2.923  0.2050 -0.6739 -0.0150
   51MOL   C30048400   0.808   2.733   2.835 -0.8662 -0.1745 -0.2084
   51MOL   O30148401   0.854   2.801   2.744 -0.1295  0.4200 -0.2538
   51MOL   C30248402   0.658   2.705   2.840  0.3030 -0.1982 -0.0392
   51MOL   C30348403   0.578   2.827   2.885 -0.1371 -0.5142  0.0806
   51MOL   C30448404   0.422   2.807   2.867 -0.2569  0.2040  0.1655
   51MOL   C30548405   0.349   2.736   2.982 -0.3536  0.2235  0.4597
   51MOL   C30648406   0.197   2.744   2.968 -0.0162  0.1033 -0.9201
   51MOL   C30748407   0.120   2.645   3.070 -0.3596 -0.4210 -0.2914
   51MOL   C30848408   7.758   2.627   3.030  0.1667  0.7177 -0.0491
   51MOL   C30948409   7.682   2.522   3.109  0.0499 -0.6870 -0.2618
   51MOL   C31048410   7.675   2.542   3.261  0.3839 -0.5584 -0.7978
   51MOL   O31148411   7.636   2.646   3.308  0.1969  0.1453  0.6774
   51MOL   H31248412   0.809   2.787   3.249  0.3973  1.2375 -1.6426
   51MOL   H31348413   0.953   2.905   3.103 -1.3543 -1.8966  0.8496
   51MOL   H31448414   1.066   2.941   3.216 -1.3508  1.7645  0.0048
   51MOL   H31548415   1.130   2.724   3.398 -0.4723  1.8256 -1.3430
   51MOL   H31648416   1.282   2.507   3.364 -1.6533  0.5764  0.8261
   51MOL   H31748417   1.285   2.405   3.162  0.6553  0.0555  0.0335
   51MOL   H31848418   1.214   2.501   2.965 -0.2498 -1.5734  1.2031
   51MOL   H31948419   1.093   2.676   2.859  0.8303  1.9085  0.0298
   51MOL   H32048420   1.024   2.823   2.924 -0.9010  0.0935  1.1240
   51MOL   H32148421   0.848   2.613   2.997 -1.4790  2.5452  1.7184
   51MOL   H32248422   0.626   2.669   2.742 -2.6117 -2.0097  1.5288
   51MOL   H32348423   0.638   2.620   2.905  0.0448 -1.1479 -1.3386
   51MOL   H32448424   0.618   2.908   2.825  1.2532 -2.3627 -1.5433
   51MOL   H32548425   0.603   2.849   2.989 -0.6162 -5.1676  1.3088
   51MOL   H32648426   0.403   2.762   2.769  2.4686 -0.9993  0.1487
   51MOL   H32748427   0.380   2.907   2.859  0.9131  0.8190  1.6341
   51MOL   H32848428   0.384   2.633   2.992 -0.0782  0.4178  1.5906
   51MOL   H32948429   0.373   2.784   3.077  1.1387  0.8934 -0.2257
   51MOL   H33048430   0.177   2.850   2.985  1.1554  0.5070 -1.9652
   51MOL   H33148431   0.167   2.717   2.867 -0.0077 -0.8781 -0.6623
   51MOL   H33248432   0.123   2.684   3.172 -1.4328 -3.5776  0.9945
   51MOL   H33348433   0.163   2.545   3.073  0.3596 -0.1051 -0.0814
   51MOL   H33448434   7.708   2.723   3.044  1.5510  1.7701 -2.0015
   51MOL   H33548435   7.739   2.609   2.924  1.2067 -0.3019 -0.0641
   51MOL   H33648436   7.578   2.517   3.076 -0.1040  1.1677 -0.1079
   51MOL   H33748437   7.721   2.425   3.079 -2.5091 -1.4513 -1.2642
   51MOL   N33848438   7.705   2.437   3.338  0.0751  0.3942 -0.1301
   51MOL   C33948439   7.707   2.431   3.479  0.1034  0.2824  0.0356
   51MOL   C34048440   0.022   2.337   3.536 -0.1248 -0.6600 -0.2701
   51MOL   C34148441   0.144   2.324   3.473 -0.6492 -0.2174 -0.4045
   51MOL   C34248442   0.241   2.227   3.527  0.1133  0.5551 -0.7959
   51MOL   C34348443   0.205   2.166   3.650  0.1258  0.4962  0.3024
   51MOL   C34448444   0.079   2.184   3.714 -0.0486  0.1741 -0.2884
   51MOL   C34548445   7.784   2.274   3.665  1.1106 -0.1341  0.0550
   51MOL   C34648446   7.654   2.296   3.739  0.2040 -0.6162  0.2465
   51MOL   N34748447   7.642   2.225   3.866  0.1903  0.0389  0.2356
   51MOL   C34848448   7.616   2.282   3.981 -0.6222  0.1067  0.0897
   51MOL   O34948449   7.609   2.400   3.999  0.5200 -0.1380 -0.0677
   51MOL   C35048450   7.576   2.180   4.093  0.9093 -0.3407  0.2665
   51MOL   C35148451   7.426   2.180   4.127  0.2266 -0.4715  0.2148
   51MOL   C35248452   7.337   2.175   4.009  0.8491  0.2651  0.5718
   51MOL   C35348453   7.185   2.182   4.047 -0.0165  0.2150  0.5029
   51MOL   C35448454   7.098   2.211   3.917  0.1550 -0.3189 -0.0303
   51MOL   C35548455   6.953   2.179   3.926 -0.5617 -0.8340 -0.4505
   51MOL   C35648456   6.921   2.024   3.901  0.1967 -0.7281  0.1275
   51MOL   C35748457   6.770   1.983   3.921 -0.0041  1.2087  0.0930
   51MOL   C35848458   6.738   1.849   3.859 -0.2621 -0.9794 -0.6047
   51MOL   O35948459   6.805   1.809   3.762  0.0628 -0.1151  0.3024
   51MOL   H36048460   7.740   2.354   3.292  0.1801  0.8318 -0.8541
   51MOL   H36148461   7.740   2.528   3.514 -3.3455  2.3456 -2.1219
   51MOL   H36248462   7.607   2.413   3.519 -0.1451 -1.3717 -1.2666
   51MOL   H36348463   0.170   2.382   3.386 -0.9215  1.3787  0.5597
   51MOL   H36448464   0.340   2.201   3.492  0.9257 -2.4803  3.3476
   51MOL   H36548465   0.278   2.103   3.698 -0.3873 -0.3969 -0.0769
   51MOL   H36648466   0.062   2.129   3.805  1.0847  0.1400 -0.0949
   51MOL   H36748467   7.566   2.267   3.683 -1.0351 -1.2365  2.4605
   51MOL   H36848468   7.648   2.402   3.761  2.9886 -0.3731 -0.0274
   51MOL   H36948469   7.645   2.126   3.849  1.6089 -0.0620  1.0570
   51MOL   H37048470   7.624   2.209   4.187  0.6084  1.6840 -0.1855
   51MOL   H37148471   7.600   2.076   4.070 -1.6059 -0.1585 -3.4816
   51MOL   H37248472   7.422   2.279   4.173  1.6031 -0.1575 -0.3374
   51MOL   H37348473   7.401   2.114   4.210  0.0927  0.6117  1.0444
   51MOL   H37448474   7.365   2.250   3.935 -0.0496 -0.1329 -0.1918
   51MOL   H37548475   7.351   2.079   3.958 -1.7166  1.1911 -2.0341
   51MOL   H37648476   7.181   2.268   4.114 -3.7129  1.6244 -1.4476
   51MOL   H37748477   7.159   2.088   4.096 -3.3488  1.8197  1.9992
   51MOL   H37848478   7.101   2.320   3.909 -1.1038  0.0063  3.0840
   51MOL   H37948479   7.128   2.150   3.833 -2.0408  1.3501 -2.0952
   51MOL   H38048480   6.903   2.250   3.860 -1.3151 -0.5559  0.4125
   51MOL   H38148481   6.920   2.208   4.026 -0.9121 -1.2649 -0.4405
   51MOL   H38248482   6.942   1.988   3.800  2.2830 -0.8153  0.5648
   51MOL   H38348483   6.984   1.969   3.971  0.3247  0.9299  1.3243
   51MOL   H38448484   6.700   2.054   3.876  1.0693  2.3557  0.2174
   51MOL   H38548485   6.744   1.981   4.027 -1.3553 -0.3874 -0.2419
   51MOL   N38648486   6.649   1.766   3.912  0.0744 -0.0356  0.2102
   51MOL   C38748487   6.602   1.637   3.865 -0.4980  0.5343 -0.4271
   51MOL   C38848488   6.698   1.525   3.894  0.2975 -0.4831  0.0600
   51MOL   C38948489   6.781   1.472   3.796  0.1272  0.0308  0.6824
   51MOL   C39048490   6.865   1.361   3.822 -0.7845  0.2645 -0.1347
   51MOL   C39148491   6.865   1.305   3.954  0.1023  0.2078 -0.3620
   51MOL   C39248492   6.787   1.361   4.053  0.2607 -0.5510  0.3560
   51MOL   C39348493   6.698   1.468   4.022  0.2058  0.2032  0.1452
   51MOL   C39448494   6.629   1.515   4.147 -0.5380 -0.1187 -0.1634
   51MOL   N39548495   6.700   1.605   4.237  0.5590 -0.3891  0.3029
   51MOL   C39648496   6.663   1.732   4.248 -0.4500  0.4810  0.0008
   51MOL   O39748497   6.589   1.800   4.178 -0.0622  0.3888  0.2333
   51MOL   C39848498   6.726   1.805   4.372  0.5931  0.8467 -0.0075
   51MOL   C39948499   6.830   1.914   4.339  0.1865  0.2946  0.5175
   51MOL   C40048500   6.964   1.846   4.286 -0.6208  0.2910  0.0608
   51MOL   C40148501   7.062   1.798   4.388  0.5756  0.6489 -0.0507
   51MOL   C40248502   7.108   1.906   4.486 -0.0831  0.0216  0.3258
   51MOL   C40348503   7.219   1.994   4.434  0.1463 -0.1225  0.8825
   51MOL   C40448504   7.274   2.094   4.535  0.8828 -0.2826  0.3814
   51MOL   C40548505   7.182   2.220   4.551  0.7431  0.7889 -0.7536
   51MOL   C40648506   7.225   2.312   4.663 -0.3132 -0.2462 -0.0147
   51MOL   O40748507   7.295   2.276   4.759 -0.1171  0.3559 -0.1688
   51MOL   H40848508   6.612   1.799   4.000  1.0403 -0.3452  0.7242
   51MOL   H40948509   6.506   1.619   3.914 -0.1820  0.3685  0.1364
   51MOL   H41048510   6.594   1.630   3.756 -0.7974  1.9687 -0.5075
   51MOL   H41148511   6.779   1.511   3.695  0.4998  2.6299  1.6428
   51MOL   H41248512   6.936   1.323   3.750 -0.5014 -1.8897  1.2275
   51MOL   H41348513   6.932   1.226   3.983 -1.6713 -2.0763 -2.2820
   51MOL   H41448514   6.792   1.312   4.149  1.4556 -1.4524 -0.1646
   51MOL   H41548515   6.591   1.431   4.206  2.0819 -1.8346 -0.8135
   51MOL   H41648516   6.536   1.563   4.119  1.0796  2.0377 -1.9821
   51MOL   H41748517   6.766   1.554   4.295  0.3032 -1.2608 -0.1624
   51MOL   H41848518   6.646   1.846   4.434  1.6356  0.0866  1.8672
   51MOL   H41948519   6.769   1.726   4.433 -1.2264 -0.1171  0.0713
   51MOL   H42048520   6.837   1.970   4.432  2.8014  1.0594 -0.0931
   51MOL   H42148521   6.794   1.977   4.257  0.6643 -1.4303 -1.0726
   51MOL   H42248522   7.021   1.921   4.230  0.5911  0.5239  1.5957
   51MOL   H42348523   6.947   1.761   4.220 -3.1719 -0.6545  1.8828
   51MOL   H42448524   7.015   1.717   4.444  0.3421  1.1759  0.5141
   51MOL   H42548525   7.153   1.758   4.343  0.5082 -0.9737  1.1747
   51MOL   H42648526   7.021   1.967   4.511  0.5292  0.9842  0.1155
   51MOL   H42748527   7.137   1.850   4.574  2.3264  0.7988  0.0474
   51MOL   H42848528   7.200   2.052   4.343 -0.1128 -0.0844  0.9607
   51MOL   H42948529   7.305   1.930   4.414 -0.5284 -0.5661 -0.7436
   51MOL   H43048530   7.369   2.142   4.510  0.7173 -0.0572  0.1727
   51MOL   H43148531   7.296   2.051   4.632  0.5744  1.2177  1.1295
   51MOL   H43248532   7.078   2.189   4.566  2.0087 -2.0468  2.8796
   51MOL   H43348533   7.174   2.277   4.458  0.6343  0.9870 -0.6243
   51MOL   N43448534   7.179   2.437   4.652 -0.0539 -0.5532 -0.3950
   51MOL   C43548535   7.201   2.543   4.749  0.1654  0.0793  0.4341
   51MOL   C43648536   7.083   2.569   4.853 -0.6523  0.5319  0.0708
   51MOL   C43748537   6.954   2.528   4.831 -1.6151  0.0393 -0.2240
   51MOL   C43848538   6.849   2.555   4.919 -0.6656  0.2291 -0.5144
   51MOL   C43948539   6.874   2.633   5.036  0.3229 -0.0810 -0.0900
   51MOL   C44048540   7.005   2.665   5.068  0.0996  0.4621 -0.2614
   51MOL   C44148541   7.115   2.630   4.979 -0.7065 -0.0703 -1.0339
   51MOL   C44248542   7.255   2.665   5.026 -0.0675  0.2528 -0.1181
   51MOL   N44348543   7.262   2.655   5.169  0.0541 -0.1224 -0.1334
   51MOL   C44448544   7.313   2.752   5.253 -0.1782  0.0838  0.5958
   51MOL   O44548545   7.365   2.859   5.216 -0.2043 -0.1826  0.1089
   51MOL   C44648546   7.312   2.719   5.405 -0.8747 -0.8162  0.5875
   51MOL   C44748547   7.448   2.661   5.445  0.5394 -0.5189 -0.1286
   51MOL   C44848548   7.554   2.765   5.468 -0.7119 -0.5443 -0.3934
   51MOL   C44948549   7.541   2.817   5.609  0.4235  0.0975 -0.3412
   51MOL   C45048550   7.635   2.940   5.633  0.7740 -0.1314 -0.5803
   51MOL   C45148551   7.654   2.988   5.783  0.4255 -0.1794  0.2259
   51MOL   C45248552   7.713   3.132   5.790  0.1925  0.1304 -0.2923
   51MOL   C45348553   7.712   3.198   5.936 -0.4248  0.4280 -0.2796
   51MOL   C45448554   7.574   3.221   5.989 -0.1607 -0.1317 -0.7072
   51MOL   O45548555   7.495   3.296   5.933  0.2203 -0.0146 -0.2067
   51MOL   H45648556   7.113   2.450   4.578  1.3894  1.1759 -1.4089
   51MOL   H45748557   7.222   2.634   4.692  0.1981 -0.3857 -0.3099
   51MOL   H45848558   7.296   2.526   4.798 -0.6267 -2.7825  1.0615
   51MOL   H45948559   6.927   2.479   4.738  1.1313 -1.0453 -0.5004
   51MOL   H46048560   6.752   2.518   4.890 -1.2514  1.5269 -0.2381
   51MOL   H46148561   6.798   2.647   5.110 -1.2432 -2.3718 -1.1810
   51MOL   H46248562   7.020   2.716   5.162 -0.6322  0.6475 -0.2455
   51MOL   H46348563   7.282   2.767   4.999  0.7562  0.4300  1.3520
   51MOL   H46448564   7.326   2.596   4.982 -1.2911 -1.3931  0.4470
   51MOL   H46548565   7.231   2.570   5.213 -1.0833 -0.3144 -1.2959
   51MOL   H46648566   7.234   2.645   5.422  0.4954 -2.0715  1.5522
   51MOL   H46748567   7.291   2.808   5.464 -1.6215 -0.0121 -0.8650
   51MOL   H46848568   7.480   2.596   5.364 -1.8501 -0.2213 -1.3700
   51MOL   H46948569   7.429   2.607   5.538  0.0003 -1.4814 -0.7917
   51MOL   H47048570   7.654   2.723   5.460  0.3717  1.6133  1.4087
   51MOL   H47148571   7.549   2.835   5.385 -0.3051  0.5529  0.4900
   51MOL   H47248572   7.435   2.843   5.617 -0.0878 -2.0119 -0.1814
   51MOL   H47348573   7.545   2.736   5.682 -0.9264 -0.6161 -1.0373
   51MOL   H47448574   7.732   2.926   5.586 -0.3177 -0.6808 -2.7529
   51MOL   H47548575   7.593   3.021   5.573  0.7059  0.7354  0.6196
   51MOL   H47648576   7.707   2.924   5.853  0.2911  0.8900  1.2992
   51MOL   H47748577   7.550   3.002   5.813  0.9015  0.9170  1.3638
   51MOL   H47848578   0.023   3.129   5.749  0.0796  1.9510 -0.7298
   51MOL   H47948579   7.657   3.199   5.724  0.3489  0.5930  0.0407
   51MOL   H48048580   7.781   3.154   6.008 -0.4575 -1.1720 -1.2150
   51MOL   H48148581   7.743   3.303   5.927  4.8872 -0.6072  3.1701
   51MOL   N48248582   7.547   3.173   6.109  0.3242  0.5051  0.0511
   51MOL   C48348583   7.420   3.182   6.182  0.6525  0.1980  0.0210
   51MOL   C48448584   7.442   3.219   6.335 -0.9481 -0.6982 -0.0603
   51MOL   C48548585   7.380   3.134   6.426 -0.5740 -0.2310  0.0164
   51MOL   C48648586   7.389   3.170   6.562  0.6752  0.0767 -0.2331
   51MOL   C48748587   7.471   3.278   6.611  0.1848 -0.4218  0.6101
   51MOL   C48848588   7.543   3.359   6.516  0.0310  0.0648 -0.5349
   51MOL   C48948589   7.528   3.327   6.377 -0.7400  0.3224  0.0934
   51MOL   C49048590   7.605   3.422   6.279  0.3587  0.5712  0.2354
   51MOL   N49148591   7.519   3.488   6.174  0.4016  0.6865 -0.1607
   51MOL   C49248592   7.432   3.590   6.202  0.3942 -0.1197 -0.5710
   51MOL   O49348593   7.438   3.650   6.308 -0.3289  0.3539  0.4446
   51MOL   C49448594   7.335   3.637   6.097  0.2953 -0.1593 -0.0019
   51MOL   C49548595   7.227   3.729   6.161 -0.0299  0.8650 -0.1327
   51MOL   C49648596   7.126   3.790   6.065 -0.7822  0.3451 -0.1530
   51MOL   C49748597   7.169   3.916   5.976  0.2541 -0.2498  0.3255
   51MOL   C49848598   7.232   3.880   5.835 -0.0033 -0.0878  0.0336
   51MOL   C49948599   7.228   4.003   5.745 -0.2232 -0.9800  0.4260
   51MOL   C50048600   7.303   3.973   5.602  0.4223  0.0210 -0.4780
   51MOL   C50148601   7.293   4.097   5.509 -0.5143  0.1542  0.6317
   51MOL   C50248602   7.362   4.087   5.371 -0.4412 -0.1726 -0.1567
   51MOL   O50348603   7.477   4.043   5.348  0.0575 -0.9865 -0.3767
   51MOL   H50448604   7.619   3.114   6.149  0.0651  0.2513  0.1384
   51MOL   H50548605   7.351   3.253   6.136 -2.2596 -2.8637 -0.4749
   51MOL   H50648606   7.363   3.091   6.166 -0.7312  1.2698 -1.3068
   51MOL   H50748607   7.318   3.051   6.394 -0.9250  0.6388 -1.6348
   51MOL   H50848608   7.335   3.110   6.633  1.1732 -0.3266 -0.1955
   51MOL   H50948609   7.461   3.321   6.710 -0.3937  3.6023 -1.1000
   51MOL   H51048610   7.598   3.446   6.550  0.6913 -1.6398  2.9835
   51MOL   H51148611   7.684   3.373   6.223  2.2790  2.4567  1.2245
   51MOL   H51248612   7.663   3.499   6.331 -0.3385  2.1346 -1.2485
   51MOL   H51348613   7.506   3.443   6.085  1.7276  0.0671 -0.0460
   51MOL   H51448614   7.290   3.565   6.029  1.8293 -2.1869  1.0651
   51MOL   H51548615   7.395   3.701   6.032 -1.0952  1.4023  0.1996
   51MOL   H51648616   7.269   3.804   6.228 -1.4227  1.9537 -0.4507
   51MOL   H51748617   7.161   3.667   6.222 -1.8879  2.6188 -0.3178
   51MOL   H51848618   7.087   3.710   6.002  0.2768 -1.6382  1.6323
   51MOL   H51948619   7.047   3.816   6.135 -0.5414 -0.7431  0.5351
   51MOL   H52048620   7.092   3.991   5.957  0.7807  0.0257 -0.7319
   51MOL   H52148621   7.250   3.973   6.021  0.1456  0.3213 -0.2085
   51MOL   H52248622   7.332   3.841   5.853  0.4885  0.8373 -0.6831
   51MOL   H52348623   7.181   3.795   5.790  1.3002 -2.7748  3.4247
   51MOL   H52448624   7.272   4.085   5.801  0.0678  0.1864 -1.4763
   51MOL   H52548625   7.126   4.038   5.731 -0.1267 -1.9515 -3.2629
   51MOL   H52648626   7.407   3.942   5.608  1.1525  2.5500  0.1822
   51MOL   H52748627   7.245   3.900   5.546  0.8432 -0.3187 -0.4707
   51MOL   H52848628   7.346   4.173   5.567  1.9353 -0.4999 -0.6943
   51MOL   H52948629   7.194   4.141   5.505 -1.3047 -1.7301 -1.1053
   51MOL   N53048630   7.289   4.123   5.264 -0.2787  0.4771  0.0643
   51MOL   C53148631   7.312   4.095   5.125  0.1724  0.3171  0.1530
   51MOL   C53248632   7.234   4.188   5.026 -0.5740  0.6260  0.1361
   51MOL   C53348633   7.289   4.312   4.986 -0.2730  0.3613  0.2119
   51MOL   C53448634   7.227   4.382   4.884  0.0513  0.3206  0.5003
   51MOL   C53548635   7.103   4.353   4.839  0.2460  0.9083  0.2533
   51MOL   C53648636   7.041   4.238   4.882 -0.2491 -0.4368  0.2817
   51MOL   C53748637   7.107   4.147   4.973  0.4967 -0.0279 -0.0355
   51MOL   C53848638   7.041   4.012   5.003  0.2285  0.5060  0.8059
   51MOL   N53948639   7.106   3.902   4.935  0.6202  0.7282 -0.3948
   51MOL   C54048640   7.052   3.826   4.837 -0.6427 -0.4160 -0.2022
   51MOL   O54148641   6.934   3.825   4.806 -0.2873 -1.0983 -0.0790
   51MOL   C54248642   7.146   3.713   4.795  0.8826  0.0858  0.8145
   51MOL   C54348643   7.077   3.576   4.788  0.2733  0.6919 -0.1950
   51MOL   C54448644   7.174   3.450   4.791  0.1730 -0.4184  0.1494
   51MOL   C54548645   7.272   3.433   4.678 -0.6920 -0.5686  0.6928
   51MOL   C54648646   7.223   3.364   4.555 -0.3025 -0.3423 -0.5393
   51MOL   C54748647   7.326   3.350   4.448  0.2078  0.5116  0.9318
   51MOL   C54848648   7.261   3.277   4.330 -0.9180 -0.2587  0.3472
   51MOL   C54948649   7.350   3.236   4.207 -0.5611 -0.2546 -0.7411
   51MOL   C55048650   7.270   3.196   4.086  0.7408 -1.0756 -0.1536
   51MOL   O55148651   7.172   3.259   4.057 -0.0880 -0.0308 -0.1201
   51MOL   H55248652   7.201   4.166   5.287 -0.7775 -0.9565  0.9080
   51MOL   H55348653   7.301   3.987   5.116  1.0041  0.1960  0.5121
   51MOL   H55448654   7.418   4.115   5.108 -0.0481  1.3361 -0.0482
   51MOL   H55548655   7.386   4.347   5.018  0.1329  2.5451 -3.2461
   51MOL   H55648656   7.268   4.475   4.848 -1.1498 -0.3339 -2.7358
   51MOL   H55748657   7.052   4.402   4.757  0.0829 -1.8937 -1.4253
   51MOL   H55848658   6.948   4.202   4.841 -0.2044  0.6339 -0.7639
   51MOL   H55948659   6.935   4.015   4.978  0.0922  1.9686  1.5146
   51MOL   H56048660   7.056   3.984   5.107  0.5925  0.1080  0.6469
   51MOL   H56148661   7.204   3.895   4.954  0.7579  0.0495 -1.3027
   51MOL   H56248662   7.226   3.706   4.869  0.0148  0.7136  1.8307
   51MOL   H56348663   7.186   3.740   4.697 -1.4009 -0.2488 -0.2337
   51MOL   H56448664   7.014   3.569   4.700 -1.0020  2.3506  0.5606
   51MOL   H56548665   7.009   3.552   4.870 -1.2087 -0.6751 -1.7799
   51MOL   H56648666   7.253   3.464   4.865 -0.8522  1.6220  0.9181
   51MOL   H56748667   7.116   3.359   4.809 -1.2920  0.6324  0.8902
   51MOL   H56848668   7.297   3.535   4.648  2.5126 -0.4796  3.3572
   51MOL   H56948669   7.369   3.395   4.709 -0.1619  1.8496  2.1458
   51MOL   H57048670   7.193   3.267   4.594 -1.8293  0.0121 -0.8236
   51MOL   H57148671   7.126   3.401   4.523 -0.2715 -0.5224 -0.8471
   51MOL   H57248672   7.413   3.295   4.484  0.3205  0.7387  1.0058
   51MOL   H57348673   7.367   3.448   4.424  1.2822  0.2072  1.4654
   51MOL   H57448674   7.228   3.176   4.354 -2.2342 -0.5590 -2.5100
   51MOL   H57548675   7.174   3.332   4.294 -0.8658 -0.6548 -0.4084
   51MOL   H57648676   7.423   3.161   4.238 -0.3807  0.4703  0.6442
   51MOL   H57748677   7.402   3.327   4.176  0.7651 -1.0962 -1.0302
   51MOL   N57848678   7.312   3.087   4.019  0.8205 -0.0231  0.0567
   51MOL   C57948679   7.222   3.018   3.926 -0.1903 -0.5901 -0.6563
   51MOL   C58048680   7.170   2.881   3.981  0.0675  0.1244  0.0267
   51MOL   C58148681   7.191   2.841   4.118  0.1584  0.1851  0.0858
   51MOL   C58248682   7.157   2.706   4.157  0.7056  0.2673  0.3274
   51MOL   C58348683   7.102   2.619   4.059 -0.1999  0.2368  0.2769
   51MOL   C58448684   7.078   2.665   3.931 -0.0671  0.0063  0.7801
   51MOL   C58548685   7.112   2.791   3.887 -0.0952  0.5811 -0.1339
   51MOL   C58648686   7.080   2.826   3.745  0.2371  0.3428  0.9266
   51MOL   N58748687   6.944   2.868   3.719 -0.1850  0.1903 -0.3132
   51MOL   C58848688   6.901   2.901   3.596  0.1872  0.6360 -0.3465
   51MOL   O58948689   6.966   2.867   3.493 -0.3887  0.2882 -0.0310
   51MOL   C59048690   6.762   2.964   3.595  0.4082 -0.2591 -0.1098
   51MOL   C59148691   6.721   3.035   3.465 -0.1337  0.0437  0.1305
   51MOL   C59248692   6.593   3.123   3.472  0.8452 -0.2056  1.4063
   51MOL   C59348693   6.462   3.045   3.504 -0.4265  0.5172  0.5784
   51MOL   C59448694   6.345   3.131   3.554 -0.3474 -0.6643 -0.4400
   51MOL   C59548695   6.217   3.044   3.574 -0.4011 -0.2399  0.8337
   51MOL   C59648696   6.110   3.113   3.652 -0.1334  0.1780 -0.1301
   51MOL   C59748697   5.988   3.024   3.653 -0.5540  0.1993 -0.4084
   51MOL   C59848698   5.881   3.076   3.756 -0.4860  0.4224  0.5355
   51MOL   O59948699   5.814   3.173   3.732 -0.2733 -0.3560 -0.0182
   51MOL   H60048700   7.401   3.044   4.038  0.5618 -0.2663  0.7071
   51MOL   H60148701   7.267   3.000   3.829  1.4214 -1.1890  0.1819
   51MOL   H60248702   7.132   3.075   3.907  1.1122  1.2770 -1.3525
   51MOL   H60348703   7.227   2.904   4.198  1.1255 -0.4219  0.1361
   51MOL   H60448704   7.169   2.663   4.255 -1.4239 -1.9112 -0.3357
   51MOL   H60548705   7.074   2.517   4.079  0.1241 -0.8714 -4.1908
   51MOL   H60648706   7.041   2.588   3.865 -0.5438  0.4888  0.4783
   51MOL   H60748707   7.084   2.730   3.693  0.4089  0.3743  0.8802
   51MOL   H60848708   7.150   2.895   3.699  1.9748 -2.7247 -1.1884
   51MOL   H60948709   6.888   2.873   3.803  0.4906  2.5050  0.0129
   51MOL   H61048710   6.747   3.027   3.683 -0.8358 -0.2340 -0.3342
   51MOL   H61148711   6.697   2.877   3.597 -1.4928  1.1313 -0.4309
   51MOL   H61248712   6.706   2.956   3.391  1.9830 -0.6003  0.3438
   51MOL   H61348713   6.808   3.092   3.431 -0.1584  0.0384  0.0591
   51MOL   H61448714   6.598   3.203   3.546 -0.0220  1.9144 -0.7501
   51MOL   H61548715   6.587   3.186   3.383 -1.9738 -0.3825  1.4271
   51MOL   H61648716   6.423   2.989   3.419 -1.2008  1.3046  0.4096
   51MOL   H61748717   6.489   2.975   3.583  0.5305  0.5548  0.2918
   51MOL   H61848718   6.381   3.176   3.647  0.5237  2.0641 -2.0562
   51MOL   H61948719   6.322   3.204   3.478 -2.3293 -1.6250 -0.7953
   51MOL   H62048720   6.246   2.955   3.630  0.1649 -1.8191 -1.8681
   51MOL   H62148721   6.173   2.990   3.490  0.3101  0.6370 -0.1049
   51MOL   H62248722   6.150   3.141   3.750 -0.5442 -1.6093  0.5828
   51MOL   H62348723   6.088   3.203   3.596  0.2195 -1.2744 -2.6931
   51MOL   H62448724   5.940   3.014   3.555 -0.5712 -0.0697 -0.3728
   51MOL   H62548725   6.032   2.929   3.683 -0.0137  0.7889  0.6934
   51MOL   N62648726   5.853   2.999   3.863 -0.2696  0.0392  0.1700
   51MOL   C62748727   5.747   3.009   3.957 -0.0673  0.0537  0.6194
   51MOL   C62848728   5.805   3.063   4.089 -0.1795  0.1434  0.0508
   51MOL   C62948729   5.861   3.190   4.090 -0.2537  0.5467  1.0152
   51MOL   C63048730   5.937   3.242   4.198  1.0101  0.6527  0.3738
   51MOL   C63148731   5.956   3.157   4.305 -0.0519 -0.4484  0.2154
   51MOL   C63248732   5.892   3.035   4.315 -0.0428 -0.3776 -0.2694
   51MOL   C63348733   5.815   2.988   4.207 -0.0102  0.2346 -0.7411
   51MOL   C63448734   5.753   2.848   4.208 -0.0961  0.0955  0.2680
   51MOL   N63548735   5.738   2.783   4.342  0.6276  0.1059 -0.2913
   51MOL   C63648736   5.641   2.695   4.378 -0.1799 -0.0008 -0.1392
   51MOL   O63748737   5.564   2.653   4.295  0.6034 -0.6209  0.3215
   51MOL   C63848738   5.633   2.659   4.529  0.0676  0.0180  0.6125
   51MOL   C63948739   5.645   2.784   4.626 -0.3355  0.7988  0.5599
   51MOL   C64048740   5.519   2.863   4.615 -0.3811 -0.4765 -0.6210
   51MOL   C64148741   5.540   3.008   4.668  0.1168 -0.1743  0.3599
   51MOL   C64248742   5.421   3.105   4.688 -0.3112  0.3124 -0.3485
   51MOL   C64348743   5.328   3.103   4.562 -0.0274 -0.0979 -0.2409
   51MOL   C64448744   5.215   3.201   4.562  0.1022 -0.2677  0.3768
   51MOL   C64548745   5.152   3.222   4.421  0.2076 -0.1538 -0.2125
   51MOL   C64648746   5.067   3.342   4.410 -0.8515 -0.7289  0.0187
   51MOL   O64748747   4.951   3.330   4.451 -0.1422  0.4210 -0.2359
   51MOL   H64848748   5.915   2.921   3.878  0.0253  0.2403  0.0110
   51MOL   H64948749   5.689   2.918   3.972  0.6895 -0.4332  0.5948
   51MOL   H65048750   5.669   3.076   3.919 -0.5338 -1.1382 -0.5583
   51MOL   H65148751   5.858   3.254   4.004  0.1868  3.5772  3.1898
   51MOL   H65248752   5.979   3.341   4.192 -2.5377  2.0955 -3.4670
   51MOL   H65348753   6.025   3.193   4.380 -0.5544 -0.2144  0.5649
   51MOL   H65448754   5.907   2.968   4.398  0.4103  0.6901  0.5210
   51MOL   H65548755   5.800   2.782   4.135  0.7670  0.8115  0.1783
   51MOL   H65648756   5.650   2.866   4.175  1.0963  0.7387 -3.2270
   51MOL   H65748757   5.801   2.814   4.414  0.2648  0.9442 -0.3247
   51MOL   H65848758   5.716   2.590   4.540 -0.6115 -0.9927 -0.5146
   51MOL   H65948759   5.540   2.605   4.548  0.6320 -1.1692  0.0224
   51MOL   H66048760   5.731   2.847   4.602  1.6465 -1.9370  0.2862
   51MOL   H66148761   5.650   2.754   4.731  1.8514 -2.2146 -0.3278
   51MOL   H66248762   5.465   2.851   4.521 -0.8056 -0.9735 -0.3138
   51MOL   H66348763   5.445   2.821   4.683 -0.5092 -0.2474 -0.6177
   51MOL   H66448764   5.588   2.999   4.765  0.8431 -0.5645 -0.0365
   51MOL   H66548765   5.617   3.051   4.604 -1.4600  1.2810 -0.6067
   51MOL   H66648766   5.375   3.059   4.775  0.2158  0.5906  0.0821
   51MOL   H66748767   5.450   3.205   4.719 -1.9906  0.4878  0.6766
   51MOL   H66848768   5.282   3.005   4.548 -0.4094  0.1718 -0.8726
   51MOL   H66948769   5.400   3.115   4.481 -0.0861 -0.9380 -0.4215
   51MOL   H67048770   5.143   3.171   4.638  1.2625  1.3717  2.1872
   51MOL   H67148771   5.252   3.295   4.603 -1.9642  0.7445 -0.0347
   51MOL   H67248772   5.096   3.135   4.387 -0.0334 -0.2398  0.4003
   51MOL   H67348773   5.234   3.232   4.350 -1.3358 -0.5755 -2.0856
   51MOL   N67448774   5.117   3.448   4.346  0.5377 -0.7816  0.0327
   51MOL   C67548775   5.054   3.579   4.358 -0.0880  0.0184  0.4867
   51MOL   C67648776   4.930   3.615   4.275 -0.6480 -0.7980 -0.3070
   51MOL   C67748777   4.934   3.576   4.143 -0.4221  0.7575  0.4757
   51MOL   C67848778   4.824   3.603   4.063  0.0570 -0.0751 -0.1318
   51MOL   C67948779   4.714   3.684   4.104  0.3336 -0.3800  0.2455
   51MOL   C68048780   4.713   3.719   4.239 -0.0658  0.0747  0.2309
   51MOL   C68148781   4.821   3.695   4.326  0.0512 -0.2658  0.4606
   51MOL   C68248782   4.814   3.731   4.472  0.5078 -0.5156 -0.1540
   51MOL   N68348783   4.807   3.611   4.550 -0.2837 -0.1386  0.0287
   51MOL   C68448784   4.820   3.597   4.681 -0.9938 -0.2258 -0.0493
   51MOL   O68548785   4.829   3.693   4.761 -0.2060 -0.1657  0.0072
   51MOL   C68648786   4.823   3.457   4.742  0.0404  0.5985 -0.2561
   51MOL   C68748787   4.971   3.409   4.759  0.0529 -0.3668  0.3670
   51MOL   C68848788   5.044   3.470   4.886 -0.4768 -0.0174 -0.4231
   51MOL   C68948789   5.186   3.415   4.910  0.0337 -0.6635 -0.7019
   51MOL   C69048790   5.234   3.430   5.062  0.2744  0.3014  0.2440
   51MOL   C69148791   5.386   3.406   5.062 -0.6819  0.1995 -0.1404
   51MOL   C69248792   5.436   3.409   5.207 -0.3304  0.3431 -0.8081
   51MOL   C69348793   5.406   3.292   5.296  0.0818  0.0718 -0.5439
   51MOL   C69448794   5.439   3.301   5.445  0.2017  0.2114 -0.2217
   51MOL   O69548795   5.381   3.223   5.524 -0.2279 -0.3904  0.3199
   51MOL   H69648796   5.210   3.440   4.308  0.0257 -2.9923 -0.8412
   51MOL   H69748797   5.132   3.648   4.325 -0.6825  0.9534  1.0147
   51MOL   H69848798   5.033   3.591   4.464 -1.4688  2.0198  0.0236
   51MOL   H69948799   5.022   3.522   4.110 -1.6794 -0.5748 -0.7528
   51MOL   H70048800   4.830   3.570   3.960  0.3606 -2.4384  0.6105
   51MOL   H70148801   4.633   3.712   4.038  1.4616  1.2475 -0.4851
   51MOL   H70248802   4.624   3.772   4.272 -0.4851 -0.7535  0.4453
   51MOL   H70348803   4.722   3.787   4.493  0.4632 -1.0058  0.9783
   51MOL   H70448804   4.899   3.792   4.502 -0.1884  1.0174 -1.2483
   51MOL   H70548805   4.819   3.528   4.493  0.3896  1.2513 -1.9099
   51MOL   H70648806   4.769   3.394   4.671 -0.8548  1.5793 -0.4545
   51MOL   H70748807   4.775   3.465   4.839 -0.6290  2.9493 -0.7541
   51MOL   H70848808   5.026   3.437   4.669  1.6983 -1.6779  0.9389
   51MOL   H70948809   4.971   3.300   4.763 -3.7081 -0.4302  0.2445
   51MOL   H71048810   5.050   3.579   4.881  1.0519 -0.0713  0.0059
   51MOL   H71148811   4.981   3.451   4.973  0.1435  0.4008  0.1186
   51MOL   H71248812   5.206   3.314   4.875 -1.8378 -1.7259  1.1932
   51MOL   H71348813   5.237   3.484   4.843 -2.2501  0.2005 -1.5982
   51MOL   H71448814   5.204   3.531   5.087 -0.7170  0.3361 -1.0047
   51MOL   H71548815   5.192   3.362   5.136 -1.2788  1.8343  0.7932
   51MOL   H71648816   5.447   3.472   4.999  1.0683  0.3435  1.6568
   51MOL   H71748817   5.404   3.305   5.024 -1.6507  0.2403 -0.7270
   51MOL   H71848818   5.428   3.509   5.249  1.7294 -0.0442  0.6189
   51MOL   H71948819   5.544   3.415   5.188 -0.4203 -0.9971 -1.8056
   51MOL   H72048820   5.467   3.205   5.271  1.9815  1.4898 -0.9155
   51MOL   H72148821   5.307   3.256   5.267 -0.3540  0.6662  0.1981
   51MOL   N72248822   5.540   3.383   5.478  0.7272 -0.0980  0.2805
   51MOL   C72348823   5.586   3.393   5.617  0.1770  0.6880  0.0755
   51MOL   C72448824   5.638   3.532   5.649 -0.0776  0.0161  0.1306
   51MOL   C72548825   5.746   3.583   5.570 -0.0179 -0.4442 -0.6751
   51MOL   C72648826   5.810   3.706   5.601 -0.7351  1.0099  0.2735
   51MOL   C72748827   5.761   3.775   5.711 -0.0489 -0.8084  0.3327
   51MOL   C72848828   5.644   3.737   5.780 -0.1623  0.6133  0.3726
   51MOL   C72948829   5.590   3.609   5.758  0.0953  0.1090  0.1234
   51MOL   C73048830   5.478   3.568   5.849 -0.3237  0.1829  0.2336
   51MOL   N73148831   5.345   3.592   5.797 -0.2248  0.2256 -0.2966
   51MOL   C73248832   5.245   3.505   5.817  0.1055  0.0276 -0.8148
   51MOL   O73348833   5.261   3.411   5.897 -0.0148  0.0722  0.1823
   51MOL   C73448834   5.118   3.512   5.729  0.4209 -0.3637  0.2418
   51MOL   C73548835   5.095   3.398   5.626 -0.0474  0.2521 -0.0039
   51MOL   C73648836   4.961   3.420   5.556  0.2552 -0.0190 -0.5727
   51MOL   C73748837   4.954   3.323   5.437 -0.4529  0.0287 -0.0088
   51MOL   C73848838   4.822   3.319   5.360  0.7992 -0.5572  0.3423
   51MOL   C73948839   4.816   3.424   5.240  1.1249 -0.2418  0.2328
   51MOL   C74048840   4.813   3.572   5.277  0.0337  0.3824 -0.3425
   51MOL   C74148841   4.809   3.666   5.151  0.2458  0.4192 -0.7670
   51MOL   C74248842   4.802   3.812   5.174 -0.6048  0.4970  0.5826
   51MOL   O74348843   4.897   3.880   5.220  0.2052 -0.3511 -0.1853
   51MOL   H74448844   5.596   3.434   5.412  0.1761  0.0719 -0.0583
   51MOL   H74548845   5.662   3.317   5.634 -1.7719 -1.9571 -2.5349
   51MOL   H74648846   5.507   3.369   5.688  0.0229 -0.0369 -0.3408
   51MOL   H74748847   5.781   3.528   5.484  1.9435  0.6780 -0.6176
   51MOL   H74848848   5.895   3.748   5.549 -0.0082 -1.6924 -0.8040
   51MOL   H74948849   5.805   3.872   5.729 -0.6297  0.1302 -2.9962
   51MOL   H75048850   5.608   3.801   5.859  1.2617  0.6079  1.0557
   51MOL   H75148851   5.495   3.614   5.946 -0.3654 -0.7209  0.6775
   51MOL   H75248852   5.502   3.467   5.884 -0.7396  0.6901  2.0247
   51MOL   H75348853   5.314   3.674   5.748 -1.3437  0.7174  1.1980
   51MOL   H75448854   5.126   3.609   5.680 -2.5281 -1.6475 -2.9503
   51MOL   H75548855   5.031   3.522   5.795  0.6258 -1.4980  0.6991
   51MOL   H75648856   5.110   3.299   5.670 -1.9194 -0.8307 -1.6757
   51MOL   H75748857   5.170   3.405   5.547  1.1503  0.7462  1.1581
   51MOL   H75848858   4.874   3.398   5.619  0.5689 -1.2976 -0.5687
   51MOL   H75948859   4.949   3.525   5.530 -0.0091  0.7960  2.6396
   51MOL   H76048860   5.038   3.331   5.368 -0.1704  0.2698  0.3595
   51MOL   H76148861   4.968   3.226   5.484 -4.0991 -1.7964 -2.4590
   51MOL   H76248862   4.792   3.219   5.328 -2.1055 -0.0696  1.3553
   51MOL   H76348863   4.737   3.324   5.428  1.7043  0.2730  1.4290
   51MOL   H76448864   4.730   3.402   5.176  0.4415  0.9537  0.7160
   51MOL   H76548865   4.902   3.398   5.178  1.9806 -1.5778  1.9361
   51MOL   H76648866   4.728   3.598   5.340  0.8255  1.1038  0.4243
   51MOL   H76748867   4.893   3.611   5.339 -1.1082  0.4343  1.1142
   51MOL   H76848868   4.902   3.645   5.098  0.6625 -0.9230  0.4891
   51MOL   H76948869   4.732   3.635   5.080 -3.7147  2.8079  2.2652
   51MOL   N77048870   4.695   3.870   5.123  0.2165 -0.1963 -0.2031
   51MOL   C77148871   4.664   4.015   5.127 -0.2445  0.2030 -0.3863
   51MOL   C77248872   4.522   4.048   5.095  0.1258  0.0983  0.1293
   51MOL   C77348873   4.500   4.138   4.992 -0.5537 -0.2405 -0.1496
   51MOL   C77448874   4.366   4.177   4.959  0.9131  0.0882 -0.1172
   51MOL   C77548875   4.255   4.119   5.032  0.2313 -0.6622  0.4892
   51MOL   C77648876   4.284   4.036   5.140 -0.0536  0.1850  0.4109
   51MOL   C77748877   4.415   4.001   5.173  0.6054 -0.1013 -0.7705
   51MOL   C77848878   4.429   3.893   5.281  0.0450 -0.7837  0.1492
   51MOL   N77948879   4.413   3.763   5.229  0.3487  0.4511 -0.3368
   51MOL   C78048880   4.418   3.650   5.306 -0.2657  0.4840  0.1433
   51MOL   O78148881   4.457   3.647   5.421 -0.0115  0.5712  0.5321
   51MOL   C78248882   4.378   3.522   5.238  0.3063  0.1756  0.5041
   51MOL   C78348883   4.441   3.395   5.300 -0.7162 -0.2147  0.4117
   51MOL   C78448884   4.363   3.310   5.392  0.7398  0.5085 -0.6647
   51MOL   C78548885   4.419   3.170   5.426 -0.6870 -0.4704 -0.0189
   51MOL   C78648886   4.406   3.060   5.327 -0.8786 -0.5732  0.6290
   51MOL   C78748887   4.524   2.968   5.324 -0.8026 -0.1522 -0.3239
   51MOL   C78848888   4.499   2.856   5.218 -0.8912  0.6337 -0.5064
   51MOL   C78948889   4.620   2.771   5.200 -0.1127  0.8570 -0.7217
   51MOL   C79048890   4.582   2.659   5.101 -0.3660  0.7119 -0.9518
   51MOL   O79148891   4.502   2.682   5.013  0.6576 -0.1650 -0.5708
   51MOL   H79248892   4.627   3.800   5.095 -0.1028  0.4958 -1.1738
   51MOL   H79348893   4.693   4.055   5.224 -0.2936 -0.1309 -0.2325
   51MOL   H79448894   4.739   4.061   5.063 -1.7876  2.5307 -0.5884
   51MOL   H79548895   4.583   4.165   4.927 -0.8529 -1.1699 -0.9153
   51MOL   H79648896   4.355   4.246   4.877 -2.7194 -0.3940 -0.0806
   51MOL   H79748897   4.154   4.151   5.012 -0.3993 -1.0001  2.9789
   51MOL   H79848898   4.199   3.995   5.193 -0.2458  0.5139  0.3570
   51MOL   H79948899   4.349   3.903   5.355  1.6548 -1.0615  1.9771
   51MOL   H80048900   4.520   3.912   5.340 -0.4620  3.4640 -0.2378
   51MOL   H80148901   4.390   3.750   5.131  0.7504  0.2228 -0.4008
   51MOL   H80248902   4.403   3.531   5.132  0.4163  0.5777  0.5668
   51MOL   H80348903   4.269   3.516   5.237  0.3138  0.1595 -0.4874
   51MOL   H80448904   4.535   3.421   5.349 -0.1701 -1.5448  0.1016
   51MOL   H80548905   4.481   3.336   5.217 -2.0260 -1.3171  0.5451
   51MOL   H80648906   4.264   3.279   5.358 -0.4711  2.6204  0.8061
   51MOL   H80748907   4.332   3.353   5.487  0.4343  1.0961 -1.0297
   51MOL   H80848908   4.521   3.179   5.462 -0.5135  1.5159 -0.9632
   51MOL   H80948909   4.369   3.134   5.516  0.0360  0.5260  0.7989
   51MOL   H81048910   4.309   3.010   5.330 -1.9831  1.5568  2.8658
   51MOL   H81148911   4.408   3.094   5.223  0.7081 -0.5961  0.6508
   51MOL   H81248912   4.541   2.921   5.421 -2.1881  1.9988  0.9978
   51MOL   H81348913   4.610   3.031   5.302 -0.6434  0.5204  2.0758
   51MOL   H81448914   4.460   2.895   5.124 -1.3356 -0.0426 -0.6093
   51MOL   H81548915   4.420   2.791   5.257 -1.1118  0.3758 -1.3673
   51MOL   H81648916   4.665   2.717   5.284 -2.3816 -0.3472 -0.2421
   51MOL   H81748917   4.696   2.827   5.146  0.6538  1.0228  0.4935
   51MOL   N81848918   4.643   2.541   5.112  0.5544 -0.1637 -0.1364
   51MOL   C81948919   4.620   2.425   5.029  0.3770 -0.5084  0.0353
   51MOL   C82048920   4.499   2.345   5.071 -0.2623 -0.4190 -0.4386
   51MOL   C82148921   4.504   2.301   5.204  0.0654  0.7208  0.0919
   51MOL   C82248922   4.396   2.240   5.262 -0.4864  0.1005  0.1130
   51MOL   C82348923   4.278   2.230   5.184  0.5285 -0.0245 -0.5746
   51MOL   C82448924   4.274   2.258   5.052  0.0770  0.3052 -0.2306
   51MOL   C82548925   4.382   2.324   4.997 -0.2153  0.1250 -0.5090
   51MOL   C82648926   4.366   2.365   4.854  0.5781  0.5879  0.2600
   51MOL   N82748927   4.360   2.510   4.827  1.0232  0.2800 -0.0968
   51MOL   C82848928   4.311   2.572   4.712  0.1964 -0.3036 -0.5936
   51MOL   O82948929   4.258   2.506   4.617 -0.1229  0.1504 -0.1354
   51MOL   C83048930   4.313   2.723   4.713  0.3112 -0.6270  0.8134
   51MOL   C83148931   4.190   2.780   4.636  0.3985  0.6658  0.1269
   51MOL   C83248932   4.214   2.868   4.512  0.3114 -0.3815 -0.4115
   51MOL   C83348933   4.083   2.893   4.433  0.9593  0.4110  1.1893
   51MOL   C83448934   4.115   2.960   4.299  0.3753  0.8253 -0.1071
   51MOL   C83548935   3.981   2.975   4.228  0.2027  0.4567 -0.0528
   51MOL   C83648936   4.010   3.025   4.086 -0.1133  0.4282  0.3574
   51MOL   C83748937   3.900   3.071   3.994  0.4709  0.4948 -0.6652
   51MOL   C83848938   3.951   3.140   3.872  0.3839 -0.3209  0.1253
   51MOL   O83948939   4.004   3.074   3.778 -0.6343  0.1486 -0.1057
   51MOL   H84048940   4.712   2.538   5.185  1.4779  0.5364 -0.9731
   51MOL   H84148941   4.600   2.458   4.927 -0.3448  0.9062  0.6200
   51MOL   H84248942   4.708   2.361   5.023 -0.0678 -1.2189  1.0669
   51MOL   H84348943   4.590   2.314   5.269  0.0330 -0.6325  0.4268
   51MOL   H84448944   4.399   2.203   5.363  0.9212  0.4553  0.2129
   51MOL   H84548945   4.194   2.184   5.234  1.7628 -1.0002  0.6642
   51MOL   H84648946   4.180   2.241   5.001  0.2120 -0.1740 -0.3189
   51MOL   H84748947   4.284   2.311   4.807  0.6383  2.1289 -1.6710
   51MOL   H84848948   4.454   2.329   4.800 -1.0559 -2.2999 -0.5832
   51MOL   H84948949   4.408   2.570   4.892  1.9348  1.5909 -1.9467
   51MOL   H85048950   4.399   2.769   4.665 -0.6268  0.4384  0.1178
   51MOL   H85148951   4.310   2.766   4.813  0.5176  0.0743  0.5226
   51MOL   H85248952   4.126   2.849   4.692 -0.0416  1.1855 -0.9910
   51MOL   H85348953   4.110   2.711   4.608 -0.2186  1.4712 -0.1375
   51MOL   H85448954   4.290   2.820   4.450  1.2494 -1.0845  1.2669
   51MOL   H85548955   4.252   2.968   4.530  2.1983 -0.7222 -2.2606
   51MOL   H85648956   4.038   2.795   4.419  0.7086  0.5450  1.0408
   51MOL   H85748957   4.008   2.944   4.494 -2.6113 -4.5939  1.2966
   51MOL   H85848958   4.177   3.049   4.303 -0.0976  1.1399  0.2742
   51MOL   H85948959   4.181   2.888   4.250 -1.5919  0.3014 -2.0872
   51MOL   H86048960   3.926   3.055   4.277 -0.8563  0.0333 -0.5272
   51MOL   H86148961   3.915   2.888   4.227 -0.6809  1.1214 -0.0401
   51MOL   H86248962   4.072   2.952   4.034  1.2625  0.7075  1.5551
   51MOL   H86348963   4.078   3.110   4.095  1.5233 -0.7249 -0.7232
   51MOL   H86448964   3.849   2.983   3.954 -1.1657  1.0710  0.0879
   51MOL   H86548965   3.824   3.127   4.049 -0.4756 -2.6429  1.3286
   51MOL   N86648966   3.915   3.269   3.871 -0.3966 -0.0845  0.4289
   51MOL   C86748967   3.976   3.371   3.784 -0.1844 -0.6644 -0.3007
   51MOL   C86848968   4.028   3.493   3.867 -0.2632  0.2684  0.9892
   51MOL   C86948969   3.947   3.607   3.880 -0.6635 -0.3910  0.2554
   51MOL   C87048970   3.984   3.716   3.964  0.2015  0.1079  1.0189
   51MOL   C87148971   4.117   3.716   4.018 -0.4928  0.2736  1.1810
   51MOL   C87248972   4.201   3.599   3.997 -0.2475  0.7074  0.1316
   51MOL   C87348973   4.155   3.488   3.927 -0.0784 -0.5733 -0.4723
   51MOL   C87448974   4.256   3.376   3.926  0.4365 -0.2356 -0.2277
   51MOL   N87548975   4.348   3.396   3.819 -0.1067  0.0903 -0.2623
   51MOL   C87648976   4.477   3.429   3.831  1.3295  0.1834  0.1311
   51MOL   O87748977   4.528   3.434   3.944  0.4654 -0.4711  0.0825
   51MOL   C87848978   4.552   3.455   3.708  0.1324 -0.0304  0.1545
   51MOL   C87948979   4.585   3.605   3.690 -0.4965  0.3576 -0.1603
   51MOL   C88048980   4.470   3.705   3.697  0.2762  0.3226 -0.3096
   51MOL   C88148981   4.362   3.687   3.579  0.4940 -0.2548 -0.4100
   51MOL   C88248982   4.244   3.788   3.586 -0.0873 -0.7289  0.2136
   51MOL   C88348983   4.274   3.933   3.633 -0.2938  0.5155 -0.1830
   51MOL   C88448984   4.152   4.025   3.616  0.0117 -0.5314 -0.6521
   51MOL   C88548985   4.179   4.177   3.621 -0.3696 -0.0351  0.1246
   51MOL   C88648986   4.062   4.265   3.564  0.3545  0.8439  0.2667
   51MOL   O88748987   4.040   4.371   3.631 -0.4495 -0.7178 -0.7328
   51MOL   H88848988   3.854   3.290   3.948 -0.3991 -1.2508  0.7526
   51MOL   H88948989   4.055   3.329   3.720 -1.2738  1.2221 -2.9701
   51MOL   H89048990   3.888   3.397   3.725 -0.8316  1.4536  1.5709
   51MOL   H89148991   3.848   3.610   3.835  0.4550 -2.3109 -2.4543
   51MOL   H89248992   3.916   3.797   3.988 -0.7412 -0.2995 -0.2522
   51MOL   H89348993   4.161   3.797   4.074  2.6284 -1.7608  1.7871
   51MOL   H89448994   4.295   3.598   4.050 -1.7150 -2.7899  2.8721
   51MOL   H89548995   4.212   3.277   3.912 -2.6057  0.9174  0.6215
   51MOL   H89648996   4.310   3.367   4.020  1.8400 -2.1464 -1.1885
   51MOL   H89748997   4.320   3.393   3.722 -1.2208  2.0349 -0.0338
   51MOL   H89848998   4.501   3.411   3.622  0.3464  1.5600 -0.8155
   51MOL   H89948999   4.647   3.402   3.707 -0.6387 -1.4350  0.1679
   51MOL   H90049000   4.643   3.619   3.599  1.0493  0.6884  0.8771
   51MOL   H90149001   4.659   3.626   3.766 -1.0272 -0.6438  0.6480
   51MOL   H90249002   4.421   3.697   3.795 -1.1333 -0.9980 -1.1086
   51MOL   H90349003   4.523   3.801   3.695 -1.8614  1.5385 -0.7507
   51MOL   H90449004   4.401   3.681   3.477  0.9815 -0.7359 -0.2013
   51MOL   H90549005   4.322   3.586   3.593  2.0808 -0.5066  2.6246
   51MOL   H90649006   4.169   3.774   3.508 -0.9484 -3.1362  1.4275
   51MOL   H90749007   4.191   3.760   3.677 -0.9249 -1.4531 -0.4804
   51MOL   H90849008   4.354   3.977   3.574  0.4163 -0.6384 -0.0867
   51MOL   H90949009   4.320   3.929   3.732  1.3240 -0.1500 -0.9360
   51MOL   H91049010   4.104   3.996   3.523 -0.5974 -0.3533 -0.3999
   51MOL   H91149011   4.075   4.009   3.691 -0.1117 -2.3627 -1.1631
   51MOL   H91249012   4.189   4.211   3.724 -1.0967 -0.5871  0.3851
   51MOL   H91349013   4.275   4.202   3.576 -0.7352  2.4082  0.6304
   51MOL   N91449014   4.007   4.235   3.441  0.0891  0.3060 -0.5695
   51MOL   C91549015   3.919   4.329   3.366 -0.4085  0.5395 -0.3146
   51MOL   C91649016   3.766   4.300   3.385 -0.1683  0.5685  0.0657
   51MOL   C91749017   3.700   4.377   3.478  0.1310  0.0907 -0.0644
   51MOL   C91849018   3.563   4.363   3.498  0.2427 -0.3121 -0.0321
   51MOL   C91949019   3.497   4.254   3.440  0.3622  0.4263 -0.3107
   51MOL   C92049020   3.563   4.175   3.345  0.0698  0.1195 -0.1587
   51MOL   C92149021   3.695   4.205   3.309  0.2726  0.3441  0.4106
   51MOL   C92249022   3.760   4.123   3.203 -0.3916  0.0625  0.0429
   51MOL   N92349023   3.785   3.990   3.250 -0.0908  0.2208  0.2270
   51MOL   C92449024   3.900   3.945   3.297 -0.8060 -0.5275  0.8724
   51MOL   O92549025   4.001   4.012   3.287 -0.0576 -0.1966  0.5044
   51MOL   C92649026   3.898   3.796   3.346 -0.4406 -0.2448 -0.7377
   51MOL   C92749027   3.936   3.706   3.222 -0.2626  0.0553 -0.4007
   51MOL   C92849028   3.953   3.564   3.278  0.0987 -0.9581 -0.2882
   51MOL   C92949029   4.105   3.520   3.295  0.7328 -0.5564  0.1787
   51MOL   C93049030   4.113   3.374   3.302  0.3345  0.7004  0.1966
   51MOL   C93149031   4.055   3.328   3.440  0.3880 -0.7126 -0.5639
   51MOL   C93249032   4.062   3.174   3.439 -0.5807  0.3857 -0.4692
   51MOL   C93349033   3.970   3.105   3.346 -0.2163 -0.4724 -0.6224
   51MOL   C93449034   4.033   3.056   3.215  0.1436 -0.7302 -0.1694
   51MOL   O93549035   4.146   3.007   3.213 -0.6582 -0.0543 -0.0513
   51MOL   H93649036   4.029   4.143   3.406  0.9586  0.2234  0.1868
   51MOL   H93749037   3.946   4.432   3.388 -1.2725  1.0105 -1.3713
   51MOL   H93849038   3.942   4.326   3.259  0.3238  0.5040 -0.1559
   51MOL   H93949039   3.766   4.447   3.527 -1.2497  0.3670  1.4780
   51MOL   H94049040   3.513   4.425   3.571  0.2197 -3.7507  3.0169
   51MOL   H94149041   3.395   4.231   3.465 -0.1130  1.1860 -1.5182
   51MOL   H94249042   3.509   4.097   3.295 -1.0852  1.1046 -0.4826
   51MOL   H94349043   3.853   4.171   3.172  0.6503 -1.5107  0.6944
   51MOL   H94449044   3.694   4.125   3.116 -3.4028 -0.7142  2.2668
   51MOL   H94549045   3.704   3.934   3.272  1.3633 -1.3516  1.6849
   51MOL   H94649046   3.798   3.769   3.382  0.1123 -0.9481  0.2988
   51MOL   H94749047   3.973   3.789   3.424  0.6885  2.5191 -1.5111
   51MOL   H94849048   4.022   3.737   3.163 -0.3378  2.0100  0.4947
   51MOL   H94949049   3.850   3.698   3.155 -1.1281  0.0372  0.6974
   51MOL   H95049050   3.904   3.560   3.376  1.6835 -1.7217  0.5055
   51MOL   H95149051   3.893   3.489   3.227 -0.1265 -0.4545 -0.7603
   51MOL   H95249052   4.157   3.536   3.201  0.4824 -1.1836 -0.0665
   51MOL   H95349053   4.158   3.567   3.378 -1.2240  0.2923  0.9891
   51MOL   H95449054   4.215   3.335   3.303 -0.5121 -1.5812 -0.1770
   51MOL   H95549055   4.056   3.325   3.224 -0.9817  0.8998  1.0149
   51MOL   H95649056   4.108   3.376   3.522 -2.3222 -0.4821  1.0952
   51MOL   H95749057   3.950   3.357   3.446  1.1351  1.7536  1.3950
   51MOL   H95849058   4.021   3.137   3.533 -0.8744  0.4447 -0.5761
   51MOL   H95949059   4.165   3.138   3.436 -0.4732  0.6641 -0.1152
   51MOL   H96049060   3.889   3.175   3.324  1.0528  1.3519  0.3105
   51MOL   H96149061   3.932   3.018   3.398  2.0760 -0.4448  1.1888
   51MOL   H96249062   3.958   3.052   3.136  0.0972 -1.5985 -0.0837
   7.78984   7.78984   7.78984
