;
; Gromacs include topology (itp) file.
; For Molecular Group XYZ
; Force field scheme: opls2005
; Produced from DL_FIELD v4.11
;


[ moleculetype ]
; name    nrexcl
XYZ    3

[ atoms ]
; nr   type   resnr   residu    atom    cgnr    charge    mass
    1        NT    1  MOL      N1     1  -0.9000000   14.0067
    2        CT    1  MOL      C2     2   0.1750000   12.0115
    3        CA    1  MOL      C3     3  -0.1150000   12.0115
    4        CA    1  MOL      C4     4  -0.1150000   12.0115
    5        CA    1  MOL      C5     5  -0.1150000   12.0115
    6        CA    1  MOL      C6     6  -0.1150000   12.0115
    7        CA    1  MOL      C7     7  -0.1150000   12.0115
    8        CA    1  MOL      C8     8  -0.1150000   12.0115
    9        CT    1  MOL      C9     9   0.1950000   12.0115
   10         N    1  MOL     N10    10  -0.5000000   14.0067
   11         C    1  MOL     C11    11   0.5000000   12.0115
   12         O    1  MOL     O12    12  -0.5000000   15.9994
   13        CT    1  MOL     C13    13  -0.1200000   12.0115
   14        CT    1  MOL     C14    14  -0.1200000   12.0115
   15        CT    1  MOL     C15    15  -0.1200000   12.0115
   16        CT    1  MOL     C16    16  -0.1200000   12.0115
   17        CT    1  MOL     C17    17  -0.1200000   12.0115
   18        CT    1  MOL     C18    18  -0.1200000   12.0115
   19        CT    1  MOL     C19    19  -0.1200000   12.0115
   20        CT    1  MOL     C20    20  -0.1200000   12.0115
   21         C    1  MOL     C21    21   0.5000000   12.0115
   22         O    1  MOL     O22    22  -0.5000000   15.9994
   23         H    1  MOL     H23    23   0.3600000    1.0080
   24      HANI    1  MOL     H24    24   0.0600000    1.0080
   25      HANI    1  MOL     H25    25   0.0600000    1.0080
   26        HA    1  MOL     H26    26   0.1150000    1.0080
   27        HA    1  MOL     H27    27   0.1150000    1.0080
   28        HA    1  MOL     H28    28   0.1150000    1.0080
   29        HA    1  MOL     H29    29   0.1150000    1.0080
   30        HC    1  MOL     H30    30   0.0600000    1.0080
   31        HC    1  MOL     H31    31   0.0600000    1.0080
   32         H    1  MOL     H32    32   0.3000000    1.0080
   33        HC    1  MOL     H33    33   0.0600000    1.0080
   34        HC    1  MOL     H34    34   0.0600000    1.0080
   35        HC    1  MOL     H35    35   0.0600000    1.0080
   36        HC    1  MOL     H36    36   0.0600000    1.0080
   37        HC    1  MOL     H37    37   0.0600000    1.0080
   38        HC    1  MOL     H38    38   0.0600000    1.0080
   39        HC    1  MOL     H39    39   0.0600000    1.0080
   40        HC    1  MOL     H40    40   0.0600000    1.0080
   41        HC    1  MOL     H41    41   0.0600000    1.0080
   42        HC    1  MOL     H42    42   0.0600000    1.0080
   43        HC    1  MOL     H43    43   0.0600000    1.0080
   44        HC    1  MOL     H44    44   0.0600000    1.0080
   45        HC    1  MOL     H45    45   0.0600000    1.0080
   46        HC    1  MOL     H46    46   0.0600000    1.0080
   47        HC    1  MOL     H47    47   0.0600000    1.0080
   48        HC    1  MOL     H48    48   0.0600000    1.0080
   49         H    1  MOL     H49    49   0.3600000    1.0080
   50         N    1  MOL     N50    50  -0.5000000   14.0067
   51        CT    1  MOL     C51    51   0.1950000   12.0115
   52        CA    1  MOL     C52    52  -0.1150000   12.0115
   53        CA    1  MOL     C53    53  -0.1150000   12.0115
   54        CA    1  MOL     C54    54  -0.1150000   12.0115
   55        CA    1  MOL     C55    55  -0.1150000   12.0115
   56        CA    1  MOL     C56    56  -0.1150000   12.0115
   57        CA    1  MOL     C57    57  -0.1150000   12.0115
   58        CT    1  MOL     C58    58   0.1950000   12.0115
   59         N    1  MOL     N59    59  -0.5000000   14.0067
   60         C    1  MOL     C60    60   0.5000000   12.0115
   61         O    1  MOL     O61    61  -0.5000000   15.9994
   62        CT    1  MOL     C62    62  -0.1200000   12.0115
   63        CT    1  MOL     C63    63  -0.1200000   12.0115
   64        CT    1  MOL     C64    64  -0.1200000   12.0115
   65        CT    1  MOL     C65    65  -0.1200000   12.0115
   66        CT    1  MOL     C66    66  -0.1200000   12.0115
   67        CT    1  MOL     C67    67  -0.1200000   12.0115
   68        CT    1  MOL     C68    68  -0.1200000   12.0115
   69        CT    1  MOL     C69    69  -0.1200000   12.0115
   70         C    1  MOL     C70    70   0.5000000   12.0115
   71         O    1  MOL     O71    71  -0.5000000   15.9994
   72         H    1  MOL     H72    72   0.3000000    1.0080
   73        HC    1  MOL     H73    73   0.0600000    1.0080
   74        HC    1  MOL     H74    74   0.0600000    1.0080
   75        HA    1  MOL     H75    75   0.1150000    1.0080
   76        HA    1  MOL     H76    76   0.1150000    1.0080
   77        HA    1  MOL     H77    77   0.1150000    1.0080
   78        HA    1  MOL     H78    78   0.1150000    1.0080
   79        HC    1  MOL     H79    79   0.0600000    1.0080
   80        HC    1  MOL     H80    80   0.0600000    1.0080
   81         H    1  MOL     H81    81   0.3000000    1.0080
   82        HC    1  MOL     H82    82   0.0600000    1.0080
   83        HC    1  MOL     H83    83   0.0600000    1.0080
   84        HC    1  MOL     H84    84   0.0600000    1.0080
   85        HC    1  MOL     H85    85   0.0600000    1.0080
   86        HC    1  MOL     H86    86   0.0600000    1.0080
   87        HC    1  MOL     H87    87   0.0600000    1.0080
   88        HC    1  MOL     H88    88   0.0600000    1.0080
   89        HC    1  MOL     H89    89   0.0600000    1.0080
   90        HC    1  MOL     H90    90   0.0600000    1.0080
   91        HC    1  MOL     H91    91   0.0600000    1.0080
   92        HC    1  MOL     H92    92   0.0600000    1.0080
   93        HC    1  MOL     H93    93   0.0600000    1.0080
   94        HC    1  MOL     H94    94   0.0600000    1.0080
   95        HC    1  MOL     H95    95   0.0600000    1.0080
   96        HC    1  MOL     H96    96   0.0600000    1.0080
   97        HC    1  MOL     H97    97   0.0600000    1.0080
   98         N    1  MOL     N98    98  -0.5000000   14.0067
   99        CT    1  MOL     C99    99   0.1950000   12.0115
  100        CA    1  MOL    C100   100  -0.1150000   12.0115
  101        CA    1  MOL    C101   101  -0.1150000   12.0115
  102        CA    1  MOL    C102   102  -0.1150000   12.0115
  103        CA    1  MOL    C103   103  -0.1150000   12.0115
  104        CA    1  MOL    C104   104  -0.1150000   12.0115
  105        CA    1  MOL    C105   105  -0.1150000   12.0115
  106        CT    1  MOL    C106   106   0.1950000   12.0115
  107         N    1  MOL    N107   107  -0.5000000   14.0067
  108         C    1  MOL    C108   108   0.5000000   12.0115
  109         O    1  MOL    O109   109  -0.5000000   15.9994
  110        CT    1  MOL    C110   110  -0.1200000   12.0115
  111        CT    1  MOL    C111   111  -0.1200000   12.0115
  112        CT    1  MOL    C112   112  -0.1200000   12.0115
  113        CT    1  MOL    C113   113  -0.1200000   12.0115
  114        CT    1  MOL    C114   114  -0.1200000   12.0115
  115        CT    1  MOL    C115   115  -0.1200000   12.0115
  116        CT    1  MOL    C116   116  -0.1200000   12.0115
  117        CT    1  MOL    C117   117  -0.1200000   12.0115
  118         C    1  MOL    C118   118   0.5000000   12.0115
  119         O    1  MOL    O119   119  -0.5000000   15.9994
  120         H    1  MOL    H120   120   0.3000000    1.0080
  121        HC    1  MOL    H121   121   0.0600000    1.0080
  122        HC    1  MOL    H122   122   0.0600000    1.0080
  123        HA    1  MOL    H123   123   0.1150000    1.0080
  124        HA    1  MOL    H124   124   0.1150000    1.0080
  125        HA    1  MOL    H125   125   0.1150000    1.0080
  126        HA    1  MOL    H126   126   0.1150000    1.0080
  127        HC    1  MOL    H127   127   0.0600000    1.0080
  128        HC    1  MOL    H128   128   0.0600000    1.0080
  129         H    1  MOL    H129   129   0.3000000    1.0080
  130        HC    1  MOL    H130   130   0.0600000    1.0080
  131        HC    1  MOL    H131   131   0.0600000    1.0080
  132        HC    1  MOL    H132   132   0.0600000    1.0080
  133        HC    1  MOL    H133   133   0.0600000    1.0080
  134        HC    1  MOL    H134   134   0.0600000    1.0080
  135        HC    1  MOL    H135   135   0.0600000    1.0080
  136        HC    1  MOL    H136   136   0.0600000    1.0080
  137        HC    1  MOL    H137   137   0.0600000    1.0080
  138        HC    1  MOL    H138   138   0.0600000    1.0080
  139        HC    1  MOL    H139   139   0.0600000    1.0080
  140        HC    1  MOL    H140   140   0.0600000    1.0080
  141        HC    1  MOL    H141   141   0.0600000    1.0080
  142        HC    1  MOL    H142   142   0.0600000    1.0080
  143        HC    1  MOL    H143   143   0.0600000    1.0080
  144        HC    1  MOL    H144   144   0.0600000    1.0080
  145        HC    1  MOL    H145   145   0.0600000    1.0080
  146         N    1  MOL    N146   146  -0.5000000   14.0067
  147        CT    1  MOL    C147   147   0.1950000   12.0115
  148        CA    1  MOL    C148   148  -0.1150000   12.0115
  149        CA    1  MOL    C149   149  -0.1150000   12.0115
  150        CA    1  MOL    C150   150  -0.1150000   12.0115
  151        CA    1  MOL    C151   151  -0.1150000   12.0115
  152        CA    1  MOL    C152   152  -0.1150000   12.0115
  153        CA    1  MOL    C153   153  -0.1150000   12.0115
  154        CT    1  MOL    C154   154   0.1950000   12.0115
  155         N    1  MOL    N155   155  -0.5000000   14.0067
  156         C    1  MOL    C156   156   0.5000000   12.0115
  157         O    1  MOL    O157   157  -0.5000000   15.9994
  158        CT    1  MOL    C158   158  -0.1200000   12.0115
  159        CT    1  MOL    C159   159  -0.1200000   12.0115
  160        CT    1  MOL    C160   160  -0.1200000   12.0115
  161        CT    1  MOL    C161   161  -0.1200000   12.0115
  162        CT    1  MOL    C162   162  -0.1200000   12.0115
  163        CT    1  MOL    C163   163  -0.1200000   12.0115
  164        CT    1  MOL    C164   164  -0.1200000   12.0115
  165        CT    1  MOL    C165   165  -0.1200000   12.0115
  166         C    1  MOL    C166   166   0.5000000   12.0115
  167         O    1  MOL    O167   167  -0.5000000   15.9994
  168         H    1  MOL    H168   168   0.3000000    1.0080
  169        HC    1  MOL    H169   169   0.0600000    1.0080
  170        HC    1  MOL    H170   170   0.0600000    1.0080
  171        HA    1  MOL    H171   171   0.1150000    1.0080
  172        HA    1  MOL    H172   172   0.1150000    1.0080
  173        HA    1  MOL    H173   173   0.1150000    1.0080
  174        HA    1  MOL    H174   174   0.1150000    1.0080
  175        HC    1  MOL    H175   175   0.0600000    1.0080
  176        HC    1  MOL    H176   176   0.0600000    1.0080
  177         H    1  MOL    H177   177   0.3000000    1.0080
  178        HC    1  MOL    H178   178   0.0600000    1.0080
  179        HC    1  MOL    H179   179   0.0600000    1.0080
  180        HC    1  MOL    H180   180   0.0600000    1.0080
  181        HC    1  MOL    H181   181   0.0600000    1.0080
  182        HC    1  MOL    H182   182   0.0600000    1.0080
  183        HC    1  MOL    H183   183   0.0600000    1.0080
  184        HC    1  MOL    H184   184   0.0600000    1.0080
  185        HC    1  MOL    H185   185   0.0600000    1.0080
  186        HC    1  MOL    H186   186   0.0600000    1.0080
  187        HC    1  MOL    H187   187   0.0600000    1.0080
  188        HC    1  MOL    H188   188   0.0600000    1.0080
  189        HC    1  MOL    H189   189   0.0600000    1.0080
  190        HC    1  MOL    H190   190   0.0600000    1.0080
  191        HC    1  MOL    H191   191   0.0600000    1.0080
  192        HC    1  MOL    H192   192   0.0600000    1.0080
  193        HC    1  MOL    H193   193   0.0600000    1.0080
  194         N    1  MOL    N194   194  -0.5000000   14.0067
  195        CT    1  MOL    C195   195   0.1950000   12.0115
  196        CA    1  MOL    C196   196  -0.1150000   12.0115
  197        CA    1  MOL    C197   197  -0.1150000   12.0115
  198        CA    1  MOL    C198   198  -0.1150000   12.0115
  199        CA    1  MOL    C199   199  -0.1150000   12.0115
  200        CA    1  MOL    C200   200  -0.1150000   12.0115
  201        CA    1  MOL    C201   201  -0.1150000   12.0115
  202        CT    1  MOL    C202   202   0.1950000   12.0115
  203         N    1  MOL    N203   203  -0.5000000   14.0067
  204         C    1  MOL    C204   204   0.5000000   12.0115
  205         O    1  MOL    O205   205  -0.5000000   15.9994
  206        CT    1  MOL    C206   206  -0.1200000   12.0115
  207        CT    1  MOL    C207   207  -0.1200000   12.0115
  208        CT    1  MOL    C208   208  -0.1200000   12.0115
  209        CT    1  MOL    C209   209  -0.1200000   12.0115
  210        CT    1  MOL    C210   210  -0.1200000   12.0115
  211        CT    1  MOL    C211   211  -0.1200000   12.0115
  212        CT    1  MOL    C212   212  -0.1200000   12.0115
  213        CT    1  MOL    C213   213  -0.1200000   12.0115
  214         C    1  MOL    C214   214   0.5000000   12.0115
  215         O    1  MOL    O215   215  -0.5000000   15.9994
  216         H    1  MOL    H216   216   0.3000000    1.0080
  217        HC    1  MOL    H217   217   0.0600000    1.0080
  218        HC    1  MOL    H218   218   0.0600000    1.0080
  219        HA    1  MOL    H219   219   0.1150000    1.0080
  220        HA    1  MOL    H220   220   0.1150000    1.0080
  221        HA    1  MOL    H221   221   0.1150000    1.0080
  222        HA    1  MOL    H222   222   0.1150000    1.0080
  223        HC    1  MOL    H223   223   0.0600000    1.0080
  224        HC    1  MOL    H224   224   0.0600000    1.0080
  225         H    1  MOL    H225   225   0.3000000    1.0080
  226        HC    1  MOL    H226   226   0.0600000    1.0080
  227        HC    1  MOL    H227   227   0.0600000    1.0080
  228        HC    1  MOL    H228   228   0.0600000    1.0080
  229        HC    1  MOL    H229   229   0.0600000    1.0080
  230        HC    1  MOL    H230   230   0.0600000    1.0080
  231        HC    1  MOL    H231   231   0.0600000    1.0080
  232        HC    1  MOL    H232   232   0.0600000    1.0080
  233        HC    1  MOL    H233   233   0.0600000    1.0080
  234        HC    1  MOL    H234   234   0.0600000    1.0080
  235        HC    1  MOL    H235   235   0.0600000    1.0080
  236        HC    1  MOL    H236   236   0.0600000    1.0080
  237        HC    1  MOL    H237   237   0.0600000    1.0080
  238        HC    1  MOL    H238   238   0.0600000    1.0080
  239        HC    1  MOL    H239   239   0.0600000    1.0080
  240        HC    1  MOL    H240   240   0.0600000    1.0080
  241        HC    1  MOL    H241   241   0.0600000    1.0080
  242         N    1  MOL    N242   242  -0.5000000   14.0067
  243        CT    1  MOL    C243   243   0.1950000   12.0115
  244        CA    1  MOL    C244   244  -0.1150000   12.0115
  245        CA    1  MOL    C245   245  -0.1150000   12.0115
  246        CA    1  MOL    C246   246  -0.1150000   12.0115
  247        CA    1  MOL    C247   247  -0.1150000   12.0115
  248        CA    1  MOL    C248   248  -0.1150000   12.0115
  249        CA    1  MOL    C249   249  -0.1150000   12.0115
  250        CT    1  MOL    C250   250   0.1950000   12.0115
  251         N    1  MOL    N251   251  -0.5000000   14.0067
  252         C    1  MOL    C252   252   0.5000000   12.0115
  253         O    1  MOL    O253   253  -0.5000000   15.9994
  254        CT    1  MOL    C254   254  -0.1200000   12.0115
  255        CT    1  MOL    C255   255  -0.1200000   12.0115
  256        CT    1  MOL    C256   256  -0.1200000   12.0115
  257        CT    1  MOL    C257   257  -0.1200000   12.0115
  258        CT    1  MOL    C258   258  -0.1200000   12.0115
  259        CT    1  MOL    C259   259  -0.1200000   12.0115
  260        CT    1  MOL    C260   260  -0.1200000   12.0115
  261        CT    1  MOL    C261   261  -0.1200000   12.0115
  262         C    1  MOL    C262   262   0.5000000   12.0115
  263         O    1  MOL    O263   263  -0.5000000   15.9994
  264         H    1  MOL    H264   264   0.3000000    1.0080
  265        HC    1  MOL    H265   265   0.0600000    1.0080
  266        HC    1  MOL    H266   266   0.0600000    1.0080
  267        HA    1  MOL    H267   267   0.1150000    1.0080
  268        HA    1  MOL    H268   268   0.1150000    1.0080
  269        HA    1  MOL    H269   269   0.1150000    1.0080
  270        HA    1  MOL    H270   270   0.1150000    1.0080
  271        HC    1  MOL    H271   271   0.0600000    1.0080
  272        HC    1  MOL    H272   272   0.0600000    1.0080
  273         H    1  MOL    H273   273   0.3000000    1.0080
  274        HC    1  MOL    H274   274   0.0600000    1.0080
  275        HC    1  MOL    H275   275   0.0600000    1.0080
  276        HC    1  MOL    H276   276   0.0600000    1.0080
  277        HC    1  MOL    H277   277   0.0600000    1.0080
  278        HC    1  MOL    H278   278   0.0600000    1.0080
  279        HC    1  MOL    H279   279   0.0600000    1.0080
  280        HC    1  MOL    H280   280   0.0600000    1.0080
  281        HC    1  MOL    H281   281   0.0600000    1.0080
  282        HC    1  MOL    H282   282   0.0600000    1.0080
  283        HC    1  MOL    H283   283   0.0600000    1.0080
  284        HC    1  MOL    H284   284   0.0600000    1.0080
  285        HC    1  MOL    H285   285   0.0600000    1.0080
  286        HC    1  MOL    H286   286   0.0600000    1.0080
  287        HC    1  MOL    H287   287   0.0600000    1.0080
  288        HC    1  MOL    H288   288   0.0600000    1.0080
  289        HC    1  MOL    H289   289   0.0600000    1.0080
  290         N    1  MOL    N290   290  -0.5000000   14.0067
  291        CT    1  MOL    C291   291   0.1950000   12.0115
  292        CA    1  MOL    C292   292  -0.1150000   12.0115
  293        CA    1  MOL    C293   293  -0.1150000   12.0115
  294        CA    1  MOL    C294   294  -0.1150000   12.0115
  295        CA    1  MOL    C295   295  -0.1150000   12.0115
  296        CA    1  MOL    C296   296  -0.1150000   12.0115
  297        CA    1  MOL    C297   297  -0.1150000   12.0115
  298        CT    1  MOL    C298   298   0.1950000   12.0115
  299         N    1  MOL    N299   299  -0.5000000   14.0067
  300         C    1  MOL    C300   300   0.5000000   12.0115
  301         O    1  MOL    O301   301  -0.5000000   15.9994
  302        CT    1  MOL    C302   302  -0.1200000   12.0115
  303        CT    1  MOL    C303   303  -0.1200000   12.0115
  304        CT    1  MOL    C304   304  -0.1200000   12.0115
  305        CT    1  MOL    C305   305  -0.1200000   12.0115
  306        CT    1  MOL    C306   306  -0.1200000   12.0115
  307        CT    1  MOL    C307   307  -0.1200000   12.0115
  308        CT    1  MOL    C308   308  -0.1200000   12.0115
  309        CT    1  MOL    C309   309  -0.1200000   12.0115
  310         C    1  MOL    C310   310   0.5000000   12.0115
  311         O    1  MOL    O311   311  -0.5000000   15.9994
  312         H    1  MOL    H312   312   0.3000000    1.0080
  313        HC    1  MOL    H313   313   0.0600000    1.0080
  314        HC    1  MOL    H314   314   0.0600000    1.0080
  315        HA    1  MOL    H315   315   0.1150000    1.0080
  316        HA    1  MOL    H316   316   0.1150000    1.0080
  317        HA    1  MOL    H317   317   0.1150000    1.0080
  318        HA    1  MOL    H318   318   0.1150000    1.0080
  319        HC    1  MOL    H319   319   0.0600000    1.0080
  320        HC    1  MOL    H320   320   0.0600000    1.0080
  321         H    1  MOL    H321   321   0.3000000    1.0080
  322        HC    1  MOL    H322   322   0.0600000    1.0080
  323        HC    1  MOL    H323   323   0.0600000    1.0080
  324        HC    1  MOL    H324   324   0.0600000    1.0080
  325        HC    1  MOL    H325   325   0.0600000    1.0080
  326        HC    1  MOL    H326   326   0.0600000    1.0080
  327        HC    1  MOL    H327   327   0.0600000    1.0080
  328        HC    1  MOL    H328   328   0.0600000    1.0080
  329        HC    1  MOL    H329   329   0.0600000    1.0080
  330        HC    1  MOL    H330   330   0.0600000    1.0080
  331        HC    1  MOL    H331   331   0.0600000    1.0080
  332        HC    1  MOL    H332   332   0.0600000    1.0080
  333        HC    1  MOL    H333   333   0.0600000    1.0080
  334        HC    1  MOL    H334   334   0.0600000    1.0080
  335        HC    1  MOL    H335   335   0.0600000    1.0080
  336        HC    1  MOL    H336   336   0.0600000    1.0080
  337        HC    1  MOL    H337   337   0.0600000    1.0080
  338         N    1  MOL    N338   338  -0.5000000   14.0067
  339        CT    1  MOL    C339   339   0.1950000   12.0115
  340        CA    1  MOL    C340   340  -0.1150000   12.0115
  341        CA    1  MOL    C341   341  -0.1150000   12.0115
  342        CA    1  MOL    C342   342  -0.1150000   12.0115
  343        CA    1  MOL    C343   343  -0.1150000   12.0115
  344        CA    1  MOL    C344   344  -0.1150000   12.0115
  345        CA    1  MOL    C345   345  -0.1150000   12.0115
  346        CT    1  MOL    C346   346   0.1950000   12.0115
  347         N    1  MOL    N347   347  -0.5000000   14.0067
  348         C    1  MOL    C348   348   0.5000000   12.0115
  349         O    1  MOL    O349   349  -0.5000000   15.9994
  350        CT    1  MOL    C350   350  -0.1200000   12.0115
  351        CT    1  MOL    C351   351  -0.1200000   12.0115
  352        CT    1  MOL    C352   352  -0.1200000   12.0115
  353        CT    1  MOL    C353   353  -0.1200000   12.0115
  354        CT    1  MOL    C354   354  -0.1200000   12.0115
  355        CT    1  MOL    C355   355  -0.1200000   12.0115
  356        CT    1  MOL    C356   356  -0.1200000   12.0115
  357        CT    1  MOL    C357   357  -0.1200000   12.0115
  358         C    1  MOL    C358   358   0.5000000   12.0115
  359         O    1  MOL    O359   359  -0.5000000   15.9994
  360         H    1  MOL    H360   360   0.3000000    1.0080
  361        HC    1  MOL    H361   361   0.0600000    1.0080
  362        HC    1  MOL    H362   362   0.0600000    1.0080
  363        HA    1  MOL    H363   363   0.1150000    1.0080
  364        HA    1  MOL    H364   364   0.1150000    1.0080
  365        HA    1  MOL    H365   365   0.1150000    1.0080
  366        HA    1  MOL    H366   366   0.1150000    1.0080
  367        HC    1  MOL    H367   367   0.0600000    1.0080
  368        HC    1  MOL    H368   368   0.0600000    1.0080
  369         H    1  MOL    H369   369   0.3000000    1.0080
  370        HC    1  MOL    H370   370   0.0600000    1.0080
  371        HC    1  MOL    H371   371   0.0600000    1.0080
  372        HC    1  MOL    H372   372   0.0600000    1.0080
  373        HC    1  MOL    H373   373   0.0600000    1.0080
  374        HC    1  MOL    H374   374   0.0600000    1.0080
  375        HC    1  MOL    H375   375   0.0600000    1.0080
  376        HC    1  MOL    H376   376   0.0600000    1.0080
  377        HC    1  MOL    H377   377   0.0600000    1.0080
  378        HC    1  MOL    H378   378   0.0600000    1.0080
  379        HC    1  MOL    H379   379   0.0600000    1.0080
  380        HC    1  MOL    H380   380   0.0600000    1.0080
  381        HC    1  MOL    H381   381   0.0600000    1.0080
  382        HC    1  MOL    H382   382   0.0600000    1.0080
  383        HC    1  MOL    H383   383   0.0600000    1.0080
  384        HC    1  MOL    H384   384   0.0600000    1.0080
  385        HC    1  MOL    H385   385   0.0600000    1.0080
  386         N    1  MOL    N386   386  -0.5000000   14.0067
  387        CT    1  MOL    C387   387   0.1950000   12.0115
  388        CA    1  MOL    C388   388  -0.1150000   12.0115
  389        CA    1  MOL    C389   389  -0.1150000   12.0115
  390        CA    1  MOL    C390   390  -0.1150000   12.0115
  391        CA    1  MOL    C391   391  -0.1150000   12.0115
  392        CA    1  MOL    C392   392  -0.1150000   12.0115
  393        CA    1  MOL    C393   393  -0.1150000   12.0115
  394        CT    1  MOL    C394   394   0.1950000   12.0115
  395         N    1  MOL    N395   395  -0.5000000   14.0067
  396         C    1  MOL    C396   396   0.5000000   12.0115
  397         O    1  MOL    O397   397  -0.5000000   15.9994
  398        CT    1  MOL    C398   398  -0.1200000   12.0115
  399        CT    1  MOL    C399   399  -0.1200000   12.0115
  400        CT    1  MOL    C400   400  -0.1200000   12.0115
  401        CT    1  MOL    C401   401  -0.1200000   12.0115
  402        CT    1  MOL    C402   402  -0.1200000   12.0115
  403        CT    1  MOL    C403   403  -0.1200000   12.0115
  404        CT    1  MOL    C404   404  -0.1200000   12.0115
  405        CT    1  MOL    C405   405  -0.1200000   12.0115
  406         C    1  MOL    C406   406   0.5000000   12.0115
  407         O    1  MOL    O407   407  -0.5000000   15.9994
  408         H    1  MOL    H408   408   0.3000000    1.0080
  409        HC    1  MOL    H409   409   0.0600000    1.0080
  410        HC    1  MOL    H410   410   0.0600000    1.0080
  411        HA    1  MOL    H411   411   0.1150000    1.0080
  412        HA    1  MOL    H412   412   0.1150000    1.0080
  413        HA    1  MOL    H413   413   0.1150000    1.0080
  414        HA    1  MOL    H414   414   0.1150000    1.0080
  415        HC    1  MOL    H415   415   0.0600000    1.0080
  416        HC    1  MOL    H416   416   0.0600000    1.0080
  417         H    1  MOL    H417   417   0.3000000    1.0080
  418        HC    1  MOL    H418   418   0.0600000    1.0080
  419        HC    1  MOL    H419   419   0.0600000    1.0080
  420        HC    1  MOL    H420   420   0.0600000    1.0080
  421        HC    1  MOL    H421   421   0.0600000    1.0080
  422        HC    1  MOL    H422   422   0.0600000    1.0080
  423        HC    1  MOL    H423   423   0.0600000    1.0080
  424        HC    1  MOL    H424   424   0.0600000    1.0080
  425        HC    1  MOL    H425   425   0.0600000    1.0080
  426        HC    1  MOL    H426   426   0.0600000    1.0080
  427        HC    1  MOL    H427   427   0.0600000    1.0080
  428        HC    1  MOL    H428   428   0.0600000    1.0080
  429        HC    1  MOL    H429   429   0.0600000    1.0080
  430        HC    1  MOL    H430   430   0.0600000    1.0080
  431        HC    1  MOL    H431   431   0.0600000    1.0080
  432        HC    1  MOL    H432   432   0.0600000    1.0080
  433        HC    1  MOL    H433   433   0.0600000    1.0080
  434         N    1  MOL    N434   434  -0.5000000   14.0067
  435        CT    1  MOL    C435   435   0.1950000   12.0115
  436        CA    1  MOL    C436   436  -0.1150000   12.0115
  437        CA    1  MOL    C437   437  -0.1150000   12.0115
  438        CA    1  MOL    C438   438  -0.1150000   12.0115
  439        CA    1  MOL    C439   439  -0.1150000   12.0115
  440        CA    1  MOL    C440   440  -0.1150000   12.0115
  441        CA    1  MOL    C441   441  -0.1150000   12.0115
  442        CT    1  MOL    C442   442   0.1950000   12.0115
  443         N    1  MOL    N443   443  -0.5000000   14.0067
  444         C    1  MOL    C444   444   0.5000000   12.0115
  445         O    1  MOL    O445   445  -0.5000000   15.9994
  446        CT    1  MOL    C446   446  -0.1200000   12.0115
  447        CT    1  MOL    C447   447  -0.1200000   12.0115
  448        CT    1  MOL    C448   448  -0.1200000   12.0115
  449        CT    1  MOL    C449   449  -0.1200000   12.0115
  450        CT    1  MOL    C450   450  -0.1200000   12.0115
  451        CT    1  MOL    C451   451  -0.1200000   12.0115
  452        CT    1  MOL    C452   452  -0.1200000   12.0115
  453        CT    1  MOL    C453   453  -0.1200000   12.0115
  454         C    1  MOL    C454   454   0.5000000   12.0115
  455         O    1  MOL    O455   455  -0.5000000   15.9994
  456         H    1  MOL    H456   456   0.3000000    1.0080
  457        HC    1  MOL    H457   457   0.0600000    1.0080
  458        HC    1  MOL    H458   458   0.0600000    1.0080
  459        HA    1  MOL    H459   459   0.1150000    1.0080
  460        HA    1  MOL    H460   460   0.1150000    1.0080
  461        HA    1  MOL    H461   461   0.1150000    1.0080
  462        HA    1  MOL    H462   462   0.1150000    1.0080
  463        HC    1  MOL    H463   463   0.0600000    1.0080
  464        HC    1  MOL    H464   464   0.0600000    1.0080
  465         H    1  MOL    H465   465   0.3000000    1.0080
  466        HC    1  MOL    H466   466   0.0600000    1.0080
  467        HC    1  MOL    H467   467   0.0600000    1.0080
  468        HC    1  MOL    H468   468   0.0600000    1.0080
  469        HC    1  MOL    H469   469   0.0600000    1.0080
  470        HC    1  MOL    H470   470   0.0600000    1.0080
  471        HC    1  MOL    H471   471   0.0600000    1.0080
  472        HC    1  MOL    H472   472   0.0600000    1.0080
  473        HC    1  MOL    H473   473   0.0600000    1.0080
  474        HC    1  MOL    H474   474   0.0600000    1.0080
  475        HC    1  MOL    H475   475   0.0600000    1.0080
  476        HC    1  MOL    H476   476   0.0600000    1.0080
  477        HC    1  MOL    H477   477   0.0600000    1.0080
  478        HC    1  MOL    H478   478   0.0600000    1.0080
  479        HC    1  MOL    H479   479   0.0600000    1.0080
  480        HC    1  MOL    H480   480   0.0600000    1.0080
  481        HC    1  MOL    H481   481   0.0600000    1.0080
  482         N    1  MOL    N482   482  -0.5000000   14.0067
  483        CT    1  MOL    C483   483   0.1950000   12.0115
  484        CA    1  MOL    C484   484  -0.1150000   12.0115
  485        CA    1  MOL    C485   485  -0.1150000   12.0115
  486        CA    1  MOL    C486   486  -0.1150000   12.0115
  487        CA    1  MOL    C487   487  -0.1150000   12.0115
  488        CA    1  MOL    C488   488  -0.1150000   12.0115
  489        CA    1  MOL    C489   489  -0.1150000   12.0115
  490        CT    1  MOL    C490   490   0.1950000   12.0115
  491         N    1  MOL    N491   491  -0.5000000   14.0067
  492         C    1  MOL    C492   492   0.5000000   12.0115
  493         O    1  MOL    O493   493  -0.5000000   15.9994
  494        CT    1  MOL    C494   494  -0.1200000   12.0115
  495        CT    1  MOL    C495   495  -0.1200000   12.0115
  496        CT    1  MOL    C496   496  -0.1200000   12.0115
  497        CT    1  MOL    C497   497  -0.1200000   12.0115
  498        CT    1  MOL    C498   498  -0.1200000   12.0115
  499        CT    1  MOL    C499   499  -0.1200000   12.0115
  500        CT    1  MOL    C500   500  -0.1200000   12.0115
  501        CT    1  MOL    C501   501  -0.1200000   12.0115
  502         C    1  MOL    C502   502   0.5000000   12.0115
  503         O    1  MOL    O503   503  -0.5000000   15.9994
  504         H    1  MOL    H504   504   0.3000000    1.0080
  505        HC    1  MOL    H505   505   0.0600000    1.0080
  506        HC    1  MOL    H506   506   0.0600000    1.0080
  507        HA    1  MOL    H507   507   0.1150000    1.0080
  508        HA    1  MOL    H508   508   0.1150000    1.0080
  509        HA    1  MOL    H509   509   0.1150000    1.0080
  510        HA    1  MOL    H510   510   0.1150000    1.0080
  511        HC    1  MOL    H511   511   0.0600000    1.0080
  512        HC    1  MOL    H512   512   0.0600000    1.0080
  513         H    1  MOL    H513   513   0.3000000    1.0080
  514        HC    1  MOL    H514   514   0.0600000    1.0080
  515        HC    1  MOL    H515   515   0.0600000    1.0080
  516        HC    1  MOL    H516   516   0.0600000    1.0080
  517        HC    1  MOL    H517   517   0.0600000    1.0080
  518        HC    1  MOL    H518   518   0.0600000    1.0080
  519        HC    1  MOL    H519   519   0.0600000    1.0080
  520        HC    1  MOL    H520   520   0.0600000    1.0080
  521        HC    1  MOL    H521   521   0.0600000    1.0080
  522        HC    1  MOL    H522   522   0.0600000    1.0080
  523        HC    1  MOL    H523   523   0.0600000    1.0080
  524        HC    1  MOL    H524   524   0.0600000    1.0080
  525        HC    1  MOL    H525   525   0.0600000    1.0080
  526        HC    1  MOL    H526   526   0.0600000    1.0080
  527        HC    1  MOL    H527   527   0.0600000    1.0080
  528        HC    1  MOL    H528   528   0.0600000    1.0080
  529        HC    1  MOL    H529   529   0.0600000    1.0080
  530         N    1  MOL    N530   530  -0.5000000   14.0067
  531        CT    1  MOL    C531   531   0.1950000   12.0115
  532        CA    1  MOL    C532   532  -0.1150000   12.0115
  533        CA    1  MOL    C533   533  -0.1150000   12.0115
  534        CA    1  MOL    C534   534  -0.1150000   12.0115
  535        CA    1  MOL    C535   535  -0.1150000   12.0115
  536        CA    1  MOL    C536   536  -0.1150000   12.0115
  537        CA    1  MOL    C537   537  -0.1150000   12.0115
  538        CT    1  MOL    C538   538   0.1950000   12.0115
  539         N    1  MOL    N539   539  -0.5000000   14.0067
  540         C    1  MOL    C540   540   0.5000000   12.0115
  541         O    1  MOL    O541   541  -0.5000000   15.9994
  542        CT    1  MOL    C542   542  -0.1200000   12.0115
  543        CT    1  MOL    C543   543  -0.1200000   12.0115
  544        CT    1  MOL    C544   544  -0.1200000   12.0115
  545        CT    1  MOL    C545   545  -0.1200000   12.0115
  546        CT    1  MOL    C546   546  -0.1200000   12.0115
  547        CT    1  MOL    C547   547  -0.1200000   12.0115
  548        CT    1  MOL    C548   548  -0.1200000   12.0115
  549        CT    1  MOL    C549   549  -0.1200000   12.0115
  550         C    1  MOL    C550   550   0.5000000   12.0115
  551         O    1  MOL    O551   551  -0.5000000   15.9994
  552         H    1  MOL    H552   552   0.3000000    1.0080
  553        HC    1  MOL    H553   553   0.0600000    1.0080
  554        HC    1  MOL    H554   554   0.0600000    1.0080
  555        HA    1  MOL    H555   555   0.1150000    1.0080
  556        HA    1  MOL    H556   556   0.1150000    1.0080
  557        HA    1  MOL    H557   557   0.1150000    1.0080
  558        HA    1  MOL    H558   558   0.1150000    1.0080
  559        HC    1  MOL    H559   559   0.0600000    1.0080
  560        HC    1  MOL    H560   560   0.0600000    1.0080
  561         H    1  MOL    H561   561   0.3000000    1.0080
  562        HC    1  MOL    H562   562   0.0600000    1.0080
  563        HC    1  MOL    H563   563   0.0600000    1.0080
  564        HC    1  MOL    H564   564   0.0600000    1.0080
  565        HC    1  MOL    H565   565   0.0600000    1.0080
  566        HC    1  MOL    H566   566   0.0600000    1.0080
  567        HC    1  MOL    H567   567   0.0600000    1.0080
  568        HC    1  MOL    H568   568   0.0600000    1.0080
  569        HC    1  MOL    H569   569   0.0600000    1.0080
  570        HC    1  MOL    H570   570   0.0600000    1.0080
  571        HC    1  MOL    H571   571   0.0600000    1.0080
  572        HC    1  MOL    H572   572   0.0600000    1.0080
  573        HC    1  MOL    H573   573   0.0600000    1.0080
  574        HC    1  MOL    H574   574   0.0600000    1.0080
  575        HC    1  MOL    H575   575   0.0600000    1.0080
  576        HC    1  MOL    H576   576   0.0600000    1.0080
  577        HC    1  MOL    H577   577   0.0600000    1.0080
  578         N    1  MOL    N578   578  -0.5000000   14.0067
  579        CT    1  MOL    C579   579   0.1950000   12.0115
  580        CA    1  MOL    C580   580  -0.1150000   12.0115
  581        CA    1  MOL    C581   581  -0.1150000   12.0115
  582        CA    1  MOL    C582   582  -0.1150000   12.0115
  583        CA    1  MOL    C583   583  -0.1150000   12.0115
  584        CA    1  MOL    C584   584  -0.1150000   12.0115
  585        CA    1  MOL    C585   585  -0.1150000   12.0115
  586        CT    1  MOL    C586   586   0.1950000   12.0115
  587         N    1  MOL    N587   587  -0.5000000   14.0067
  588         C    1  MOL    C588   588   0.5000000   12.0115
  589         O    1  MOL    O589   589  -0.5000000   15.9994
  590        CT    1  MOL    C590   590  -0.1200000   12.0115
  591        CT    1  MOL    C591   591  -0.1200000   12.0115
  592        CT    1  MOL    C592   592  -0.1200000   12.0115
  593        CT    1  MOL    C593   593  -0.1200000   12.0115
  594        CT    1  MOL    C594   594  -0.1200000   12.0115
  595        CT    1  MOL    C595   595  -0.1200000   12.0115
  596        CT    1  MOL    C596   596  -0.1200000   12.0115
  597        CT    1  MOL    C597   597  -0.1200000   12.0115
  598         C    1  MOL    C598   598   0.5000000   12.0115
  599         O    1  MOL    O599   599  -0.5000000   15.9994
  600         H    1  MOL    H600   600   0.3000000    1.0080
  601        HC    1  MOL    H601   601   0.0600000    1.0080
  602        HC    1  MOL    H602   602   0.0600000    1.0080
  603        HA    1  MOL    H603   603   0.1150000    1.0080
  604        HA    1  MOL    H604   604   0.1150000    1.0080
  605        HA    1  MOL    H605   605   0.1150000    1.0080
  606        HA    1  MOL    H606   606   0.1150000    1.0080
  607        HC    1  MOL    H607   607   0.0600000    1.0080
  608        HC    1  MOL    H608   608   0.0600000    1.0080
  609         H    1  MOL    H609   609   0.3000000    1.0080
  610        HC    1  MOL    H610   610   0.0600000    1.0080
  611        HC    1  MOL    H611   611   0.0600000    1.0080
  612        HC    1  MOL    H612   612   0.0600000    1.0080
  613        HC    1  MOL    H613   613   0.0600000    1.0080
  614        HC    1  MOL    H614   614   0.0600000    1.0080
  615        HC    1  MOL    H615   615   0.0600000    1.0080
  616        HC    1  MOL    H616   616   0.0600000    1.0080
  617        HC    1  MOL    H617   617   0.0600000    1.0080
  618        HC    1  MOL    H618   618   0.0600000    1.0080
  619        HC    1  MOL    H619   619   0.0600000    1.0080
  620        HC    1  MOL    H620   620   0.0600000    1.0080
  621        HC    1  MOL    H621   621   0.0600000    1.0080
  622        HC    1  MOL    H622   622   0.0600000    1.0080
  623        HC    1  MOL    H623   623   0.0600000    1.0080
  624        HC    1  MOL    H624   624   0.0600000    1.0080
  625        HC    1  MOL    H625   625   0.0600000    1.0080
  626         N    1  MOL    N626   626  -0.5000000   14.0067
  627        CT    1  MOL    C627   627   0.1950000   12.0115
  628        CA    1  MOL    C628   628  -0.1150000   12.0115
  629        CA    1  MOL    C629   629  -0.1150000   12.0115
  630        CA    1  MOL    C630   630  -0.1150000   12.0115
  631        CA    1  MOL    C631   631  -0.1150000   12.0115
  632        CA    1  MOL    C632   632  -0.1150000   12.0115
  633        CA    1  MOL    C633   633  -0.1150000   12.0115
  634        CT    1  MOL    C634   634   0.1950000   12.0115
  635         N    1  MOL    N635   635  -0.5000000   14.0067
  636         C    1  MOL    C636   636   0.5000000   12.0115
  637         O    1  MOL    O637   637  -0.5000000   15.9994
  638        CT    1  MOL    C638   638  -0.1200000   12.0115
  639        CT    1  MOL    C639   639  -0.1200000   12.0115
  640        CT    1  MOL    C640   640  -0.1200000   12.0115
  641        CT    1  MOL    C641   641  -0.1200000   12.0115
  642        CT    1  MOL    C642   642  -0.1200000   12.0115
  643        CT    1  MOL    C643   643  -0.1200000   12.0115
  644        CT    1  MOL    C644   644  -0.1200000   12.0115
  645        CT    1  MOL    C645   645  -0.1200000   12.0115
  646         C    1  MOL    C646   646   0.5000000   12.0115
  647         O    1  MOL    O647   647  -0.5000000   15.9994
  648         H    1  MOL    H648   648   0.3000000    1.0080
  649        HC    1  MOL    H649   649   0.0600000    1.0080
  650        HC    1  MOL    H650   650   0.0600000    1.0080
  651        HA    1  MOL    H651   651   0.1150000    1.0080
  652        HA    1  MOL    H652   652   0.1150000    1.0080
  653        HA    1  MOL    H653   653   0.1150000    1.0080
  654        HA    1  MOL    H654   654   0.1150000    1.0080
  655        HC    1  MOL    H655   655   0.0600000    1.0080
  656        HC    1  MOL    H656   656   0.0600000    1.0080
  657         H    1  MOL    H657   657   0.3000000    1.0080
  658        HC    1  MOL    H658   658   0.0600000    1.0080
  659        HC    1  MOL    H659   659   0.0600000    1.0080
  660        HC    1  MOL    H660   660   0.0600000    1.0080
  661        HC    1  MOL    H661   661   0.0600000    1.0080
  662        HC    1  MOL    H662   662   0.0600000    1.0080
  663        HC    1  MOL    H663   663   0.0600000    1.0080
  664        HC    1  MOL    H664   664   0.0600000    1.0080
  665        HC    1  MOL    H665   665   0.0600000    1.0080
  666        HC    1  MOL    H666   666   0.0600000    1.0080
  667        HC    1  MOL    H667   667   0.0600000    1.0080
  668        HC    1  MOL    H668   668   0.0600000    1.0080
  669        HC    1  MOL    H669   669   0.0600000    1.0080
  670        HC    1  MOL    H670   670   0.0600000    1.0080
  671        HC    1  MOL    H671   671   0.0600000    1.0080
  672        HC    1  MOL    H672   672   0.0600000    1.0080
  673        HC    1  MOL    H673   673   0.0600000    1.0080
  674         N    1  MOL    N674   674  -0.5000000   14.0067
  675        CT    1  MOL    C675   675   0.1950000   12.0115
  676        CA    1  MOL    C676   676  -0.1150000   12.0115
  677        CA    1  MOL    C677   677  -0.1150000   12.0115
  678        CA    1  MOL    C678   678  -0.1150000   12.0115
  679        CA    1  MOL    C679   679  -0.1150000   12.0115
  680        CA    1  MOL    C680   680  -0.1150000   12.0115
  681        CA    1  MOL    C681   681  -0.1150000   12.0115
  682        CT    1  MOL    C682   682   0.1950000   12.0115
  683         N    1  MOL    N683   683  -0.5000000   14.0067
  684         C    1  MOL    C684   684   0.5000000   12.0115
  685         O    1  MOL    O685   685  -0.5000000   15.9994
  686        CT    1  MOL    C686   686  -0.1200000   12.0115
  687        CT    1  MOL    C687   687  -0.1200000   12.0115
  688        CT    1  MOL    C688   688  -0.1200000   12.0115
  689        CT    1  MOL    C689   689  -0.1200000   12.0115
  690        CT    1  MOL    C690   690  -0.1200000   12.0115
  691        CT    1  MOL    C691   691  -0.1200000   12.0115
  692        CT    1  MOL    C692   692  -0.1200000   12.0115
  693        CT    1  MOL    C693   693  -0.1200000   12.0115
  694         C    1  MOL    C694   694   0.5000000   12.0115
  695         O    1  MOL    O695   695  -0.5000000   15.9994
  696         H    1  MOL    H696   696   0.3000000    1.0080
  697        HC    1  MOL    H697   697   0.0600000    1.0080
  698        HC    1  MOL    H698   698   0.0600000    1.0080
  699        HA    1  MOL    H699   699   0.1150000    1.0080
  700        HA    1  MOL    H700   700   0.1150000    1.0080
  701        HA    1  MOL    H701   701   0.1150000    1.0080
  702        HA    1  MOL    H702   702   0.1150000    1.0080
  703        HC    1  MOL    H703   703   0.0600000    1.0080
  704        HC    1  MOL    H704   704   0.0600000    1.0080
  705         H    1  MOL    H705   705   0.3000000    1.0080
  706        HC    1  MOL    H706   706   0.0600000    1.0080
  707        HC    1  MOL    H707   707   0.0600000    1.0080
  708        HC    1  MOL    H708   708   0.0600000    1.0080
  709        HC    1  MOL    H709   709   0.0600000    1.0080
  710        HC    1  MOL    H710   710   0.0600000    1.0080
  711        HC    1  MOL    H711   711   0.0600000    1.0080
  712        HC    1  MOL    H712   712   0.0600000    1.0080
  713        HC    1  MOL    H713   713   0.0600000    1.0080
  714        HC    1  MOL    H714   714   0.0600000    1.0080
  715        HC    1  MOL    H715   715   0.0600000    1.0080
  716        HC    1  MOL    H716   716   0.0600000    1.0080
  717        HC    1  MOL    H717   717   0.0600000    1.0080
  718        HC    1  MOL    H718   718   0.0600000    1.0080
  719        HC    1  MOL    H719   719   0.0600000    1.0080
  720        HC    1  MOL    H720   720   0.0600000    1.0080
  721        HC    1  MOL    H721   721   0.0600000    1.0080
  722         N    1  MOL    N722   722  -0.5000000   14.0067
  723        CT    1  MOL    C723   723   0.1950000   12.0115
  724        CA    1  MOL    C724   724  -0.1150000   12.0115
  725        CA    1  MOL    C725   725  -0.1150000   12.0115
  726        CA    1  MOL    C726   726  -0.1150000   12.0115
  727        CA    1  MOL    C727   727  -0.1150000   12.0115
  728        CA    1  MOL    C728   728  -0.1150000   12.0115
  729        CA    1  MOL    C729   729  -0.1150000   12.0115
  730        CT    1  MOL    C730   730   0.1950000   12.0115
  731         N    1  MOL    N731   731  -0.5000000   14.0067
  732         C    1  MOL    C732   732   0.5000000   12.0115
  733         O    1  MOL    O733   733  -0.5000000   15.9994
  734        CT    1  MOL    C734   734  -0.1200000   12.0115
  735        CT    1  MOL    C735   735  -0.1200000   12.0115
  736        CT    1  MOL    C736   736  -0.1200000   12.0115
  737        CT    1  MOL    C737   737  -0.1200000   12.0115
  738        CT    1  MOL    C738   738  -0.1200000   12.0115
  739        CT    1  MOL    C739   739  -0.1200000   12.0115
  740        CT    1  MOL    C740   740  -0.1200000   12.0115
  741        CT    1  MOL    C741   741  -0.1200000   12.0115
  742         C    1  MOL    C742   742   0.5000000   12.0115
  743         O    1  MOL    O743   743  -0.5000000   15.9994
  744         H    1  MOL    H744   744   0.3000000    1.0080
  745        HC    1  MOL    H745   745   0.0600000    1.0080
  746        HC    1  MOL    H746   746   0.0600000    1.0080
  747        HA    1  MOL    H747   747   0.1150000    1.0080
  748        HA    1  MOL    H748   748   0.1150000    1.0080
  749        HA    1  MOL    H749   749   0.1150000    1.0080
  750        HA    1  MOL    H750   750   0.1150000    1.0080
  751        HC    1  MOL    H751   751   0.0600000    1.0080
  752        HC    1  MOL    H752   752   0.0600000    1.0080
  753         H    1  MOL    H753   753   0.3000000    1.0080
  754        HC    1  MOL    H754   754   0.0600000    1.0080
  755        HC    1  MOL    H755   755   0.0600000    1.0080
  756        HC    1  MOL    H756   756   0.0600000    1.0080
  757        HC    1  MOL    H757   757   0.0600000    1.0080
  758        HC    1  MOL    H758   758   0.0600000    1.0080
  759        HC    1  MOL    H759   759   0.0600000    1.0080
  760        HC    1  MOL    H760   760   0.0600000    1.0080
  761        HC    1  MOL    H761   761   0.0600000    1.0080
  762        HC    1  MOL    H762   762   0.0600000    1.0080
  763        HC    1  MOL    H763   763   0.0600000    1.0080
  764        HC    1  MOL    H764   764   0.0600000    1.0080
  765        HC    1  MOL    H765   765   0.0600000    1.0080
  766        HC    1  MOL    H766   766   0.0600000    1.0080
  767        HC    1  MOL    H767   767   0.0600000    1.0080
  768        HC    1  MOL    H768   768   0.0600000    1.0080
  769        HC    1  MOL    H769   769   0.0600000    1.0080
  770         N    1  MOL    N770   770  -0.5000000   14.0067
  771        CT    1  MOL    C771   771   0.1950000   12.0115
  772        CA    1  MOL    C772   772  -0.1150000   12.0115
  773        CA    1  MOL    C773   773  -0.1150000   12.0115
  774        CA    1  MOL    C774   774  -0.1150000   12.0115
  775        CA    1  MOL    C775   775  -0.1150000   12.0115
  776        CA    1  MOL    C776   776  -0.1150000   12.0115
  777        CA    1  MOL    C777   777  -0.1150000   12.0115
  778        CT    1  MOL    C778   778   0.1950000   12.0115
  779         N    1  MOL    N779   779  -0.5000000   14.0067
  780         C    1  MOL    C780   780   0.5000000   12.0115
  781         O    1  MOL    O781   781  -0.5000000   15.9994
  782        CT    1  MOL    C782   782  -0.1200000   12.0115
  783        CT    1  MOL    C783   783  -0.1200000   12.0115
  784        CT    1  MOL    C784   784  -0.1200000   12.0115
  785        CT    1  MOL    C785   785  -0.1200000   12.0115
  786        CT    1  MOL    C786   786  -0.1200000   12.0115
  787        CT    1  MOL    C787   787  -0.1200000   12.0115
  788        CT    1  MOL    C788   788  -0.1200000   12.0115
  789        CT    1  MOL    C789   789  -0.1200000   12.0115
  790         C    1  MOL    C790   790   0.5000000   12.0115
  791         O    1  MOL    O791   791  -0.5000000   15.9994
  792         H    1  MOL    H792   792   0.3000000    1.0080
  793        HC    1  MOL    H793   793   0.0600000    1.0080
  794        HC    1  MOL    H794   794   0.0600000    1.0080
  795        HA    1  MOL    H795   795   0.1150000    1.0080
  796        HA    1  MOL    H796   796   0.1150000    1.0080
  797        HA    1  MOL    H797   797   0.1150000    1.0080
  798        HA    1  MOL    H798   798   0.1150000    1.0080
  799        HC    1  MOL    H799   799   0.0600000    1.0080
  800        HC    1  MOL    H800   800   0.0600000    1.0080
  801         H    1  MOL    H801   801   0.3000000    1.0080
  802        HC    1  MOL    H802   802   0.0600000    1.0080
  803        HC    1  MOL    H803   803   0.0600000    1.0080
  804        HC    1  MOL    H804   804   0.0600000    1.0080
  805        HC    1  MOL    H805   805   0.0600000    1.0080
  806        HC    1  MOL    H806   806   0.0600000    1.0080
  807        HC    1  MOL    H807   807   0.0600000    1.0080
  808        HC    1  MOL    H808   808   0.0600000    1.0080
  809        HC    1  MOL    H809   809   0.0600000    1.0080
  810        HC    1  MOL    H810   810   0.0600000    1.0080
  811        HC    1  MOL    H811   811   0.0600000    1.0080
  812        HC    1  MOL    H812   812   0.0600000    1.0080
  813        HC    1  MOL    H813   813   0.0600000    1.0080
  814        HC    1  MOL    H814   814   0.0600000    1.0080
  815        HC    1  MOL    H815   815   0.0600000    1.0080
  816        HC    1  MOL    H816   816   0.0600000    1.0080
  817        HC    1  MOL    H817   817   0.0600000    1.0080
  818         N    1  MOL    N818   818  -0.5000000   14.0067
  819        CT    1  MOL    C819   819   0.1950000   12.0115
  820        CA    1  MOL    C820   820  -0.1150000   12.0115
  821        CA    1  MOL    C821   821  -0.1150000   12.0115
  822        CA    1  MOL    C822   822  -0.1150000   12.0115
  823        CA    1  MOL    C823   823  -0.1150000   12.0115
  824        CA    1  MOL    C824   824  -0.1150000   12.0115
  825        CA    1  MOL    C825   825  -0.1150000   12.0115
  826        CT    1  MOL    C826   826   0.1950000   12.0115
  827         N    1  MOL    N827   827  -0.5000000   14.0067
  828         C    1  MOL    C828   828   0.5000000   12.0115
  829         O    1  MOL    O829   829  -0.5000000   15.9994
  830        CT    1  MOL    C830   830  -0.1200000   12.0115
  831        CT    1  MOL    C831   831  -0.1200000   12.0115
  832        CT    1  MOL    C832   832  -0.1200000   12.0115
  833        CT    1  MOL    C833   833  -0.1200000   12.0115
  834        CT    1  MOL    C834   834  -0.1200000   12.0115
  835        CT    1  MOL    C835   835  -0.1200000   12.0115
  836        CT    1  MOL    C836   836  -0.1200000   12.0115
  837        CT    1  MOL    C837   837  -0.1200000   12.0115
  838         C    1  MOL    C838   838   0.5000000   12.0115
  839         O    1  MOL    O839   839  -0.5000000   15.9994
  840         H    1  MOL    H840   840   0.3000000    1.0080
  841        HC    1  MOL    H841   841   0.0600000    1.0080
  842        HC    1  MOL    H842   842   0.0600000    1.0080
  843        HA    1  MOL    H843   843   0.1150000    1.0080
  844        HA    1  MOL    H844   844   0.1150000    1.0080
  845        HA    1  MOL    H845   845   0.1150000    1.0080
  846        HA    1  MOL    H846   846   0.1150000    1.0080
  847        HC    1  MOL    H847   847   0.0600000    1.0080
  848        HC    1  MOL    H848   848   0.0600000    1.0080
  849         H    1  MOL    H849   849   0.3000000    1.0080
  850        HC    1  MOL    H850   850   0.0600000    1.0080
  851        HC    1  MOL    H851   851   0.0600000    1.0080
  852        HC    1  MOL    H852   852   0.0600000    1.0080
  853        HC    1  MOL    H853   853   0.0600000    1.0080
  854        HC    1  MOL    H854   854   0.0600000    1.0080
  855        HC    1  MOL    H855   855   0.0600000    1.0080
  856        HC    1  MOL    H856   856   0.0600000    1.0080
  857        HC    1  MOL    H857   857   0.0600000    1.0080
  858        HC    1  MOL    H858   858   0.0600000    1.0080
  859        HC    1  MOL    H859   859   0.0600000    1.0080
  860        HC    1  MOL    H860   860   0.0600000    1.0080
  861        HC    1  MOL    H861   861   0.0600000    1.0080
  862        HC    1  MOL    H862   862   0.0600000    1.0080
  863        HC    1  MOL    H863   863   0.0600000    1.0080
  864        HC    1  MOL    H864   864   0.0600000    1.0080
  865        HC    1  MOL    H865   865   0.0600000    1.0080
  866         N    1  MOL    N866   866  -0.5000000   14.0067
  867        CT    1  MOL    C867   867   0.1950000   12.0115
  868        CA    1  MOL    C868   868  -0.1150000   12.0115
  869        CA    1  MOL    C869   869  -0.1150000   12.0115
  870        CA    1  MOL    C870   870  -0.1150000   12.0115
  871        CA    1  MOL    C871   871  -0.1150000   12.0115
  872        CA    1  MOL    C872   872  -0.1150000   12.0115
  873        CA    1  MOL    C873   873  -0.1150000   12.0115
  874        CT    1  MOL    C874   874   0.1950000   12.0115
  875         N    1  MOL    N875   875  -0.5000000   14.0067
  876         C    1  MOL    C876   876   0.5000000   12.0115
  877         O    1  MOL    O877   877  -0.5000000   15.9994
  878        CT    1  MOL    C878   878  -0.1200000   12.0115
  879        CT    1  MOL    C879   879  -0.1200000   12.0115
  880        CT    1  MOL    C880   880  -0.1200000   12.0115
  881        CT    1  MOL    C881   881  -0.1200000   12.0115
  882        CT    1  MOL    C882   882  -0.1200000   12.0115
  883        CT    1  MOL    C883   883  -0.1200000   12.0115
  884        CT    1  MOL    C884   884  -0.1200000   12.0115
  885        CT    1  MOL    C885   885  -0.1200000   12.0115
  886         C    1  MOL    C886   886   0.5000000   12.0115
  887         O    1  MOL    O887   887  -0.5000000   15.9994
  888         H    1  MOL    H888   888   0.3000000    1.0080
  889        HC    1  MOL    H889   889   0.0600000    1.0080
  890        HC    1  MOL    H890   890   0.0600000    1.0080
  891        HA    1  MOL    H891   891   0.1150000    1.0080
  892        HA    1  MOL    H892   892   0.1150000    1.0080
  893        HA    1  MOL    H893   893   0.1150000    1.0080
  894        HA    1  MOL    H894   894   0.1150000    1.0080
  895        HC    1  MOL    H895   895   0.0600000    1.0080
  896        HC    1  MOL    H896   896   0.0600000    1.0080
  897         H    1  MOL    H897   897   0.3000000    1.0080
  898        HC    1  MOL    H898   898   0.0600000    1.0080
  899        HC    1  MOL    H899   899   0.0600000    1.0080
  900        HC    1  MOL    H900   900   0.0600000    1.0080
  901        HC    1  MOL    H901   901   0.0600000    1.0080
  902        HC    1  MOL    H902   902   0.0600000    1.0080
  903        HC    1  MOL    H903   903   0.0600000    1.0080
  904        HC    1  MOL    H904   904   0.0600000    1.0080
  905        HC    1  MOL    H905   905   0.0600000    1.0080
  906        HC    1  MOL    H906   906   0.0600000    1.0080
  907        HC    1  MOL    H907   907   0.0600000    1.0080
  908        HC    1  MOL    H908   908   0.0600000    1.0080
  909        HC    1  MOL    H909   909   0.0600000    1.0080
  910        HC    1  MOL    H910   910   0.0600000    1.0080
  911        HC    1  MOL    H911   911   0.0600000    1.0080
  912        HC    1  MOL    H912   912   0.0600000    1.0080
  913        HC    1  MOL    H913   913   0.0600000    1.0080
  914         N    1  MOL    N914   914  -0.5000000   14.0067
  915        CT    1  MOL    C915   915   0.1950000   12.0115
  916        CA    1  MOL    C916   916  -0.1150000   12.0115
  917        CA    1  MOL    C917   917  -0.1150000   12.0115
  918        CA    1  MOL    C918   918  -0.1150000   12.0115
  919        CA    1  MOL    C919   919  -0.1150000   12.0115
  920        CA    1  MOL    C920   920  -0.1150000   12.0115
  921        CA    1  MOL    C921   921  -0.1150000   12.0115
  922        CT    1  MOL    C922   922   0.1950000   12.0115
  923         N    1  MOL    N923   923  -0.5000000   14.0067
  924         C    1  MOL    C924   924   0.5000000   12.0115
  925         O    1  MOL    O925   925  -0.5000000   15.9994
  926        CT    1  MOL    C926   926  -0.1200000   12.0115
  927        CT    1  MOL    C927   927  -0.1200000   12.0115
  928        CT    1  MOL    C928   928  -0.1200000   12.0115
  929        CT    1  MOL    C929   929  -0.1200000   12.0115
  930        CT    1  MOL    C930   930  -0.1200000   12.0115
  931        CT    1  MOL    C931   931  -0.1200000   12.0115
  932        CT    1  MOL    C932   932  -0.1200000   12.0115
  933        CT    1  MOL    C933   933  -0.1200000   12.0115
  934       CO4    1  MOL    C934   934   0.4500000   12.0115
  935         O    1  MOL    O935   935  -0.4500000   15.9994
  936         H    1  MOL    H936   936   0.3000000    1.0080
  937        HC    1  MOL    H937   937   0.0600000    1.0080
  938        HC    1  MOL    H938   938   0.0600000    1.0080
  939        HA    1  MOL    H939   939   0.1150000    1.0080
  940        HA    1  MOL    H940   940   0.1150000    1.0080
  941        HA    1  MOL    H941   941   0.1150000    1.0080
  942        HA    1  MOL    H942   942   0.1150000    1.0080
  943        HC    1  MOL    H943   943   0.0600000    1.0080
  944        HC    1  MOL    H944   944   0.0600000    1.0080
  945         H    1  MOL    H945   945   0.3000000    1.0080
  946        HC    1  MOL    H946   946   0.0600000    1.0080
  947        HC    1  MOL    H947   947   0.0600000    1.0080
  948        HC    1  MOL    H948   948   0.0600000    1.0080
  949        HC    1  MOL    H949   949   0.0600000    1.0080
  950        HC    1  MOL    H950   950   0.0600000    1.0080
  951        HC    1  MOL    H951   951   0.0600000    1.0080
  952        HC    1  MOL    H952   952   0.0600000    1.0080
  953        HC    1  MOL    H953   953   0.0600000    1.0080
  954        HC    1  MOL    H954   954   0.0600000    1.0080
  955        HC    1  MOL    H955   955   0.0600000    1.0080
  956        HC    1  MOL    H956   956   0.0600000    1.0080
  957        HC    1  MOL    H957   957   0.0600000    1.0080
  958        HC    1  MOL    H958   958   0.0600000    1.0080
  959        HC    1  MOL    H959   959   0.0600000    1.0080
  960       HAE    1  MOL    H960   960   0.0600000    1.0080
  961       HAE    1  MOL    H961   961   0.0600000    1.0080
  962       HAE    1  MOL    H962   962   0.0000000    1.0080

[ bonds ]
      1      2   1      0.1448 319657.6000
      1     23   1      0.1010 363171.2000
      1     49   1      0.1010 363171.2000
      2      3   1      0.1510 265265.6000
      2     24   1      0.1090 284512.0000
      2     25   1      0.1090 284512.0000
      3      4   1      0.1400 392459.2000
      3      8   1      0.1400 392459.2000
      4      5   1      0.1400 392459.2000
      4     26   1      0.1080 307105.6000
      5      6   1      0.1400 392459.2000
      5     27   1      0.1080 307105.6000
      6      7   1      0.1400 392459.2000
      6     28   1      0.1080 307105.6000
      7      8   1      0.1400 392459.2000
      7     29   1      0.1080 307105.6000
      8      9   1      0.1510 265265.6000
      9     10   1      0.1449 282001.6000
      9     30   1      0.1090 284512.0000
      9     31   1      0.1090 284512.0000
     10     11   1      0.1335 410032.0000
     10     32   1      0.1010 363171.2000
     11     12   1      0.1229 476976.0000
     11     13   1      0.1522 265265.6000
     13     14   1      0.1529 224262.4000
     13     33   1      0.1090 284512.0000
     13     34   1      0.1090 284512.0000
     14     15   1      0.1529 224262.4000
     14     35   1      0.1090 284512.0000
     14     36   1      0.1090 284512.0000
     15     16   1      0.1529 224262.4000
     15     37   1      0.1090 284512.0000
     15     38   1      0.1090 284512.0000
     16     17   1      0.1529 224262.4000
     16     39   1      0.1090 284512.0000
     16     40   1      0.1090 284512.0000
     17     18   1      0.1529 224262.4000
     17     41   1      0.1090 284512.0000
     17     42   1      0.1090 284512.0000
     18     19   1      0.1529 224262.4000
     18     43   1      0.1090 284512.0000
     18     44   1      0.1090 284512.0000
     19     20   1      0.1529 224262.4000
     19     45   1      0.1090 284512.0000
     19     46   1      0.1090 284512.0000
     20     21   1      0.1522 265265.6000
     20     47   1      0.1090 284512.0000
     20     48   1      0.1090 284512.0000
     21     22   1      0.1229 476976.0000
     21     50   1      0.1335 410032.0000
     50     51   1      0.1449 282001.6000
     50     72   1      0.1010 363171.2000
     51     52   1      0.1510 265265.6000
     51     73   1      0.1090 284512.0000
     51     74   1      0.1090 284512.0000
     52     53   1      0.1400 392459.2000
     52     57   1      0.1400 392459.2000
     53     54   1      0.1400 392459.2000
     53     75   1      0.1080 307105.6000
     54     55   1      0.1400 392459.2000
     54     76   1      0.1080 307105.6000
     55     56   1      0.1400 392459.2000
     55     77   1      0.1080 307105.6000
     56     57   1      0.1400 392459.2000
     56     78   1      0.1080 307105.6000
     57     58   1      0.1510 265265.6000
     58     59   1      0.1449 282001.6000
     58     79   1      0.1090 284512.0000
     58     80   1      0.1090 284512.0000
     59     60   1      0.1335 410032.0000
     59     81   1      0.1010 363171.2000
     60     61   1      0.1229 476976.0000
     60     62   1      0.1522 265265.6000
     62     63   1      0.1529 224262.4000
     62     82   1      0.1090 284512.0000
     62     83   1      0.1090 284512.0000
     63     64   1      0.1529 224262.4000
     63     84   1      0.1090 284512.0000
     63     85   1      0.1090 284512.0000
     64     65   1      0.1529 224262.4000
     64     86   1      0.1090 284512.0000
     64     87   1      0.1090 284512.0000
     65     66   1      0.1529 224262.4000
     65     88   1      0.1090 284512.0000
     65     89   1      0.1090 284512.0000
     66     67   1      0.1529 224262.4000
     66     90   1      0.1090 284512.0000
     66     91   1      0.1090 284512.0000
     67     68   1      0.1529 224262.4000
     67     92   1      0.1090 284512.0000
     67     93   1      0.1090 284512.0000
     68     69   1      0.1529 224262.4000
     68     94   1      0.1090 284512.0000
     68     95   1      0.1090 284512.0000
     69     70   1      0.1522 265265.6000
     69     96   1      0.1090 284512.0000
     69     97   1      0.1090 284512.0000
     70     71   1      0.1229 476976.0000
     70     98   1      0.1335 410032.0000
     98     99   1      0.1449 282001.6000
     98    120   1      0.1010 363171.2000
     99    100   1      0.1510 265265.6000
     99    121   1      0.1090 284512.0000
     99    122   1      0.1090 284512.0000
    100    101   1      0.1400 392459.2000
    100    105   1      0.1400 392459.2000
    101    102   1      0.1400 392459.2000
    101    123   1      0.1080 307105.6000
    102    103   1      0.1400 392459.2000
    102    124   1      0.1080 307105.6000
    103    104   1      0.1400 392459.2000
    103    125   1      0.1080 307105.6000
    104    105   1      0.1400 392459.2000
    104    126   1      0.1080 307105.6000
    105    106   1      0.1510 265265.6000
    106    107   1      0.1449 282001.6000
    106    127   1      0.1090 284512.0000
    106    128   1      0.1090 284512.0000
    107    108   1      0.1335 410032.0000
    107    129   1      0.1010 363171.2000
    108    109   1      0.1229 476976.0000
    108    110   1      0.1522 265265.6000
    110    111   1      0.1529 224262.4000
    110    130   1      0.1090 284512.0000
    110    131   1      0.1090 284512.0000
    111    112   1      0.1529 224262.4000
    111    132   1      0.1090 284512.0000
    111    133   1      0.1090 284512.0000
    112    113   1      0.1529 224262.4000
    112    134   1      0.1090 284512.0000
    112    135   1      0.1090 284512.0000
    113    114   1      0.1529 224262.4000
    113    136   1      0.1090 284512.0000
    113    137   1      0.1090 284512.0000
    114    115   1      0.1529 224262.4000
    114    138   1      0.1090 284512.0000
    114    139   1      0.1090 284512.0000
    115    116   1      0.1529 224262.4000
    115    140   1      0.1090 284512.0000
    115    141   1      0.1090 284512.0000
    116    117   1      0.1529 224262.4000
    116    142   1      0.1090 284512.0000
    116    143   1      0.1090 284512.0000
    117    118   1      0.1522 265265.6000
    117    144   1      0.1090 284512.0000
    117    145   1      0.1090 284512.0000
    118    119   1      0.1229 476976.0000
    118    146   1      0.1335 410032.0000
    146    147   1      0.1449 282001.6000
    146    168   1      0.1010 363171.2000
    147    148   1      0.1510 265265.6000
    147    169   1      0.1090 284512.0000
    147    170   1      0.1090 284512.0000
    148    149   1      0.1400 392459.2000
    148    153   1      0.1400 392459.2000
    149    150   1      0.1400 392459.2000
    149    171   1      0.1080 307105.6000
    150    151   1      0.1400 392459.2000
    150    172   1      0.1080 307105.6000
    151    152   1      0.1400 392459.2000
    151    173   1      0.1080 307105.6000
    152    153   1      0.1400 392459.2000
    152    174   1      0.1080 307105.6000
    153    154   1      0.1510 265265.6000
    154    155   1      0.1449 282001.6000
    154    175   1      0.1090 284512.0000
    154    176   1      0.1090 284512.0000
    155    156   1      0.1335 410032.0000
    155    177   1      0.1010 363171.2000
    156    157   1      0.1229 476976.0000
    156    158   1      0.1522 265265.6000
    158    159   1      0.1529 224262.4000
    158    178   1      0.1090 284512.0000
    158    179   1      0.1090 284512.0000
    159    160   1      0.1529 224262.4000
    159    180   1      0.1090 284512.0000
    159    181   1      0.1090 284512.0000
    160    161   1      0.1529 224262.4000
    160    182   1      0.1090 284512.0000
    160    183   1      0.1090 284512.0000
    161    162   1      0.1529 224262.4000
    161    184   1      0.1090 284512.0000
    161    185   1      0.1090 284512.0000
    162    163   1      0.1529 224262.4000
    162    186   1      0.1090 284512.0000
    162    187   1      0.1090 284512.0000
    163    164   1      0.1529 224262.4000
    163    188   1      0.1090 284512.0000
    163    189   1      0.1090 284512.0000
    164    165   1      0.1529 224262.4000
    164    190   1      0.1090 284512.0000
    164    191   1      0.1090 284512.0000
    165    166   1      0.1522 265265.6000
    165    192   1      0.1090 284512.0000
    165    193   1      0.1090 284512.0000
    166    167   1      0.1229 476976.0000
    166    194   1      0.1335 410032.0000
    194    195   1      0.1449 282001.6000
    194    216   1      0.1010 363171.2000
    195    196   1      0.1510 265265.6000
    195    217   1      0.1090 284512.0000
    195    218   1      0.1090 284512.0000
    196    197   1      0.1400 392459.2000
    196    201   1      0.1400 392459.2000
    197    198   1      0.1400 392459.2000
    197    219   1      0.1080 307105.6000
    198    199   1      0.1400 392459.2000
    198    220   1      0.1080 307105.6000
    199    200   1      0.1400 392459.2000
    199    221   1      0.1080 307105.6000
    200    201   1      0.1400 392459.2000
    200    222   1      0.1080 307105.6000
    201    202   1      0.1510 265265.6000
    202    203   1      0.1449 282001.6000
    202    223   1      0.1090 284512.0000
    202    224   1      0.1090 284512.0000
    203    204   1      0.1335 410032.0000
    203    225   1      0.1010 363171.2000
    204    205   1      0.1229 476976.0000
    204    206   1      0.1522 265265.6000
    206    207   1      0.1529 224262.4000
    206    226   1      0.1090 284512.0000
    206    227   1      0.1090 284512.0000
    207    208   1      0.1529 224262.4000
    207    228   1      0.1090 284512.0000
    207    229   1      0.1090 284512.0000
    208    209   1      0.1529 224262.4000
    208    230   1      0.1090 284512.0000
    208    231   1      0.1090 284512.0000
    209    210   1      0.1529 224262.4000
    209    232   1      0.1090 284512.0000
    209    233   1      0.1090 284512.0000
    210    211   1      0.1529 224262.4000
    210    234   1      0.1090 284512.0000
    210    235   1      0.1090 284512.0000
    211    212   1      0.1529 224262.4000
    211    236   1      0.1090 284512.0000
    211    237   1      0.1090 284512.0000
    212    213   1      0.1529 224262.4000
    212    238   1      0.1090 284512.0000
    212    239   1      0.1090 284512.0000
    213    214   1      0.1522 265265.6000
    213    240   1      0.1090 284512.0000
    213    241   1      0.1090 284512.0000
    214    215   1      0.1229 476976.0000
    214    242   1      0.1335 410032.0000
    242    243   1      0.1449 282001.6000
    242    264   1      0.1010 363171.2000
    243    244   1      0.1510 265265.6000
    243    265   1      0.1090 284512.0000
    243    266   1      0.1090 284512.0000
    244    245   1      0.1400 392459.2000
    244    249   1      0.1400 392459.2000
    245    246   1      0.1400 392459.2000
    245    267   1      0.1080 307105.6000
    246    247   1      0.1400 392459.2000
    246    268   1      0.1080 307105.6000
    247    248   1      0.1400 392459.2000
    247    269   1      0.1080 307105.6000
    248    249   1      0.1400 392459.2000
    248    270   1      0.1080 307105.6000
    249    250   1      0.1510 265265.6000
    250    251   1      0.1449 282001.6000
    250    271   1      0.1090 284512.0000
    250    272   1      0.1090 284512.0000
    251    252   1      0.1335 410032.0000
    251    273   1      0.1010 363171.2000
    252    253   1      0.1229 476976.0000
    252    254   1      0.1522 265265.6000
    254    255   1      0.1529 224262.4000
    254    274   1      0.1090 284512.0000
    254    275   1      0.1090 284512.0000
    255    256   1      0.1529 224262.4000
    255    276   1      0.1090 284512.0000
    255    277   1      0.1090 284512.0000
    256    257   1      0.1529 224262.4000
    256    278   1      0.1090 284512.0000
    256    279   1      0.1090 284512.0000
    257    258   1      0.1529 224262.4000
    257    280   1      0.1090 284512.0000
    257    281   1      0.1090 284512.0000
    258    259   1      0.1529 224262.4000
    258    282   1      0.1090 284512.0000
    258    283   1      0.1090 284512.0000
    259    260   1      0.1529 224262.4000
    259    284   1      0.1090 284512.0000
    259    285   1      0.1090 284512.0000
    260    261   1      0.1529 224262.4000
    260    286   1      0.1090 284512.0000
    260    287   1      0.1090 284512.0000
    261    262   1      0.1522 265265.6000
    261    288   1      0.1090 284512.0000
    261    289   1      0.1090 284512.0000
    262    263   1      0.1229 476976.0000
    262    290   1      0.1335 410032.0000
    290    291   1      0.1449 282001.6000
    290    312   1      0.1010 363171.2000
    291    292   1      0.1510 265265.6000
    291    313   1      0.1090 284512.0000
    291    314   1      0.1090 284512.0000
    292    293   1      0.1400 392459.2000
    292    297   1      0.1400 392459.2000
    293    294   1      0.1400 392459.2000
    293    315   1      0.1080 307105.6000
    294    295   1      0.1400 392459.2000
    294    316   1      0.1080 307105.6000
    295    296   1      0.1400 392459.2000
    295    317   1      0.1080 307105.6000
    296    297   1      0.1400 392459.2000
    296    318   1      0.1080 307105.6000
    297    298   1      0.1510 265265.6000
    298    299   1      0.1449 282001.6000
    298    319   1      0.1090 284512.0000
    298    320   1      0.1090 284512.0000
    299    300   1      0.1335 410032.0000
    299    321   1      0.1010 363171.2000
    300    301   1      0.1229 476976.0000
    300    302   1      0.1522 265265.6000
    302    303   1      0.1529 224262.4000
    302    322   1      0.1090 284512.0000
    302    323   1      0.1090 284512.0000
    303    304   1      0.1529 224262.4000
    303    324   1      0.1090 284512.0000
    303    325   1      0.1090 284512.0000
    304    305   1      0.1529 224262.4000
    304    326   1      0.1090 284512.0000
    304    327   1      0.1090 284512.0000
    305    306   1      0.1529 224262.4000
    305    328   1      0.1090 284512.0000
    305    329   1      0.1090 284512.0000
    306    307   1      0.1529 224262.4000
    306    330   1      0.1090 284512.0000
    306    331   1      0.1090 284512.0000
    307    308   1      0.1529 224262.4000
    307    332   1      0.1090 284512.0000
    307    333   1      0.1090 284512.0000
    308    309   1      0.1529 224262.4000
    308    334   1      0.1090 284512.0000
    308    335   1      0.1090 284512.0000
    309    310   1      0.1522 265265.6000
    309    336   1      0.1090 284512.0000
    309    337   1      0.1090 284512.0000
    310    311   1      0.1229 476976.0000
    310    338   1      0.1335 410032.0000
    338    339   1      0.1449 282001.6000
    338    360   1      0.1010 363171.2000
    339    340   1      0.1510 265265.6000
    339    361   1      0.1090 284512.0000
    339    362   1      0.1090 284512.0000
    340    341   1      0.1400 392459.2000
    340    345   1      0.1400 392459.2000
    341    342   1      0.1400 392459.2000
    341    363   1      0.1080 307105.6000
    342    343   1      0.1400 392459.2000
    342    364   1      0.1080 307105.6000
    343    344   1      0.1400 392459.2000
    343    365   1      0.1080 307105.6000
    344    345   1      0.1400 392459.2000
    344    366   1      0.1080 307105.6000
    345    346   1      0.1510 265265.6000
    346    347   1      0.1449 282001.6000
    346    367   1      0.1090 284512.0000
    346    368   1      0.1090 284512.0000
    347    348   1      0.1335 410032.0000
    347    369   1      0.1010 363171.2000
    348    349   1      0.1229 476976.0000
    348    350   1      0.1522 265265.6000
    350    351   1      0.1529 224262.4000
    350    370   1      0.1090 284512.0000
    350    371   1      0.1090 284512.0000
    351    352   1      0.1529 224262.4000
    351    372   1      0.1090 284512.0000
    351    373   1      0.1090 284512.0000
    352    353   1      0.1529 224262.4000
    352    374   1      0.1090 284512.0000
    352    375   1      0.1090 284512.0000
    353    354   1      0.1529 224262.4000
    353    376   1      0.1090 284512.0000
    353    377   1      0.1090 284512.0000
    354    355   1      0.1529 224262.4000
    354    378   1      0.1090 284512.0000
    354    379   1      0.1090 284512.0000
    355    356   1      0.1529 224262.4000
    355    380   1      0.1090 284512.0000
    355    381   1      0.1090 284512.0000
    356    357   1      0.1529 224262.4000
    356    382   1      0.1090 284512.0000
    356    383   1      0.1090 284512.0000
    357    358   1      0.1522 265265.6000
    357    384   1      0.1090 284512.0000
    357    385   1      0.1090 284512.0000
    358    359   1      0.1229 476976.0000
    358    386   1      0.1335 410032.0000
    386    387   1      0.1449 282001.6000
    386    408   1      0.1010 363171.2000
    387    388   1      0.1510 265265.6000
    387    409   1      0.1090 284512.0000
    387    410   1      0.1090 284512.0000
    388    389   1      0.1400 392459.2000
    388    393   1      0.1400 392459.2000
    389    390   1      0.1400 392459.2000
    389    411   1      0.1080 307105.6000
    390    391   1      0.1400 392459.2000
    390    412   1      0.1080 307105.6000
    391    392   1      0.1400 392459.2000
    391    413   1      0.1080 307105.6000
    392    393   1      0.1400 392459.2000
    392    414   1      0.1080 307105.6000
    393    394   1      0.1510 265265.6000
    394    395   1      0.1449 282001.6000
    394    415   1      0.1090 284512.0000
    394    416   1      0.1090 284512.0000
    395    396   1      0.1335 410032.0000
    395    417   1      0.1010 363171.2000
    396    397   1      0.1229 476976.0000
    396    398   1      0.1522 265265.6000
    398    399   1      0.1529 224262.4000
    398    418   1      0.1090 284512.0000
    398    419   1      0.1090 284512.0000
    399    400   1      0.1529 224262.4000
    399    420   1      0.1090 284512.0000
    399    421   1      0.1090 284512.0000
    400    401   1      0.1529 224262.4000
    400    422   1      0.1090 284512.0000
    400    423   1      0.1090 284512.0000
    401    402   1      0.1529 224262.4000
    401    424   1      0.1090 284512.0000
    401    425   1      0.1090 284512.0000
    402    403   1      0.1529 224262.4000
    402    426   1      0.1090 284512.0000
    402    427   1      0.1090 284512.0000
    403    404   1      0.1529 224262.4000
    403    428   1      0.1090 284512.0000
    403    429   1      0.1090 284512.0000
    404    405   1      0.1529 224262.4000
    404    430   1      0.1090 284512.0000
    404    431   1      0.1090 284512.0000
    405    406   1      0.1522 265265.6000
    405    432   1      0.1090 284512.0000
    405    433   1      0.1090 284512.0000
    406    407   1      0.1229 476976.0000
    406    434   1      0.1335 410032.0000
    434    435   1      0.1449 282001.6000
    434    456   1      0.1010 363171.2000
    435    436   1      0.1510 265265.6000
    435    457   1      0.1090 284512.0000
    435    458   1      0.1090 284512.0000
    436    437   1      0.1400 392459.2000
    436    441   1      0.1400 392459.2000
    437    438   1      0.1400 392459.2000
    437    459   1      0.1080 307105.6000
    438    439   1      0.1400 392459.2000
    438    460   1      0.1080 307105.6000
    439    440   1      0.1400 392459.2000
    439    461   1      0.1080 307105.6000
    440    441   1      0.1400 392459.2000
    440    462   1      0.1080 307105.6000
    441    442   1      0.1510 265265.6000
    442    443   1      0.1449 282001.6000
    442    463   1      0.1090 284512.0000
    442    464   1      0.1090 284512.0000
    443    444   1      0.1335 410032.0000
    443    465   1      0.1010 363171.2000
    444    445   1      0.1229 476976.0000
    444    446   1      0.1522 265265.6000
    446    447   1      0.1529 224262.4000
    446    466   1      0.1090 284512.0000
    446    467   1      0.1090 284512.0000
    447    448   1      0.1529 224262.4000
    447    468   1      0.1090 284512.0000
    447    469   1      0.1090 284512.0000
    448    449   1      0.1529 224262.4000
    448    470   1      0.1090 284512.0000
    448    471   1      0.1090 284512.0000
    449    450   1      0.1529 224262.4000
    449    472   1      0.1090 284512.0000
    449    473   1      0.1090 284512.0000
    450    451   1      0.1529 224262.4000
    450    474   1      0.1090 284512.0000
    450    475   1      0.1090 284512.0000
    451    452   1      0.1529 224262.4000
    451    476   1      0.1090 284512.0000
    451    477   1      0.1090 284512.0000
    452    453   1      0.1529 224262.4000
    452    478   1      0.1090 284512.0000
    452    479   1      0.1090 284512.0000
    453    454   1      0.1522 265265.6000
    453    480   1      0.1090 284512.0000
    453    481   1      0.1090 284512.0000
    454    455   1      0.1229 476976.0000
    454    482   1      0.1335 410032.0000
    482    483   1      0.1449 282001.6000
    482    504   1      0.1010 363171.2000
    483    484   1      0.1510 265265.6000
    483    505   1      0.1090 284512.0000
    483    506   1      0.1090 284512.0000
    484    485   1      0.1400 392459.2000
    484    489   1      0.1400 392459.2000
    485    486   1      0.1400 392459.2000
    485    507   1      0.1080 307105.6000
    486    487   1      0.1400 392459.2000
    486    508   1      0.1080 307105.6000
    487    488   1      0.1400 392459.2000
    487    509   1      0.1080 307105.6000
    488    489   1      0.1400 392459.2000
    488    510   1      0.1080 307105.6000
    489    490   1      0.1510 265265.6000
    490    491   1      0.1449 282001.6000
    490    511   1      0.1090 284512.0000
    490    512   1      0.1090 284512.0000
    491    492   1      0.1335 410032.0000
    491    513   1      0.1010 363171.2000
    492    493   1      0.1229 476976.0000
    492    494   1      0.1522 265265.6000
    494    495   1      0.1529 224262.4000
    494    514   1      0.1090 284512.0000
    494    515   1      0.1090 284512.0000
    495    496   1      0.1529 224262.4000
    495    516   1      0.1090 284512.0000
    495    517   1      0.1090 284512.0000
    496    497   1      0.1529 224262.4000
    496    518   1      0.1090 284512.0000
    496    519   1      0.1090 284512.0000
    497    498   1      0.1529 224262.4000
    497    520   1      0.1090 284512.0000
    497    521   1      0.1090 284512.0000
    498    499   1      0.1529 224262.4000
    498    522   1      0.1090 284512.0000
    498    523   1      0.1090 284512.0000
    499    500   1      0.1529 224262.4000
    499    524   1      0.1090 284512.0000
    499    525   1      0.1090 284512.0000
    500    501   1      0.1529 224262.4000
    500    526   1      0.1090 284512.0000
    500    527   1      0.1090 284512.0000
    501    502   1      0.1522 265265.6000
    501    528   1      0.1090 284512.0000
    501    529   1      0.1090 284512.0000
    502    503   1      0.1229 476976.0000
    502    530   1      0.1335 410032.0000
    530    531   1      0.1449 282001.6000
    530    552   1      0.1010 363171.2000
    531    532   1      0.1510 265265.6000
    531    553   1      0.1090 284512.0000
    531    554   1      0.1090 284512.0000
    532    533   1      0.1400 392459.2000
    532    537   1      0.1400 392459.2000
    533    534   1      0.1400 392459.2000
    533    555   1      0.1080 307105.6000
    534    535   1      0.1400 392459.2000
    534    556   1      0.1080 307105.6000
    535    536   1      0.1400 392459.2000
    535    557   1      0.1080 307105.6000
    536    537   1      0.1400 392459.2000
    536    558   1      0.1080 307105.6000
    537    538   1      0.1510 265265.6000
    538    539   1      0.1449 282001.6000
    538    559   1      0.1090 284512.0000
    538    560   1      0.1090 284512.0000
    539    540   1      0.1335 410032.0000
    539    561   1      0.1010 363171.2000
    540    541   1      0.1229 476976.0000
    540    542   1      0.1522 265265.6000
    542    543   1      0.1529 224262.4000
    542    562   1      0.1090 284512.0000
    542    563   1      0.1090 284512.0000
    543    544   1      0.1529 224262.4000
    543    564   1      0.1090 284512.0000
    543    565   1      0.1090 284512.0000
    544    545   1      0.1529 224262.4000
    544    566   1      0.1090 284512.0000
    544    567   1      0.1090 284512.0000
    545    546   1      0.1529 224262.4000
    545    568   1      0.1090 284512.0000
    545    569   1      0.1090 284512.0000
    546    547   1      0.1529 224262.4000
    546    570   1      0.1090 284512.0000
    546    571   1      0.1090 284512.0000
    547    548   1      0.1529 224262.4000
    547    572   1      0.1090 284512.0000
    547    573   1      0.1090 284512.0000
    548    549   1      0.1529 224262.4000
    548    574   1      0.1090 284512.0000
    548    575   1      0.1090 284512.0000
    549    550   1      0.1522 265265.6000
    549    576   1      0.1090 284512.0000
    549    577   1      0.1090 284512.0000
    550    551   1      0.1229 476976.0000
    550    578   1      0.1335 410032.0000
    578    579   1      0.1449 282001.6000
    578    600   1      0.1010 363171.2000
    579    580   1      0.1510 265265.6000
    579    601   1      0.1090 284512.0000
    579    602   1      0.1090 284512.0000
    580    581   1      0.1400 392459.2000
    580    585   1      0.1400 392459.2000
    581    582   1      0.1400 392459.2000
    581    603   1      0.1080 307105.6000
    582    583   1      0.1400 392459.2000
    582    604   1      0.1080 307105.6000
    583    584   1      0.1400 392459.2000
    583    605   1      0.1080 307105.6000
    584    585   1      0.1400 392459.2000
    584    606   1      0.1080 307105.6000
    585    586   1      0.1510 265265.6000
    586    587   1      0.1449 282001.6000
    586    607   1      0.1090 284512.0000
    586    608   1      0.1090 284512.0000
    587    588   1      0.1335 410032.0000
    587    609   1      0.1010 363171.2000
    588    589   1      0.1229 476976.0000
    588    590   1      0.1522 265265.6000
    590    591   1      0.1529 224262.4000
    590    610   1      0.1090 284512.0000
    590    611   1      0.1090 284512.0000
    591    592   1      0.1529 224262.4000
    591    612   1      0.1090 284512.0000
    591    613   1      0.1090 284512.0000
    592    593   1      0.1529 224262.4000
    592    614   1      0.1090 284512.0000
    592    615   1      0.1090 284512.0000
    593    594   1      0.1529 224262.4000
    593    616   1      0.1090 284512.0000
    593    617   1      0.1090 284512.0000
    594    595   1      0.1529 224262.4000
    594    618   1      0.1090 284512.0000
    594    619   1      0.1090 284512.0000
    595    596   1      0.1529 224262.4000
    595    620   1      0.1090 284512.0000
    595    621   1      0.1090 284512.0000
    596    597   1      0.1529 224262.4000
    596    622   1      0.1090 284512.0000
    596    623   1      0.1090 284512.0000
    597    598   1      0.1522 265265.6000
    597    624   1      0.1090 284512.0000
    597    625   1      0.1090 284512.0000
    598    599   1      0.1229 476976.0000
    598    626   1      0.1335 410032.0000
    626    627   1      0.1449 282001.6000
    626    648   1      0.1010 363171.2000
    627    628   1      0.1510 265265.6000
    627    649   1      0.1090 284512.0000
    627    650   1      0.1090 284512.0000
    628    629   1      0.1400 392459.2000
    628    633   1      0.1400 392459.2000
    629    630   1      0.1400 392459.2000
    629    651   1      0.1080 307105.6000
    630    631   1      0.1400 392459.2000
    630    652   1      0.1080 307105.6000
    631    632   1      0.1400 392459.2000
    631    653   1      0.1080 307105.6000
    632    633   1      0.1400 392459.2000
    632    654   1      0.1080 307105.6000
    633    634   1      0.1510 265265.6000
    634    635   1      0.1449 282001.6000
    634    655   1      0.1090 284512.0000
    634    656   1      0.1090 284512.0000
    635    636   1      0.1335 410032.0000
    635    657   1      0.1010 363171.2000
    636    637   1      0.1229 476976.0000
    636    638   1      0.1522 265265.6000
    638    639   1      0.1529 224262.4000
    638    658   1      0.1090 284512.0000
    638    659   1      0.1090 284512.0000
    639    640   1      0.1529 224262.4000
    639    660   1      0.1090 284512.0000
    639    661   1      0.1090 284512.0000
    640    641   1      0.1529 224262.4000
    640    662   1      0.1090 284512.0000
    640    663   1      0.1090 284512.0000
    641    642   1      0.1529 224262.4000
    641    664   1      0.1090 284512.0000
    641    665   1      0.1090 284512.0000
    642    643   1      0.1529 224262.4000
    642    666   1      0.1090 284512.0000
    642    667   1      0.1090 284512.0000
    643    644   1      0.1529 224262.4000
    643    668   1      0.1090 284512.0000
    643    669   1      0.1090 284512.0000
    644    645   1      0.1529 224262.4000
    644    670   1      0.1090 284512.0000
    644    671   1      0.1090 284512.0000
    645    646   1      0.1522 265265.6000
    645    672   1      0.1090 284512.0000
    645    673   1      0.1090 284512.0000
    646    647   1      0.1229 476976.0000
    646    674   1      0.1335 410032.0000
    674    675   1      0.1449 282001.6000
    674    696   1      0.1010 363171.2000
    675    676   1      0.1510 265265.6000
    675    697   1      0.1090 284512.0000
    675    698   1      0.1090 284512.0000
    676    677   1      0.1400 392459.2000
    676    681   1      0.1400 392459.2000
    677    678   1      0.1400 392459.2000
    677    699   1      0.1080 307105.6000
    678    679   1      0.1400 392459.2000
    678    700   1      0.1080 307105.6000
    679    680   1      0.1400 392459.2000
    679    701   1      0.1080 307105.6000
    680    681   1      0.1400 392459.2000
    680    702   1      0.1080 307105.6000
    681    682   1      0.1510 265265.6000
    682    683   1      0.1449 282001.6000
    682    703   1      0.1090 284512.0000
    682    704   1      0.1090 284512.0000
    683    684   1      0.1335 410032.0000
    683    705   1      0.1010 363171.2000
    684    685   1      0.1229 476976.0000
    684    686   1      0.1522 265265.6000
    686    687   1      0.1529 224262.4000
    686    706   1      0.1090 284512.0000
    686    707   1      0.1090 284512.0000
    687    688   1      0.1529 224262.4000
    687    708   1      0.1090 284512.0000
    687    709   1      0.1090 284512.0000
    688    689   1      0.1529 224262.4000
    688    710   1      0.1090 284512.0000
    688    711   1      0.1090 284512.0000
    689    690   1      0.1529 224262.4000
    689    712   1      0.1090 284512.0000
    689    713   1      0.1090 284512.0000
    690    691   1      0.1529 224262.4000
    690    714   1      0.1090 284512.0000
    690    715   1      0.1090 284512.0000
    691    692   1      0.1529 224262.4000
    691    716   1      0.1090 284512.0000
    691    717   1      0.1090 284512.0000
    692    693   1      0.1529 224262.4000
    692    718   1      0.1090 284512.0000
    692    719   1      0.1090 284512.0000
    693    694   1      0.1522 265265.6000
    693    720   1      0.1090 284512.0000
    693    721   1      0.1090 284512.0000
    694    695   1      0.1229 476976.0000
    694    722   1      0.1335 410032.0000
    722    723   1      0.1449 282001.6000
    722    744   1      0.1010 363171.2000
    723    724   1      0.1510 265265.6000
    723    745   1      0.1090 284512.0000
    723    746   1      0.1090 284512.0000
    724    725   1      0.1400 392459.2000
    724    729   1      0.1400 392459.2000
    725    726   1      0.1400 392459.2000
    725    747   1      0.1080 307105.6000
    726    727   1      0.1400 392459.2000
    726    748   1      0.1080 307105.6000
    727    728   1      0.1400 392459.2000
    727    749   1      0.1080 307105.6000
    728    729   1      0.1400 392459.2000
    728    750   1      0.1080 307105.6000
    729    730   1      0.1510 265265.6000
    730    731   1      0.1449 282001.6000
    730    751   1      0.1090 284512.0000
    730    752   1      0.1090 284512.0000
    731    732   1      0.1335 410032.0000
    731    753   1      0.1010 363171.2000
    732    733   1      0.1229 476976.0000
    732    734   1      0.1522 265265.6000
    734    735   1      0.1529 224262.4000
    734    754   1      0.1090 284512.0000
    734    755   1      0.1090 284512.0000
    735    736   1      0.1529 224262.4000
    735    756   1      0.1090 284512.0000
    735    757   1      0.1090 284512.0000
    736    737   1      0.1529 224262.4000
    736    758   1      0.1090 284512.0000
    736    759   1      0.1090 284512.0000
    737    738   1      0.1529 224262.4000
    737    760   1      0.1090 284512.0000
    737    761   1      0.1090 284512.0000
    738    739   1      0.1529 224262.4000
    738    762   1      0.1090 284512.0000
    738    763   1      0.1090 284512.0000
    739    740   1      0.1529 224262.4000
    739    764   1      0.1090 284512.0000
    739    765   1      0.1090 284512.0000
    740    741   1      0.1529 224262.4000
    740    766   1      0.1090 284512.0000
    740    767   1      0.1090 284512.0000
    741    742   1      0.1522 265265.6000
    741    768   1      0.1090 284512.0000
    741    769   1      0.1090 284512.0000
    742    743   1      0.1229 476976.0000
    742    770   1      0.1335 410032.0000
    770    771   1      0.1449 282001.6000
    770    792   1      0.1010 363171.2000
    771    772   1      0.1510 265265.6000
    771    793   1      0.1090 284512.0000
    771    794   1      0.1090 284512.0000
    772    773   1      0.1400 392459.2000
    772    777   1      0.1400 392459.2000
    773    774   1      0.1400 392459.2000
    773    795   1      0.1080 307105.6000
    774    775   1      0.1400 392459.2000
    774    796   1      0.1080 307105.6000
    775    776   1      0.1400 392459.2000
    775    797   1      0.1080 307105.6000
    776    777   1      0.1400 392459.2000
    776    798   1      0.1080 307105.6000
    777    778   1      0.1510 265265.6000
    778    779   1      0.1449 282001.6000
    778    799   1      0.1090 284512.0000
    778    800   1      0.1090 284512.0000
    779    780   1      0.1335 410032.0000
    779    801   1      0.1010 363171.2000
    780    781   1      0.1229 476976.0000
    780    782   1      0.1522 265265.6000
    782    783   1      0.1529 224262.4000
    782    802   1      0.1090 284512.0000
    782    803   1      0.1090 284512.0000
    783    784   1      0.1529 224262.4000
    783    804   1      0.1090 284512.0000
    783    805   1      0.1090 284512.0000
    784    785   1      0.1529 224262.4000
    784    806   1      0.1090 284512.0000
    784    807   1      0.1090 284512.0000
    785    786   1      0.1529 224262.4000
    785    808   1      0.1090 284512.0000
    785    809   1      0.1090 284512.0000
    786    787   1      0.1529 224262.4000
    786    810   1      0.1090 284512.0000
    786    811   1      0.1090 284512.0000
    787    788   1      0.1529 224262.4000
    787    812   1      0.1090 284512.0000
    787    813   1      0.1090 284512.0000
    788    789   1      0.1529 224262.4000
    788    814   1      0.1090 284512.0000
    788    815   1      0.1090 284512.0000
    789    790   1      0.1522 265265.6000
    789    816   1      0.1090 284512.0000
    789    817   1      0.1090 284512.0000
    790    791   1      0.1229 476976.0000
    790    818   1      0.1335 410032.0000
    818    819   1      0.1449 282001.6000
    818    840   1      0.1010 363171.2000
    819    820   1      0.1510 265265.6000
    819    841   1      0.1090 284512.0000
    819    842   1      0.1090 284512.0000
    820    821   1      0.1400 392459.2000
    820    825   1      0.1400 392459.2000
    821    822   1      0.1400 392459.2000
    821    843   1      0.1080 307105.6000
    822    823   1      0.1400 392459.2000
    822    844   1      0.1080 307105.6000
    823    824   1      0.1400 392459.2000
    823    845   1      0.1080 307105.6000
    824    825   1      0.1400 392459.2000
    824    846   1      0.1080 307105.6000
    825    826   1      0.1510 265265.6000
    826    827   1      0.1449 282001.6000
    826    847   1      0.1090 284512.0000
    826    848   1      0.1090 284512.0000
    827    828   1      0.1335 410032.0000
    827    849   1      0.1010 363171.2000
    828    829   1      0.1229 476976.0000
    828    830   1      0.1522 265265.6000
    830    831   1      0.1529 224262.4000
    830    850   1      0.1090 284512.0000
    830    851   1      0.1090 284512.0000
    831    832   1      0.1529 224262.4000
    831    852   1      0.1090 284512.0000
    831    853   1      0.1090 284512.0000
    832    833   1      0.1529 224262.4000
    832    854   1      0.1090 284512.0000
    832    855   1      0.1090 284512.0000
    833    834   1      0.1529 224262.4000
    833    856   1      0.1090 284512.0000
    833    857   1      0.1090 284512.0000
    834    835   1      0.1529 224262.4000
    834    858   1      0.1090 284512.0000
    834    859   1      0.1090 284512.0000
    835    836   1      0.1529 224262.4000
    835    860   1      0.1090 284512.0000
    835    861   1      0.1090 284512.0000
    836    837   1      0.1529 224262.4000
    836    862   1      0.1090 284512.0000
    836    863   1      0.1090 284512.0000
    837    838   1      0.1522 265265.6000
    837    864   1      0.1090 284512.0000
    837    865   1      0.1090 284512.0000
    838    839   1      0.1229 476976.0000
    838    866   1      0.1335 410032.0000
    866    867   1      0.1449 282001.6000
    866    888   1      0.1010 363171.2000
    867    868   1      0.1510 265265.6000
    867    889   1      0.1090 284512.0000
    867    890   1      0.1090 284512.0000
    868    869   1      0.1400 392459.2000
    868    873   1      0.1400 392459.2000
    869    870   1      0.1400 392459.2000
    869    891   1      0.1080 307105.6000
    870    871   1      0.1400 392459.2000
    870    892   1      0.1080 307105.6000
    871    872   1      0.1400 392459.2000
    871    893   1      0.1080 307105.6000
    872    873   1      0.1400 392459.2000
    872    894   1      0.1080 307105.6000
    873    874   1      0.1510 265265.6000
    874    875   1      0.1449 282001.6000
    874    895   1      0.1090 284512.0000
    874    896   1      0.1090 284512.0000
    875    876   1      0.1335 410032.0000
    875    897   1      0.1010 363171.2000
    876    877   1      0.1229 476976.0000
    876    878   1      0.1522 265265.6000
    878    879   1      0.1529 224262.4000
    878    898   1      0.1090 284512.0000
    878    899   1      0.1090 284512.0000
    879    880   1      0.1529 224262.4000
    879    900   1      0.1090 284512.0000
    879    901   1      0.1090 284512.0000
    880    881   1      0.1529 224262.4000
    880    902   1      0.1090 284512.0000
    880    903   1      0.1090 284512.0000
    881    882   1      0.1529 224262.4000
    881    904   1      0.1090 284512.0000
    881    905   1      0.1090 284512.0000
    882    883   1      0.1529 224262.4000
    882    906   1      0.1090 284512.0000
    882    907   1      0.1090 284512.0000
    883    884   1      0.1529 224262.4000
    883    908   1      0.1090 284512.0000
    883    909   1      0.1090 284512.0000
    884    885   1      0.1529 224262.4000
    884    910   1      0.1090 284512.0000
    884    911   1      0.1090 284512.0000
    885    886   1      0.1522 265265.6000
    885    912   1      0.1090 284512.0000
    885    913   1      0.1090 284512.0000
    886    887   1      0.1229 476976.0000
    886    914   1      0.1335 410032.0000
    914    915   1      0.1449 282001.6000
    914    936   1      0.1010 363171.2000
    915    916   1      0.1510 265265.6000
    915    937   1      0.1090 284512.0000
    915    938   1      0.1090 284512.0000
    916    917   1      0.1400 392459.2000
    916    921   1      0.1400 392459.2000
    917    918   1      0.1400 392459.2000
    917    939   1      0.1080 307105.6000
    918    919   1      0.1400 392459.2000
    918    940   1      0.1080 307105.6000
    919    920   1      0.1400 392459.2000
    919    941   1      0.1080 307105.6000
    920    921   1      0.1400 392459.2000
    920    942   1      0.1080 307105.6000
    921    922   1      0.1510 265265.6000
    922    923   1      0.1449 282001.6000
    922    943   1      0.1090 284512.0000
    922    944   1      0.1090 284512.0000
    923    924   1      0.1335 410032.0000
    923    945   1      0.1010 363171.2000
    924    925   1      0.1229 476976.0000
    924    926   1      0.1522 265265.6000
    926    927   1      0.1529 224262.4000
    926    946   1      0.1090 284512.0000
    926    947   1      0.1090 284512.0000
    927    928   1      0.1529 224262.4000
    927    948   1      0.1090 284512.0000
    927    949   1      0.1090 284512.0000
    928    929   1      0.1529 224262.4000
    928    950   1      0.1090 284512.0000
    928    951   1      0.1090 284512.0000
    929    930   1      0.1529 224262.4000
    929    952   1      0.1090 284512.0000
    929    953   1      0.1090 284512.0000
    930    931   1      0.1529 224262.4000
    930    954   1      0.1090 284512.0000
    930    955   1      0.1090 284512.0000
    931    932   1      0.1529 224262.4000
    931    956   1      0.1090 284512.0000
    931    957   1      0.1090 284512.0000
    932    933   1      0.1529 224262.4000
    932    958   1      0.1090 284512.0000
    932    959   1      0.1090 284512.0000
    933    934   1      0.1522 265265.6000
    933    960   1      0.1090 284512.0000
    933    961   1      0.1090 284512.0000
    934    935   1      0.1229 476976.0000
    934    962   1      0.1090 284512.0000

[ pairs ]
; ai   aj   funct   fudge_QQ  charge_i   charge_j   c6    c12
     23      3   2   0.50000     0.3600000   -0.1150000   2.144502e-06  1.199282e-11
     23     24   2   0.50000     0.3600000    0.0600000   3.467033e-07  6.771549e-13
     23     25   2   0.50000     0.3600000    0.0600000   3.467033e-07  6.771549e-13
     49      3   2   0.50000     0.3600000   -0.1150000   2.144502e-06  1.199282e-11
     49     24   2   0.50000     0.3600000    0.0600000   3.467033e-07  6.771549e-13
     49     25   2   0.50000     0.3600000    0.0600000   3.467033e-07  6.771549e-13
      1      4   2   0.50000    -0.9000000   -0.1150000   1.467648e-03  2.359657e-06
      1      8   2   0.50000    -0.9000000   -0.1150000   1.467648e-03  2.359657e-06
     24      4   2   0.50000     0.0600000   -0.1150000   1.895490e-04  1.325032e-07
     24      8   2   0.50000     0.0600000   -0.1150000   1.895490e-04  1.325032e-07
     25      4   2   0.50000     0.0600000   -0.1150000   1.895490e-04  1.325032e-07
     25      8   2   0.50000     0.0600000   -0.1150000   1.895490e-04  1.325032e-07
      2      5   2   0.50000     0.1750000   -0.1150000   1.091018e-03  2.092768e-06
      2     26   2   0.50000     0.1750000    0.1150000   2.262583e-04  1.374848e-07
      8      5   2   0.50000    -0.1150000   -0.1150000   1.172438e-03  2.346713e-06
      8     26   2   0.50000    -0.1150000    0.1150000   2.431434e-04  1.541678e-07
      2      7   2   0.50000     0.1750000   -0.1150000   1.091018e-03  2.092768e-06
      2      9   2   0.50000     0.1750000    0.1950000   1.015252e-03  1.866303e-06
      4      7   2   0.50000    -0.1150000   -0.1150000   1.172438e-03  2.346713e-06
      4      9   2   0.50000    -0.1150000    0.1950000   1.091018e-03  2.092768e-06
      3      6   2   0.50000    -0.1150000   -0.1150000   1.172438e-03  2.346713e-06
      3     27   2   0.50000    -0.1150000    0.1150000   2.431434e-04  1.541678e-07
     26      6   2   0.50000     0.1150000   -0.1150000   2.431434e-04  1.541678e-07
     26     27   2   0.50000     0.1150000    0.1150000   5.042375e-05  1.012808e-08
      4     28   2   0.50000    -0.1150000    0.1150000   2.431434e-04  1.541678e-07
     27      7   2   0.50000     0.1150000   -0.1150000   2.431434e-04  1.541678e-07
     27     28   2   0.50000     0.1150000    0.1150000   5.042375e-05  1.012808e-08
      5     29   2   0.50000    -0.1150000    0.1150000   2.431434e-04  1.541678e-07
     28      8   2   0.50000     0.1150000   -0.1150000   2.431434e-04  1.541678e-07
     28     29   2   0.50000     0.1150000    0.1150000   5.042375e-05  1.012808e-08
      6      9   2   0.50000    -0.1150000    0.1950000   1.091018e-03  2.092768e-06
     29      3   2   0.50000     0.1150000   -0.1150000   2.431434e-04  1.541678e-07
     29      9   2   0.50000     0.1150000    0.1950000   2.262583e-04  1.374848e-07
      3     10   2   0.50000    -0.1150000   -0.5000000   1.401943e-03  2.153106e-06
      3     30   2   0.50000    -0.1150000    0.0600000   2.680627e-04  1.873879e-07
      3     31   2   0.50000    -0.1150000    0.0600000   2.680627e-04  1.873879e-07
      7     10   2   0.50000    -0.1150000   -0.5000000   1.401943e-03  2.153106e-06
      7     30   2   0.50000    -0.1150000    0.0600000   2.680627e-04  1.873879e-07
      7     31   2   0.50000    -0.1150000    0.0600000   2.680627e-04  1.873879e-07
      8     11   2   0.50000    -0.1150000    0.5000000   1.692561e-03  3.993218e-06
      8     32   2   0.50000    -0.1150000    0.3000000   2.144502e-06  1.199282e-11
     30     11   2   0.50000     0.0600000    0.5000000   3.869820e-04  3.188634e-07
     30     32   2   0.50000     0.0600000    0.3000000   4.903125e-07  9.576416e-13
     31     11   2   0.50000     0.0600000    0.5000000   3.869820e-04  3.188634e-07
     31     32   2   0.50000     0.0600000    0.3000000   4.903125e-07  9.576416e-13
      9     12   2   0.50000     0.1950000   -0.5000000   1.095425e-03  1.218041e-06
      9     13   2   0.50000     0.1950000   -0.1200000   1.015252e-03  1.866303e-06
     32     12   2   0.50000     0.3000000   -0.5000000   2.153164e-06  6.980110e-12
     32     13   2   0.50000     0.3000000   -0.1200000   1.995577e-06  1.069504e-11
     10     14   2   0.50000    -0.5000000   -0.1200000   1.304585e-03  1.920112e-06
     10     33   2   0.50000    -0.5000000    0.0600000   3.205360e-04  1.719281e-07
     10     34   2   0.50000    -0.5000000    0.0600000   3.205360e-04  1.719281e-07
     12     14   2   0.50000    -0.5000000   -0.1200000   1.095425e-03  1.218041e-06
     12     33   2   0.50000    -0.5000000    0.0600000   2.691455e-04  1.090642e-07
     12     34   2   0.50000    -0.5000000    0.0600000   2.691455e-04  1.090642e-07
     11     15   2   0.50000     0.5000000   -0.1200000   1.575021e-03  3.561100e-06
     11     35   2   0.50000     0.5000000    0.0600000   3.869820e-04  3.188634e-07
     11     36   2   0.50000     0.5000000    0.0600000   3.869820e-04  3.188634e-07
     33     15   2   0.50000     0.0600000   -0.1200000   2.494471e-04  1.671101e-07
     33     35   2   0.50000     0.0600000    0.0600000   6.128906e-05  1.496315e-08
     33     36   2   0.50000     0.0600000    0.0600000   6.128906e-05  1.496315e-08
     34     15   2   0.50000     0.0600000   -0.1200000   2.494471e-04  1.671101e-07
     34     35   2   0.50000     0.0600000    0.0600000   6.128906e-05  1.496315e-08
     34     36   2   0.50000     0.0600000    0.0600000   6.128906e-05  1.496315e-08
     13     16   2   0.50000    -0.1200000   -0.1200000   1.015252e-03  1.866303e-06
     13     37   2   0.50000    -0.1200000    0.0600000   2.494471e-04  1.671101e-07
     13     38   2   0.50000    -0.1200000    0.0600000   2.494471e-04  1.671101e-07
     35     16   2   0.50000     0.0600000   -0.1200000   2.494471e-04  1.671101e-07
     35     37   2   0.50000     0.0600000    0.0600000   6.128906e-05  1.496315e-08
     35     38   2   0.50000     0.0600000    0.0600000   6.128906e-05  1.496315e-08
     36     16   2   0.50000     0.0600000   -0.1200000   2.494471e-04  1.671101e-07
     36     37   2   0.50000     0.0600000    0.0600000   6.128906e-05  1.496315e-08
     36     38   2   0.50000     0.0600000    0.0600000   6.128906e-05  1.496315e-08
     14     17   2   0.50000    -0.1200000   -0.1200000   1.015252e-03  1.866303e-06
     14     39   2   0.50000    -0.1200000    0.0600000   2.494471e-04  1.671101e-07
     14     40   2   0.50000    -0.1200000    0.0600000   2.494471e-04  1.671101e-07
     37     17   2   0.50000     0.0600000   -0.1200000   2.494471e-04  1.671101e-07
     37     39   2   0.50000     0.0600000    0.0600000   6.128906e-05  1.496315e-08
     37     40   2   0.50000     0.0600000    0.0600000   6.128906e-05  1.496315e-08
     38     17   2   0.50000     0.0600000   -0.1200000   2.494471e-04  1.671101e-07
     38     39   2   0.50000     0.0600000    0.0600000   6.128906e-05  1.496315e-08
     38     40   2   0.50000     0.0600000    0.0600000   6.128906e-05  1.496315e-08
     15     18   2   0.50000    -0.1200000   -0.1200000   1.015252e-03  1.866303e-06
     15     41   2   0.50000    -0.1200000    0.0600000   2.494471e-04  1.671101e-07
     15     42   2   0.50000    -0.1200000    0.0600000   2.494471e-04  1.671101e-07
     39     18   2   0.50000     0.0600000   -0.1200000   2.494471e-04  1.671101e-07
     39     41   2   0.50000     0.0600000    0.0600000   6.128906e-05  1.496315e-08
     39     42   2   0.50000     0.0600000    0.0600000   6.128906e-05  1.496315e-08
     40     18   2   0.50000     0.0600000   -0.1200000   2.494471e-04  1.671101e-07
     40     41   2   0.50000     0.0600000    0.0600000   6.128906e-05  1.496315e-08
     40     42   2   0.50000     0.0600000    0.0600000   6.128906e-05  1.496315e-08
     16     19   2   0.50000    -0.1200000   -0.1200000   1.015252e-03  1.866303e-06
     16     43   2   0.50000    -0.1200000    0.0600000   2.494471e-04  1.671101e-07
     16     44   2   0.50000    -0.1200000    0.0600000   2.494471e-04  1.671101e-07
     41     19   2   0.50000     0.0600000   -0.1200000   2.494471e-04  1.671101e-07
     41     43   2   0.50000     0.0600000    0.0600000   6.128906e-05  1.496315e-08
     41     44   2   0.50000     0.0600000    0.0600000   6.128906e-05  1.496315e-08
     42     19   2   0.50000     0.0600000   -0.1200000   2.494471e-04  1.671101e-07
     42     43   2   0.50000     0.0600000    0.0600000   6.128906e-05  1.496315e-08
     42     44   2   0.50000     0.0600000    0.0600000   6.128906e-05  1.496315e-08
     17     20   2   0.50000    -0.1200000   -0.1200000   1.015252e-03  1.866303e-06
     17     45   2   0.50000    -0.1200000    0.0600000   2.494471e-04  1.671101e-07
     17     46   2   0.50000    -0.1200000    0.0600000   2.494471e-04  1.671101e-07
     43     20   2   0.50000     0.0600000   -0.1200000   2.494471e-04  1.671101e-07
     43     45   2   0.50000     0.0600000    0.0600000   6.128906e-05  1.496315e-08
     43     46   2   0.50000     0.0600000    0.0600000   6.128906e-05  1.496315e-08
     44     20   2   0.50000     0.0600000   -0.1200000   2.494471e-04  1.671101e-07
     44     45   2   0.50000     0.0600000    0.0600000   6.128906e-05  1.496315e-08
     44     46   2   0.50000     0.0600000    0.0600000   6.128906e-05  1.496315e-08
     18     21   2   0.50000    -0.1200000    0.5000000   1.575021e-03  3.561100e-06
     18     47   2   0.50000    -0.1200000    0.0600000   2.494471e-04  1.671101e-07
     18     48   2   0.50000    -0.1200000    0.0600000   2.494471e-04  1.671101e-07
     45     21   2   0.50000     0.0600000    0.5000000   3.869820e-04  3.188634e-07
     45     47   2   0.50000     0.0600000    0.0600000   6.128906e-05  1.496315e-08
     45     48   2   0.50000     0.0600000    0.0600000   6.128906e-05  1.496315e-08
     46     21   2   0.50000     0.0600000    0.5000000   3.869820e-04  3.188634e-07
     46     47   2   0.50000     0.0600000    0.0600000   6.128906e-05  1.496315e-08
     46     48   2   0.50000     0.0600000    0.0600000   6.128906e-05  1.496315e-08
     19     22   2   0.50000    -0.1200000   -0.5000000   1.095425e-03  1.218041e-06
     19     50   2   0.50000    -0.1200000   -0.5000000   1.304585e-03  1.920112e-06
     47     22   2   0.50000     0.0600000   -0.5000000   2.691455e-04  1.090642e-07
     47     50   2   0.50000     0.0600000   -0.5000000   3.205360e-04  1.719281e-07
     48     22   2   0.50000     0.0600000   -0.5000000   2.691455e-04  1.090642e-07
     48     50   2   0.50000     0.0600000   -0.5000000   3.205360e-04  1.719281e-07
     20     51   2   0.50000    -0.1200000    0.1950000   1.015252e-03  1.866303e-06
     20     72   2   0.50000    -0.1200000    0.3000000   1.995577e-06  1.069504e-11
     22     51   2   0.50000    -0.5000000    0.1950000   1.095425e-03  1.218041e-06
     22     72   2   0.50000    -0.5000000    0.3000000   2.153164e-06  6.980110e-12
     21     52   2   0.50000     0.5000000   -0.1150000   1.692561e-03  3.993218e-06
     21     73   2   0.50000     0.5000000    0.0600000   3.869820e-04  3.188634e-07
     21     74   2   0.50000     0.5000000    0.0600000   3.869820e-04  3.188634e-07
     72     52   2   0.50000     0.3000000   -0.1150000   2.144502e-06  1.199282e-11
     72     73   2   0.50000     0.3000000    0.0600000   4.903125e-07  9.576416e-13
     72     74   2   0.50000     0.3000000    0.0600000   4.903125e-07  9.576416e-13
     50     53   2   0.50000    -0.5000000   -0.1150000   1.401943e-03  2.153106e-06
     50     57   2   0.50000    -0.5000000   -0.1150000   1.401943e-03  2.153106e-06
     73     53   2   0.50000     0.0600000   -0.1150000   2.680627e-04  1.873879e-07
     73     57   2   0.50000     0.0600000   -0.1150000   2.680627e-04  1.873879e-07
     74     53   2   0.50000     0.0600000   -0.1150000   2.680627e-04  1.873879e-07
     74     57   2   0.50000     0.0600000   -0.1150000   2.680627e-04  1.873879e-07
     51     54   2   0.50000     0.1950000   -0.1150000   1.091018e-03  2.092768e-06
     51     75   2   0.50000     0.1950000    0.1150000   2.262583e-04  1.374848e-07
     57     54   2   0.50000    -0.1150000   -0.1150000   1.172438e-03  2.346713e-06
     57     75   2   0.50000    -0.1150000    0.1150000   2.431434e-04  1.541678e-07
     51     56   2   0.50000     0.1950000   -0.1150000   1.091018e-03  2.092768e-06
     51     58   2   0.50000     0.1950000    0.1950000   1.015252e-03  1.866303e-06
     53     56   2   0.50000    -0.1150000   -0.1150000   1.172438e-03  2.346713e-06
     53     58   2   0.50000    -0.1150000    0.1950000   1.091018e-03  2.092768e-06
     52     55   2   0.50000    -0.1150000   -0.1150000   1.172438e-03  2.346713e-06
     52     76   2   0.50000    -0.1150000    0.1150000   2.431434e-04  1.541678e-07
     75     55   2   0.50000     0.1150000   -0.1150000   2.431434e-04  1.541678e-07
     75     76   2   0.50000     0.1150000    0.1150000   5.042375e-05  1.012808e-08
     53     77   2   0.50000    -0.1150000    0.1150000   2.431434e-04  1.541678e-07
     76     56   2   0.50000     0.1150000   -0.1150000   2.431434e-04  1.541678e-07
     76     77   2   0.50000     0.1150000    0.1150000   5.042375e-05  1.012808e-08
     54     78   2   0.50000    -0.1150000    0.1150000   2.431434e-04  1.541678e-07
     77     57   2   0.50000     0.1150000   -0.1150000   2.431434e-04  1.541678e-07
     77     78   2   0.50000     0.1150000    0.1150000   5.042375e-05  1.012808e-08
     55     58   2   0.50000    -0.1150000    0.1950000   1.091018e-03  2.092768e-06
     78     52   2   0.50000     0.1150000   -0.1150000   2.431434e-04  1.541678e-07
     78     58   2   0.50000     0.1150000    0.1950000   2.262583e-04  1.374848e-07
     52     59   2   0.50000    -0.1150000   -0.5000000   1.401943e-03  2.153106e-06
     52     79   2   0.50000    -0.1150000    0.0600000   2.680627e-04  1.873879e-07
     52     80   2   0.50000    -0.1150000    0.0600000   2.680627e-04  1.873879e-07
     56     59   2   0.50000    -0.1150000   -0.5000000   1.401943e-03  2.153106e-06
     56     79   2   0.50000    -0.1150000    0.0600000   2.680627e-04  1.873879e-07
     56     80   2   0.50000    -0.1150000    0.0600000   2.680627e-04  1.873879e-07
     57     60   2   0.50000    -0.1150000    0.5000000   1.692561e-03  3.993218e-06
     57     81   2   0.50000    -0.1150000    0.3000000   2.144502e-06  1.199282e-11
     79     60   2   0.50000     0.0600000    0.5000000   3.869820e-04  3.188634e-07
     79     81   2   0.50000     0.0600000    0.3000000   4.903125e-07  9.576416e-13
     80     60   2   0.50000     0.0600000    0.5000000   3.869820e-04  3.188634e-07
     80     81   2   0.50000     0.0600000    0.3000000   4.903125e-07  9.576416e-13
     58     61   2   0.50000     0.1950000   -0.5000000   1.095425e-03  1.218041e-06
     58     62   2   0.50000     0.1950000   -0.1200000   1.015252e-03  1.866303e-06
     81     61   2   0.50000     0.3000000   -0.5000000   2.153164e-06  6.980110e-12
     81     62   2   0.50000     0.3000000   -0.1200000   1.995577e-06  1.069504e-11
     59     63   2   0.50000    -0.5000000   -0.1200000   1.304585e-03  1.920112e-06
     59     82   2   0.50000    -0.5000000    0.0600000   3.205360e-04  1.719281e-07
     59     83   2   0.50000    -0.5000000    0.0600000   3.205360e-04  1.719281e-07
     61     63   2   0.50000    -0.5000000   -0.1200000   1.095425e-03  1.218041e-06
     61     82   2   0.50000    -0.5000000    0.0600000   2.691455e-04  1.090642e-07
     61     83   2   0.50000    -0.5000000    0.0600000   2.691455e-04  1.090642e-07
     60     64   2   0.50000     0.5000000   -0.1200000   1.575021e-03  3.561100e-06
     60     84   2   0.50000     0.5000000    0.0600000   3.869820e-04  3.188634e-07
     60     85   2   0.50000     0.5000000    0.0600000   3.869820e-04  3.188634e-07
     82     64   2   0.50000     0.0600000   -0.1200000   2.494471e-04  1.671101e-07
     82     84   2   0.50000     0.0600000    0.0600000   6.128906e-05  1.496315e-08
     82     85   2   0.50000     0.0600000    0.0600000   6.128906e-05  1.496315e-08
     83     64   2   0.50000     0.0600000   -0.1200000   2.494471e-04  1.671101e-07
     83     84   2   0.50000     0.0600000    0.0600000   6.128906e-05  1.496315e-08
     83     85   2   0.50000     0.0600000    0.0600000   6.128906e-05  1.496315e-08
     62     65   2   0.50000    -0.1200000   -0.1200000   1.015252e-03  1.866303e-06
     62     86   2   0.50000    -0.1200000    0.0600000   2.494471e-04  1.671101e-07
     62     87   2   0.50000    -0.1200000    0.0600000   2.494471e-04  1.671101e-07
     84     65   2   0.50000     0.0600000   -0.1200000   2.494471e-04  1.671101e-07
     84     86   2   0.50000     0.0600000    0.0600000   6.128906e-05  1.496315e-08
     84     87   2   0.50000     0.0600000    0.0600000   6.128906e-05  1.496315e-08
     85     65   2   0.50000     0.0600000   -0.1200000   2.494471e-04  1.671101e-07
     85     86   2   0.50000     0.0600000    0.0600000   6.128906e-05  1.496315e-08
     85     87   2   0.50000     0.0600000    0.0600000   6.128906e-05  1.496315e-08
     63     66   2   0.50000    -0.1200000   -0.1200000   1.015252e-03  1.866303e-06
     63     88   2   0.50000    -0.1200000    0.0600000   2.494471e-04  1.671101e-07
     63     89   2   0.50000    -0.1200000    0.0600000   2.494471e-04  1.671101e-07
     86     66   2   0.50000     0.0600000   -0.1200000   2.494471e-04  1.671101e-07
     86     88   2   0.50000     0.0600000    0.0600000   6.128906e-05  1.496315e-08
     86     89   2   0.50000     0.0600000    0.0600000   6.128906e-05  1.496315e-08
     87     66   2   0.50000     0.0600000   -0.1200000   2.494471e-04  1.671101e-07
     87     88   2   0.50000     0.0600000    0.0600000   6.128906e-05  1.496315e-08
     87     89   2   0.50000     0.0600000    0.0600000   6.128906e-05  1.496315e-08
     64     67   2   0.50000    -0.1200000   -0.1200000   1.015252e-03  1.866303e-06
     64     90   2   0.50000    -0.1200000    0.0600000   2.494471e-04  1.671101e-07
     64     91   2   0.50000    -0.1200000    0.0600000   2.494471e-04  1.671101e-07
     88     67   2   0.50000     0.0600000   -0.1200000   2.494471e-04  1.671101e-07
     88     90   2   0.50000     0.0600000    0.0600000   6.128906e-05  1.496315e-08
     88     91   2   0.50000     0.0600000    0.0600000   6.128906e-05  1.496315e-08
     89     67   2   0.50000     0.0600000   -0.1200000   2.494471e-04  1.671101e-07
     89     90   2   0.50000     0.0600000    0.0600000   6.128906e-05  1.496315e-08
     89     91   2   0.50000     0.0600000    0.0600000   6.128906e-05  1.496315e-08
     65     68   2   0.50000    -0.1200000   -0.1200000   1.015252e-03  1.866303e-06
     65     92   2   0.50000    -0.1200000    0.0600000   2.494471e-04  1.671101e-07
     65     93   2   0.50000    -0.1200000    0.0600000   2.494471e-04  1.671101e-07
     90     68   2   0.50000     0.0600000   -0.1200000   2.494471e-04  1.671101e-07
     90     92   2   0.50000     0.0600000    0.0600000   6.128906e-05  1.496315e-08
     90     93   2   0.50000     0.0600000    0.0600000   6.128906e-05  1.496315e-08
     91     68   2   0.50000     0.0600000   -0.1200000   2.494471e-04  1.671101e-07
     91     92   2   0.50000     0.0600000    0.0600000   6.128906e-05  1.496315e-08
     91     93   2   0.50000     0.0600000    0.0600000   6.128906e-05  1.496315e-08
     66     69   2   0.50000    -0.1200000   -0.1200000   1.015252e-03  1.866303e-06
     66     94   2   0.50000    -0.1200000    0.0600000   2.494471e-04  1.671101e-07
     66     95   2   0.50000    -0.1200000    0.0600000   2.494471e-04  1.671101e-07
     92     69   2   0.50000     0.0600000   -0.1200000   2.494471e-04  1.671101e-07
     92     94   2   0.50000     0.0600000    0.0600000   6.128906e-05  1.496315e-08
     92     95   2   0.50000     0.0600000    0.0600000   6.128906e-05  1.496315e-08
     93     69   2   0.50000     0.0600000   -0.1200000   2.494471e-04  1.671101e-07
     93     94   2   0.50000     0.0600000    0.0600000   6.128906e-05  1.496315e-08
     93     95   2   0.50000     0.0600000    0.0600000   6.128906e-05  1.496315e-08
     67     70   2   0.50000    -0.1200000    0.5000000   1.575021e-03  3.561100e-06
     67     96   2   0.50000    -0.1200000    0.0600000   2.494471e-04  1.671101e-07
     67     97   2   0.50000    -0.1200000    0.0600000   2.494471e-04  1.671101e-07
     94     70   2   0.50000     0.0600000    0.5000000   3.869820e-04  3.188634e-07
     94     96   2   0.50000     0.0600000    0.0600000   6.128906e-05  1.496315e-08
     94     97   2   0.50000     0.0600000    0.0600000   6.128906e-05  1.496315e-08
     95     70   2   0.50000     0.0600000    0.5000000   3.869820e-04  3.188634e-07
     95     96   2   0.50000     0.0600000    0.0600000   6.128906e-05  1.496315e-08
     95     97   2   0.50000     0.0600000    0.0600000   6.128906e-05  1.496315e-08
     68     71   2   0.50000    -0.1200000   -0.5000000   1.095425e-03  1.218041e-06
     68     98   2   0.50000    -0.1200000   -0.5000000   1.304585e-03  1.920112e-06
     96     71   2   0.50000     0.0600000   -0.5000000   2.691455e-04  1.090642e-07
     96     98   2   0.50000     0.0600000   -0.5000000   3.205360e-04  1.719281e-07
     97     71   2   0.50000     0.0600000   -0.5000000   2.691455e-04  1.090642e-07
     97     98   2   0.50000     0.0600000   -0.5000000   3.205360e-04  1.719281e-07
     69     99   2   0.50000    -0.1200000    0.1950000   1.015252e-03  1.866303e-06
     69    120   2   0.50000    -0.1200000    0.3000000   1.995577e-06  1.069504e-11
     71     99   2   0.50000    -0.5000000    0.1950000   1.095425e-03  1.218041e-06
     71    120   2   0.50000    -0.5000000    0.3000000   2.153164e-06  6.980110e-12
     70    100   2   0.50000     0.5000000   -0.1150000   1.692561e-03  3.993218e-06
     70    121   2   0.50000     0.5000000    0.0600000   3.869820e-04  3.188634e-07
     70    122   2   0.50000     0.5000000    0.0600000   3.869820e-04  3.188634e-07
    120    100   2   0.50000     0.3000000   -0.1150000   2.144502e-06  1.199282e-11
    120    121   2   0.50000     0.3000000    0.0600000   4.903125e-07  9.576416e-13
    120    122   2   0.50000     0.3000000    0.0600000   4.903125e-07  9.576416e-13
     98    101   2   0.50000    -0.5000000   -0.1150000   1.401943e-03  2.153106e-06
     98    105   2   0.50000    -0.5000000   -0.1150000   1.401943e-03  2.153106e-06
    121    101   2   0.50000     0.0600000   -0.1150000   2.680627e-04  1.873879e-07
    121    105   2   0.50000     0.0600000   -0.1150000   2.680627e-04  1.873879e-07
    122    101   2   0.50000     0.0600000   -0.1150000   2.680627e-04  1.873879e-07
    122    105   2   0.50000     0.0600000   -0.1150000   2.680627e-04  1.873879e-07
     99    102   2   0.50000     0.1950000   -0.1150000   1.091018e-03  2.092768e-06
     99    123   2   0.50000     0.1950000    0.1150000   2.262583e-04  1.374848e-07
    105    102   2   0.50000    -0.1150000   -0.1150000   1.172438e-03  2.346713e-06
    105    123   2   0.50000    -0.1150000    0.1150000   2.431434e-04  1.541678e-07
     99    104   2   0.50000     0.1950000   -0.1150000   1.091018e-03  2.092768e-06
     99    106   2   0.50000     0.1950000    0.1950000   1.015252e-03  1.866303e-06
    101    104   2   0.50000    -0.1150000   -0.1150000   1.172438e-03  2.346713e-06
    101    106   2   0.50000    -0.1150000    0.1950000   1.091018e-03  2.092768e-06
    100    103   2   0.50000    -0.1150000   -0.1150000   1.172438e-03  2.346713e-06
    100    124   2   0.50000    -0.1150000    0.1150000   2.431434e-04  1.541678e-07
    123    103   2   0.50000     0.1150000   -0.1150000   2.431434e-04  1.541678e-07
    123    124   2   0.50000     0.1150000    0.1150000   5.042375e-05  1.012808e-08
    101    125   2   0.50000    -0.1150000    0.1150000   2.431434e-04  1.541678e-07
    124    104   2   0.50000     0.1150000   -0.1150000   2.431434e-04  1.541678e-07
    124    125   2   0.50000     0.1150000    0.1150000   5.042375e-05  1.012808e-08
    102    126   2   0.50000    -0.1150000    0.1150000   2.431434e-04  1.541678e-07
    125    105   2   0.50000     0.1150000   -0.1150000   2.431434e-04  1.541678e-07
    125    126   2   0.50000     0.1150000    0.1150000   5.042375e-05  1.012808e-08
    103    106   2   0.50000    -0.1150000    0.1950000   1.091018e-03  2.092768e-06
    126    100   2   0.50000     0.1150000   -0.1150000   2.431434e-04  1.541678e-07
    126    106   2   0.50000     0.1150000    0.1950000   2.262583e-04  1.374848e-07
    100    107   2   0.50000    -0.1150000   -0.5000000   1.401943e-03  2.153106e-06
    100    127   2   0.50000    -0.1150000    0.0600000   2.680627e-04  1.873879e-07
    100    128   2   0.50000    -0.1150000    0.0600000   2.680627e-04  1.873879e-07
    104    107   2   0.50000    -0.1150000   -0.5000000   1.401943e-03  2.153106e-06
    104    127   2   0.50000    -0.1150000    0.0600000   2.680627e-04  1.873879e-07
    104    128   2   0.50000    -0.1150000    0.0600000   2.680627e-04  1.873879e-07
    105    108   2   0.50000    -0.1150000    0.5000000   1.692561e-03  3.993218e-06
    105    129   2   0.50000    -0.1150000    0.3000000   2.144502e-06  1.199282e-11
    127    108   2   0.50000     0.0600000    0.5000000   3.869820e-04  3.188634e-07
    127    129   2   0.50000     0.0600000    0.3000000   4.903125e-07  9.576416e-13
    128    108   2   0.50000     0.0600000    0.5000000   3.869820e-04  3.188634e-07
    128    129   2   0.50000     0.0600000    0.3000000   4.903125e-07  9.576416e-13
    106    109   2   0.50000     0.1950000   -0.5000000   1.095425e-03  1.218041e-06
    106    110   2   0.50000     0.1950000   -0.1200000   1.015252e-03  1.866303e-06
    129    109   2   0.50000     0.3000000   -0.5000000   2.153164e-06  6.980110e-12
    129    110   2   0.50000     0.3000000   -0.1200000   1.995577e-06  1.069504e-11
    107    111   2   0.50000    -0.5000000   -0.1200000   1.304585e-03  1.920112e-06
    107    130   2   0.50000    -0.5000000    0.0600000   3.205360e-04  1.719281e-07
    107    131   2   0.50000    -0.5000000    0.0600000   3.205360e-04  1.719281e-07
    109    111   2   0.50000    -0.5000000   -0.1200000   1.095425e-03  1.218041e-06
    109    130   2   0.50000    -0.5000000    0.0600000   2.691455e-04  1.090642e-07
    109    131   2   0.50000    -0.5000000    0.0600000   2.691455e-04  1.090642e-07
    108    112   2   0.50000     0.5000000   -0.1200000   1.575021e-03  3.561100e-06
    108    132   2   0.50000     0.5000000    0.0600000   3.869820e-04  3.188634e-07
    108    133   2   0.50000     0.5000000    0.0600000   3.869820e-04  3.188634e-07
    130    112   2   0.50000     0.0600000   -0.1200000   2.494471e-04  1.671101e-07
    130    132   2   0.50000     0.0600000    0.0600000   6.128906e-05  1.496315e-08
    130    133   2   0.50000     0.0600000    0.0600000   6.128906e-05  1.496315e-08
    131    112   2   0.50000     0.0600000   -0.1200000   2.494471e-04  1.671101e-07
    131    132   2   0.50000     0.0600000    0.0600000   6.128906e-05  1.496315e-08
    131    133   2   0.50000     0.0600000    0.0600000   6.128906e-05  1.496315e-08
    110    113   2   0.50000    -0.1200000   -0.1200000   1.015252e-03  1.866303e-06
    110    134   2   0.50000    -0.1200000    0.0600000   2.494471e-04  1.671101e-07
    110    135   2   0.50000    -0.1200000    0.0600000   2.494471e-04  1.671101e-07
    132    113   2   0.50000     0.0600000   -0.1200000   2.494471e-04  1.671101e-07
    132    134   2   0.50000     0.0600000    0.0600000   6.128906e-05  1.496315e-08
    132    135   2   0.50000     0.0600000    0.0600000   6.128906e-05  1.496315e-08
    133    113   2   0.50000     0.0600000   -0.1200000   2.494471e-04  1.671101e-07
    133    134   2   0.50000     0.0600000    0.0600000   6.128906e-05  1.496315e-08
    133    135   2   0.50000     0.0600000    0.0600000   6.128906e-05  1.496315e-08
    111    114   2   0.50000    -0.1200000   -0.1200000   1.015252e-03  1.866303e-06
    111    136   2   0.50000    -0.1200000    0.0600000   2.494471e-04  1.671101e-07
    111    137   2   0.50000    -0.1200000    0.0600000   2.494471e-04  1.671101e-07
    134    114   2   0.50000     0.0600000   -0.1200000   2.494471e-04  1.671101e-07
    134    136   2   0.50000     0.0600000    0.0600000   6.128906e-05  1.496315e-08
    134    137   2   0.50000     0.0600000    0.0600000   6.128906e-05  1.496315e-08
    135    114   2   0.50000     0.0600000   -0.1200000   2.494471e-04  1.671101e-07
    135    136   2   0.50000     0.0600000    0.0600000   6.128906e-05  1.496315e-08
    135    137   2   0.50000     0.0600000    0.0600000   6.128906e-05  1.496315e-08
    112    115   2   0.50000    -0.1200000   -0.1200000   1.015252e-03  1.866303e-06
    112    138   2   0.50000    -0.1200000    0.0600000   2.494471e-04  1.671101e-07
    112    139   2   0.50000    -0.1200000    0.0600000   2.494471e-04  1.671101e-07
    136    115   2   0.50000     0.0600000   -0.1200000   2.494471e-04  1.671101e-07
    136    138   2   0.50000     0.0600000    0.0600000   6.128906e-05  1.496315e-08
    136    139   2   0.50000     0.0600000    0.0600000   6.128906e-05  1.496315e-08
    137    115   2   0.50000     0.0600000   -0.1200000   2.494471e-04  1.671101e-07
    137    138   2   0.50000     0.0600000    0.0600000   6.128906e-05  1.496315e-08
    137    139   2   0.50000     0.0600000    0.0600000   6.128906e-05  1.496315e-08
    113    116   2   0.50000    -0.1200000   -0.1200000   1.015252e-03  1.866303e-06
    113    140   2   0.50000    -0.1200000    0.0600000   2.494471e-04  1.671101e-07
    113    141   2   0.50000    -0.1200000    0.0600000   2.494471e-04  1.671101e-07
    138    116   2   0.50000     0.0600000   -0.1200000   2.494471e-04  1.671101e-07
    138    140   2   0.50000     0.0600000    0.0600000   6.128906e-05  1.496315e-08
    138    141   2   0.50000     0.0600000    0.0600000   6.128906e-05  1.496315e-08
    139    116   2   0.50000     0.0600000   -0.1200000   2.494471e-04  1.671101e-07
    139    140   2   0.50000     0.0600000    0.0600000   6.128906e-05  1.496315e-08
    139    141   2   0.50000     0.0600000    0.0600000   6.128906e-05  1.496315e-08
    114    117   2   0.50000    -0.1200000   -0.1200000   1.015252e-03  1.866303e-06
    114    142   2   0.50000    -0.1200000    0.0600000   2.494471e-04  1.671101e-07
    114    143   2   0.50000    -0.1200000    0.0600000   2.494471e-04  1.671101e-07
    140    117   2   0.50000     0.0600000   -0.1200000   2.494471e-04  1.671101e-07
    140    142   2   0.50000     0.0600000    0.0600000   6.128906e-05  1.496315e-08
    140    143   2   0.50000     0.0600000    0.0600000   6.128906e-05  1.496315e-08
    141    117   2   0.50000     0.0600000   -0.1200000   2.494471e-04  1.671101e-07
    141    142   2   0.50000     0.0600000    0.0600000   6.128906e-05  1.496315e-08
    141    143   2   0.50000     0.0600000    0.0600000   6.128906e-05  1.496315e-08
    115    118   2   0.50000    -0.1200000    0.5000000   1.575021e-03  3.561100e-06
    115    144   2   0.50000    -0.1200000    0.0600000   2.494471e-04  1.671101e-07
    115    145   2   0.50000    -0.1200000    0.0600000   2.494471e-04  1.671101e-07
    142    118   2   0.50000     0.0600000    0.5000000   3.869820e-04  3.188634e-07
    142    144   2   0.50000     0.0600000    0.0600000   6.128906e-05  1.496315e-08
    142    145   2   0.50000     0.0600000    0.0600000   6.128906e-05  1.496315e-08
    143    118   2   0.50000     0.0600000    0.5000000   3.869820e-04  3.188634e-07
    143    144   2   0.50000     0.0600000    0.0600000   6.128906e-05  1.496315e-08
    143    145   2   0.50000     0.0600000    0.0600000   6.128906e-05  1.496315e-08
    116    119   2   0.50000    -0.1200000   -0.5000000   1.095425e-03  1.218041e-06
    116    146   2   0.50000    -0.1200000   -0.5000000   1.304585e-03  1.920112e-06
    144    119   2   0.50000     0.0600000   -0.5000000   2.691455e-04  1.090642e-07
    144    146   2   0.50000     0.0600000   -0.5000000   3.205360e-04  1.719281e-07
    145    119   2   0.50000     0.0600000   -0.5000000   2.691455e-04  1.090642e-07
    145    146   2   0.50000     0.0600000   -0.5000000   3.205360e-04  1.719281e-07
    117    147   2   0.50000    -0.1200000    0.1950000   1.015252e-03  1.866303e-06
    117    168   2   0.50000    -0.1200000    0.3000000   1.995577e-06  1.069504e-11
    119    147   2   0.50000    -0.5000000    0.1950000   1.095425e-03  1.218041e-06
    119    168   2   0.50000    -0.5000000    0.3000000   2.153164e-06  6.980110e-12
    118    148   2   0.50000     0.5000000   -0.1150000   1.692561e-03  3.993218e-06
    118    169   2   0.50000     0.5000000    0.0600000   3.869820e-04  3.188634e-07
    118    170   2   0.50000     0.5000000    0.0600000   3.869820e-04  3.188634e-07
    168    148   2   0.50000     0.3000000   -0.1150000   2.144502e-06  1.199282e-11
    168    169   2   0.50000     0.3000000    0.0600000   4.903125e-07  9.576416e-13
    168    170   2   0.50000     0.3000000    0.0600000   4.903125e-07  9.576416e-13
    146    149   2   0.50000    -0.5000000   -0.1150000   1.401943e-03  2.153106e-06
    146    153   2   0.50000    -0.5000000   -0.1150000   1.401943e-03  2.153106e-06
    169    149   2   0.50000     0.0600000   -0.1150000   2.680627e-04  1.873879e-07
    169    153   2   0.50000     0.0600000   -0.1150000   2.680627e-04  1.873879e-07
    170    149   2   0.50000     0.0600000   -0.1150000   2.680627e-04  1.873879e-07
    170    153   2   0.50000     0.0600000   -0.1150000   2.680627e-04  1.873879e-07
    147    150   2   0.50000     0.1950000   -0.1150000   1.091018e-03  2.092768e-06
    147    171   2   0.50000     0.1950000    0.1150000   2.262583e-04  1.374848e-07
    153    150   2   0.50000    -0.1150000   -0.1150000   1.172438e-03  2.346713e-06
    153    171   2   0.50000    -0.1150000    0.1150000   2.431434e-04  1.541678e-07
    147    152   2   0.50000     0.1950000   -0.1150000   1.091018e-03  2.092768e-06
    147    154   2   0.50000     0.1950000    0.1950000   1.015252e-03  1.866303e-06
    149    152   2   0.50000    -0.1150000   -0.1150000   1.172438e-03  2.346713e-06
    149    154   2   0.50000    -0.1150000    0.1950000   1.091018e-03  2.092768e-06
    148    151   2   0.50000    -0.1150000   -0.1150000   1.172438e-03  2.346713e-06
    148    172   2   0.50000    -0.1150000    0.1150000   2.431434e-04  1.541678e-07
    171    151   2   0.50000     0.1150000   -0.1150000   2.431434e-04  1.541678e-07
    171    172   2   0.50000     0.1150000    0.1150000   5.042375e-05  1.012808e-08
    149    173   2   0.50000    -0.1150000    0.1150000   2.431434e-04  1.541678e-07
    172    152   2   0.50000     0.1150000   -0.1150000   2.431434e-04  1.541678e-07
    172    173   2   0.50000     0.1150000    0.1150000   5.042375e-05  1.012808e-08
    150    174   2   0.50000    -0.1150000    0.1150000   2.431434e-04  1.541678e-07
    173    153   2   0.50000     0.1150000   -0.1150000   2.431434e-04  1.541678e-07
    173    174   2   0.50000     0.1150000    0.1150000   5.042375e-05  1.012808e-08
    151    154   2   0.50000    -0.1150000    0.1950000   1.091018e-03  2.092768e-06
    174    148   2   0.50000     0.1150000   -0.1150000   2.431434e-04  1.541678e-07
    174    154   2   0.50000     0.1150000    0.1950000   2.262583e-04  1.374848e-07
    148    155   2   0.50000    -0.1150000   -0.5000000   1.401943e-03  2.153106e-06
    148    175   2   0.50000    -0.1150000    0.0600000   2.680627e-04  1.873879e-07
    148    176   2   0.50000    -0.1150000    0.0600000   2.680627e-04  1.873879e-07
    152    155   2   0.50000    -0.1150000   -0.5000000   1.401943e-03  2.153106e-06
    152    175   2   0.50000    -0.1150000    0.0600000   2.680627e-04  1.873879e-07
    152    176   2   0.50000    -0.1150000    0.0600000   2.680627e-04  1.873879e-07
    153    156   2   0.50000    -0.1150000    0.5000000   1.692561e-03  3.993218e-06
    153    177   2   0.50000    -0.1150000    0.3000000   2.144502e-06  1.199282e-11
    175    156   2   0.50000     0.0600000    0.5000000   3.869820e-04  3.188634e-07
    175    177   2   0.50000     0.0600000    0.3000000   4.903125e-07  9.576416e-13
    176    156   2   0.50000     0.0600000    0.5000000   3.869820e-04  3.188634e-07
    176    177   2   0.50000     0.0600000    0.3000000   4.903125e-07  9.576416e-13
    154    157   2   0.50000     0.1950000   -0.5000000   1.095425e-03  1.218041e-06
    154    158   2   0.50000     0.1950000   -0.1200000   1.015252e-03  1.866303e-06
    177    157   2   0.50000     0.3000000   -0.5000000   2.153164e-06  6.980110e-12
    177    158   2   0.50000     0.3000000   -0.1200000   1.995577e-06  1.069504e-11
    155    159   2   0.50000    -0.5000000   -0.1200000   1.304585e-03  1.920112e-06
    155    178   2   0.50000    -0.5000000    0.0600000   3.205360e-04  1.719281e-07
    155    179   2   0.50000    -0.5000000    0.0600000   3.205360e-04  1.719281e-07
    157    159   2   0.50000    -0.5000000   -0.1200000   1.095425e-03  1.218041e-06
    157    178   2   0.50000    -0.5000000    0.0600000   2.691455e-04  1.090642e-07
    157    179   2   0.50000    -0.5000000    0.0600000   2.691455e-04  1.090642e-07
    156    160   2   0.50000     0.5000000   -0.1200000   1.575021e-03  3.561100e-06
    156    180   2   0.50000     0.5000000    0.0600000   3.869820e-04  3.188634e-07
    156    181   2   0.50000     0.5000000    0.0600000   3.869820e-04  3.188634e-07
    178    160   2   0.50000     0.0600000   -0.1200000   2.494471e-04  1.671101e-07
    178    180   2   0.50000     0.0600000    0.0600000   6.128906e-05  1.496315e-08
    178    181   2   0.50000     0.0600000    0.0600000   6.128906e-05  1.496315e-08
    179    160   2   0.50000     0.0600000   -0.1200000   2.494471e-04  1.671101e-07
    179    180   2   0.50000     0.0600000    0.0600000   6.128906e-05  1.496315e-08
    179    181   2   0.50000     0.0600000    0.0600000   6.128906e-05  1.496315e-08
    158    161   2   0.50000    -0.1200000   -0.1200000   1.015252e-03  1.866303e-06
    158    182   2   0.50000    -0.1200000    0.0600000   2.494471e-04  1.671101e-07
    158    183   2   0.50000    -0.1200000    0.0600000   2.494471e-04  1.671101e-07
    180    161   2   0.50000     0.0600000   -0.1200000   2.494471e-04  1.671101e-07
    180    182   2   0.50000     0.0600000    0.0600000   6.128906e-05  1.496315e-08
    180    183   2   0.50000     0.0600000    0.0600000   6.128906e-05  1.496315e-08
    181    161   2   0.50000     0.0600000   -0.1200000   2.494471e-04  1.671101e-07
    181    182   2   0.50000     0.0600000    0.0600000   6.128906e-05  1.496315e-08
    181    183   2   0.50000     0.0600000    0.0600000   6.128906e-05  1.496315e-08
    159    162   2   0.50000    -0.1200000   -0.1200000   1.015252e-03  1.866303e-06
    159    184   2   0.50000    -0.1200000    0.0600000   2.494471e-04  1.671101e-07
    159    185   2   0.50000    -0.1200000    0.0600000   2.494471e-04  1.671101e-07
    182    162   2   0.50000     0.0600000   -0.1200000   2.494471e-04  1.671101e-07
    182    184   2   0.50000     0.0600000    0.0600000   6.128906e-05  1.496315e-08
    182    185   2   0.50000     0.0600000    0.0600000   6.128906e-05  1.496315e-08
    183    162   2   0.50000     0.0600000   -0.1200000   2.494471e-04  1.671101e-07
    183    184   2   0.50000     0.0600000    0.0600000   6.128906e-05  1.496315e-08
    183    185   2   0.50000     0.0600000    0.0600000   6.128906e-05  1.496315e-08
    160    163   2   0.50000    -0.1200000   -0.1200000   1.015252e-03  1.866303e-06
    160    186   2   0.50000    -0.1200000    0.0600000   2.494471e-04  1.671101e-07
    160    187   2   0.50000    -0.1200000    0.0600000   2.494471e-04  1.671101e-07
    184    163   2   0.50000     0.0600000   -0.1200000   2.494471e-04  1.671101e-07
    184    186   2   0.50000     0.0600000    0.0600000   6.128906e-05  1.496315e-08
    184    187   2   0.50000     0.0600000    0.0600000   6.128906e-05  1.496315e-08
    185    163   2   0.50000     0.0600000   -0.1200000   2.494471e-04  1.671101e-07
    185    186   2   0.50000     0.0600000    0.0600000   6.128906e-05  1.496315e-08
    185    187   2   0.50000     0.0600000    0.0600000   6.128906e-05  1.496315e-08
    161    164   2   0.50000    -0.1200000   -0.1200000   1.015252e-03  1.866303e-06
    161    188   2   0.50000    -0.1200000    0.0600000   2.494471e-04  1.671101e-07
    161    189   2   0.50000    -0.1200000    0.0600000   2.494471e-04  1.671101e-07
    186    164   2   0.50000     0.0600000   -0.1200000   2.494471e-04  1.671101e-07
    186    188   2   0.50000     0.0600000    0.0600000   6.128906e-05  1.496315e-08
    186    189   2   0.50000     0.0600000    0.0600000   6.128906e-05  1.496315e-08
    187    164   2   0.50000     0.0600000   -0.1200000   2.494471e-04  1.671101e-07
    187    188   2   0.50000     0.0600000    0.0600000   6.128906e-05  1.496315e-08
    187    189   2   0.50000     0.0600000    0.0600000   6.128906e-05  1.496315e-08
    162    165   2   0.50000    -0.1200000   -0.1200000   1.015252e-03  1.866303e-06
    162    190   2   0.50000    -0.1200000    0.0600000   2.494471e-04  1.671101e-07
    162    191   2   0.50000    -0.1200000    0.0600000   2.494471e-04  1.671101e-07
    188    165   2   0.50000     0.0600000   -0.1200000   2.494471e-04  1.671101e-07
    188    190   2   0.50000     0.0600000    0.0600000   6.128906e-05  1.496315e-08
    188    191   2   0.50000     0.0600000    0.0600000   6.128906e-05  1.496315e-08
    189    165   2   0.50000     0.0600000   -0.1200000   2.494471e-04  1.671101e-07
    189    190   2   0.50000     0.0600000    0.0600000   6.128906e-05  1.496315e-08
    189    191   2   0.50000     0.0600000    0.0600000   6.128906e-05  1.496315e-08
    163    166   2   0.50000    -0.1200000    0.5000000   1.575021e-03  3.561100e-06
    163    192   2   0.50000    -0.1200000    0.0600000   2.494471e-04  1.671101e-07
    163    193   2   0.50000    -0.1200000    0.0600000   2.494471e-04  1.671101e-07
    190    166   2   0.50000     0.0600000    0.5000000   3.869820e-04  3.188634e-07
    190    192   2   0.50000     0.0600000    0.0600000   6.128906e-05  1.496315e-08
    190    193   2   0.50000     0.0600000    0.0600000   6.128906e-05  1.496315e-08
    191    166   2   0.50000     0.0600000    0.5000000   3.869820e-04  3.188634e-07
    191    192   2   0.50000     0.0600000    0.0600000   6.128906e-05  1.496315e-08
    191    193   2   0.50000     0.0600000    0.0600000   6.128906e-05  1.496315e-08
    164    167   2   0.50000    -0.1200000   -0.5000000   1.095425e-03  1.218041e-06
    164    194   2   0.50000    -0.1200000   -0.5000000   1.304585e-03  1.920112e-06
    192    167   2   0.50000     0.0600000   -0.5000000   2.691455e-04  1.090642e-07
    192    194   2   0.50000     0.0600000   -0.5000000   3.205360e-04  1.719281e-07
    193    167   2   0.50000     0.0600000   -0.5000000   2.691455e-04  1.090642e-07
    193    194   2   0.50000     0.0600000   -0.5000000   3.205360e-04  1.719281e-07
    165    195   2   0.50000    -0.1200000    0.1950000   1.015252e-03  1.866303e-06
    165    216   2   0.50000    -0.1200000    0.3000000   1.995577e-06  1.069504e-11
    167    195   2   0.50000    -0.5000000    0.1950000   1.095425e-03  1.218041e-06
    167    216   2   0.50000    -0.5000000    0.3000000   2.153164e-06  6.980110e-12
    166    196   2   0.50000     0.5000000   -0.1150000   1.692561e-03  3.993218e-06
    166    217   2   0.50000     0.5000000    0.0600000   3.869820e-04  3.188634e-07
    166    218   2   0.50000     0.5000000    0.0600000   3.869820e-04  3.188634e-07
    216    196   2   0.50000     0.3000000   -0.1150000   2.144502e-06  1.199282e-11
    216    217   2   0.50000     0.3000000    0.0600000   4.903125e-07  9.576416e-13
    216    218   2   0.50000     0.3000000    0.0600000   4.903125e-07  9.576416e-13
    194    197   2   0.50000    -0.5000000   -0.1150000   1.401943e-03  2.153106e-06
    194    201   2   0.50000    -0.5000000   -0.1150000   1.401943e-03  2.153106e-06
    217    197   2   0.50000     0.0600000   -0.1150000   2.680627e-04  1.873879e-07
    217    201   2   0.50000     0.0600000   -0.1150000   2.680627e-04  1.873879e-07
    218    197   2   0.50000     0.0600000   -0.1150000   2.680627e-04  1.873879e-07
    218    201   2   0.50000     0.0600000   -0.1150000   2.680627e-04  1.873879e-07
    195    198   2   0.50000     0.1950000   -0.1150000   1.091018e-03  2.092768e-06
    195    219   2   0.50000     0.1950000    0.1150000   2.262583e-04  1.374848e-07
    201    198   2   0.50000    -0.1150000   -0.1150000   1.172438e-03  2.346713e-06
    201    219   2   0.50000    -0.1150000    0.1150000   2.431434e-04  1.541678e-07
    195    200   2   0.50000     0.1950000   -0.1150000   1.091018e-03  2.092768e-06
    195    202   2   0.50000     0.1950000    0.1950000   1.015252e-03  1.866303e-06
    197    200   2   0.50000    -0.1150000   -0.1150000   1.172438e-03  2.346713e-06
    197    202   2   0.50000    -0.1150000    0.1950000   1.091018e-03  2.092768e-06
    196    199   2   0.50000    -0.1150000   -0.1150000   1.172438e-03  2.346713e-06
    196    220   2   0.50000    -0.1150000    0.1150000   2.431434e-04  1.541678e-07
    219    199   2   0.50000     0.1150000   -0.1150000   2.431434e-04  1.541678e-07
    219    220   2   0.50000     0.1150000    0.1150000   5.042375e-05  1.012808e-08
    197    221   2   0.50000    -0.1150000    0.1150000   2.431434e-04  1.541678e-07
    220    200   2   0.50000     0.1150000   -0.1150000   2.431434e-04  1.541678e-07
    220    221   2   0.50000     0.1150000    0.1150000   5.042375e-05  1.012808e-08
    198    222   2   0.50000    -0.1150000    0.1150000   2.431434e-04  1.541678e-07
    221    201   2   0.50000     0.1150000   -0.1150000   2.431434e-04  1.541678e-07
    221    222   2   0.50000     0.1150000    0.1150000   5.042375e-05  1.012808e-08
    199    202   2   0.50000    -0.1150000    0.1950000   1.091018e-03  2.092768e-06
    222    196   2   0.50000     0.1150000   -0.1150000   2.431434e-04  1.541678e-07
    222    202   2   0.50000     0.1150000    0.1950000   2.262583e-04  1.374848e-07
    196    203   2   0.50000    -0.1150000   -0.5000000   1.401943e-03  2.153106e-06
    196    223   2   0.50000    -0.1150000    0.0600000   2.680627e-04  1.873879e-07
    196    224   2   0.50000    -0.1150000    0.0600000   2.680627e-04  1.873879e-07
    200    203   2   0.50000    -0.1150000   -0.5000000   1.401943e-03  2.153106e-06
    200    223   2   0.50000    -0.1150000    0.0600000   2.680627e-04  1.873879e-07
    200    224   2   0.50000    -0.1150000    0.0600000   2.680627e-04  1.873879e-07
    201    204   2   0.50000    -0.1150000    0.5000000   1.692561e-03  3.993218e-06
    201    225   2   0.50000    -0.1150000    0.3000000   2.144502e-06  1.199282e-11
    223    204   2   0.50000     0.0600000    0.5000000   3.869820e-04  3.188634e-07
    223    225   2   0.50000     0.0600000    0.3000000   4.903125e-07  9.576416e-13
    224    204   2   0.50000     0.0600000    0.5000000   3.869820e-04  3.188634e-07
    224    225   2   0.50000     0.0600000    0.3000000   4.903125e-07  9.576416e-13
    202    205   2   0.50000     0.1950000   -0.5000000   1.095425e-03  1.218041e-06
    202    206   2   0.50000     0.1950000   -0.1200000   1.015252e-03  1.866303e-06
    225    205   2   0.50000     0.3000000   -0.5000000   2.153164e-06  6.980110e-12
    225    206   2   0.50000     0.3000000   -0.1200000   1.995577e-06  1.069504e-11
    203    207   2   0.50000    -0.5000000   -0.1200000   1.304585e-03  1.920112e-06
    203    226   2   0.50000    -0.5000000    0.0600000   3.205360e-04  1.719281e-07
    203    227   2   0.50000    -0.5000000    0.0600000   3.205360e-04  1.719281e-07
    205    207   2   0.50000    -0.5000000   -0.1200000   1.095425e-03  1.218041e-06
    205    226   2   0.50000    -0.5000000    0.0600000   2.691455e-04  1.090642e-07
    205    227   2   0.50000    -0.5000000    0.0600000   2.691455e-04  1.090642e-07
    204    208   2   0.50000     0.5000000   -0.1200000   1.575021e-03  3.561100e-06
    204    228   2   0.50000     0.5000000    0.0600000   3.869820e-04  3.188634e-07
    204    229   2   0.50000     0.5000000    0.0600000   3.869820e-04  3.188634e-07
    226    208   2   0.50000     0.0600000   -0.1200000   2.494471e-04  1.671101e-07
    226    228   2   0.50000     0.0600000    0.0600000   6.128906e-05  1.496315e-08
    226    229   2   0.50000     0.0600000    0.0600000   6.128906e-05  1.496315e-08
    227    208   2   0.50000     0.0600000   -0.1200000   2.494471e-04  1.671101e-07
    227    228   2   0.50000     0.0600000    0.0600000   6.128906e-05  1.496315e-08
    227    229   2   0.50000     0.0600000    0.0600000   6.128906e-05  1.496315e-08
    206    209   2   0.50000    -0.1200000   -0.1200000   1.015252e-03  1.866303e-06
    206    230   2   0.50000    -0.1200000    0.0600000   2.494471e-04  1.671101e-07
    206    231   2   0.50000    -0.1200000    0.0600000   2.494471e-04  1.671101e-07
    228    209   2   0.50000     0.0600000   -0.1200000   2.494471e-04  1.671101e-07
    228    230   2   0.50000     0.0600000    0.0600000   6.128906e-05  1.496315e-08
    228    231   2   0.50000     0.0600000    0.0600000   6.128906e-05  1.496315e-08
    229    209   2   0.50000     0.0600000   -0.1200000   2.494471e-04  1.671101e-07
    229    230   2   0.50000     0.0600000    0.0600000   6.128906e-05  1.496315e-08
    229    231   2   0.50000     0.0600000    0.0600000   6.128906e-05  1.496315e-08
    207    210   2   0.50000    -0.1200000   -0.1200000   1.015252e-03  1.866303e-06
    207    232   2   0.50000    -0.1200000    0.0600000   2.494471e-04  1.671101e-07
    207    233   2   0.50000    -0.1200000    0.0600000   2.494471e-04  1.671101e-07
    230    210   2   0.50000     0.0600000   -0.1200000   2.494471e-04  1.671101e-07
    230    232   2   0.50000     0.0600000    0.0600000   6.128906e-05  1.496315e-08
    230    233   2   0.50000     0.0600000    0.0600000   6.128906e-05  1.496315e-08
    231    210   2   0.50000     0.0600000   -0.1200000   2.494471e-04  1.671101e-07
    231    232   2   0.50000     0.0600000    0.0600000   6.128906e-05  1.496315e-08
    231    233   2   0.50000     0.0600000    0.0600000   6.128906e-05  1.496315e-08
    208    211   2   0.50000    -0.1200000   -0.1200000   1.015252e-03  1.866303e-06
    208    234   2   0.50000    -0.1200000    0.0600000   2.494471e-04  1.671101e-07
    208    235   2   0.50000    -0.1200000    0.0600000   2.494471e-04  1.671101e-07
    232    211   2   0.50000     0.0600000   -0.1200000   2.494471e-04  1.671101e-07
    232    234   2   0.50000     0.0600000    0.0600000   6.128906e-05  1.496315e-08
    232    235   2   0.50000     0.0600000    0.0600000   6.128906e-05  1.496315e-08
    233    211   2   0.50000     0.0600000   -0.1200000   2.494471e-04  1.671101e-07
    233    234   2   0.50000     0.0600000    0.0600000   6.128906e-05  1.496315e-08
    233    235   2   0.50000     0.0600000    0.0600000   6.128906e-05  1.496315e-08
    209    212   2   0.50000    -0.1200000   -0.1200000   1.015252e-03  1.866303e-06
    209    236   2   0.50000    -0.1200000    0.0600000   2.494471e-04  1.671101e-07
    209    237   2   0.50000    -0.1200000    0.0600000   2.494471e-04  1.671101e-07
    234    212   2   0.50000     0.0600000   -0.1200000   2.494471e-04  1.671101e-07
    234    236   2   0.50000     0.0600000    0.0600000   6.128906e-05  1.496315e-08
    234    237   2   0.50000     0.0600000    0.0600000   6.128906e-05  1.496315e-08
    235    212   2   0.50000     0.0600000   -0.1200000   2.494471e-04  1.671101e-07
    235    236   2   0.50000     0.0600000    0.0600000   6.128906e-05  1.496315e-08
    235    237   2   0.50000     0.0600000    0.0600000   6.128906e-05  1.496315e-08
    210    213   2   0.50000    -0.1200000   -0.1200000   1.015252e-03  1.866303e-06
    210    238   2   0.50000    -0.1200000    0.0600000   2.494471e-04  1.671101e-07
    210    239   2   0.50000    -0.1200000    0.0600000   2.494471e-04  1.671101e-07
    236    213   2   0.50000     0.0600000   -0.1200000   2.494471e-04  1.671101e-07
    236    238   2   0.50000     0.0600000    0.0600000   6.128906e-05  1.496315e-08
    236    239   2   0.50000     0.0600000    0.0600000   6.128906e-05  1.496315e-08
    237    213   2   0.50000     0.0600000   -0.1200000   2.494471e-04  1.671101e-07
    237    238   2   0.50000     0.0600000    0.0600000   6.128906e-05  1.496315e-08
    237    239   2   0.50000     0.0600000    0.0600000   6.128906e-05  1.496315e-08
    211    214   2   0.50000    -0.1200000    0.5000000   1.575021e-03  3.561100e-06
    211    240   2   0.50000    -0.1200000    0.0600000   2.494471e-04  1.671101e-07
    211    241   2   0.50000    -0.1200000    0.0600000   2.494471e-04  1.671101e-07
    238    214   2   0.50000     0.0600000    0.5000000   3.869820e-04  3.188634e-07
    238    240   2   0.50000     0.0600000    0.0600000   6.128906e-05  1.496315e-08
    238    241   2   0.50000     0.0600000    0.0600000   6.128906e-05  1.496315e-08
    239    214   2   0.50000     0.0600000    0.5000000   3.869820e-04  3.188634e-07
    239    240   2   0.50000     0.0600000    0.0600000   6.128906e-05  1.496315e-08
    239    241   2   0.50000     0.0600000    0.0600000   6.128906e-05  1.496315e-08
    212    215   2   0.50000    -0.1200000   -0.5000000   1.095425e-03  1.218041e-06
    212    242   2   0.50000    -0.1200000   -0.5000000   1.304585e-03  1.920112e-06
    240    215   2   0.50000     0.0600000   -0.5000000   2.691455e-04  1.090642e-07
    240    242   2   0.50000     0.0600000   -0.5000000   3.205360e-04  1.719281e-07
    241    215   2   0.50000     0.0600000   -0.5000000   2.691455e-04  1.090642e-07
    241    242   2   0.50000     0.0600000   -0.5000000   3.205360e-04  1.719281e-07
    213    243   2   0.50000    -0.1200000    0.1950000   1.015252e-03  1.866303e-06
    213    264   2   0.50000    -0.1200000    0.3000000   1.995577e-06  1.069504e-11
    215    243   2   0.50000    -0.5000000    0.1950000   1.095425e-03  1.218041e-06
    215    264   2   0.50000    -0.5000000    0.3000000   2.153164e-06  6.980110e-12
    214    244   2   0.50000     0.5000000   -0.1150000   1.692561e-03  3.993218e-06
    214    265   2   0.50000     0.5000000    0.0600000   3.869820e-04  3.188634e-07
    214    266   2   0.50000     0.5000000    0.0600000   3.869820e-04  3.188634e-07
    264    244   2   0.50000     0.3000000   -0.1150000   2.144502e-06  1.199282e-11
    264    265   2   0.50000     0.3000000    0.0600000   4.903125e-07  9.576416e-13
    264    266   2   0.50000     0.3000000    0.0600000   4.903125e-07  9.576416e-13
    242    245   2   0.50000    -0.5000000   -0.1150000   1.401943e-03  2.153106e-06
    242    249   2   0.50000    -0.5000000   -0.1150000   1.401943e-03  2.153106e-06
    265    245   2   0.50000     0.0600000   -0.1150000   2.680627e-04  1.873879e-07
    265    249   2   0.50000     0.0600000   -0.1150000   2.680627e-04  1.873879e-07
    266    245   2   0.50000     0.0600000   -0.1150000   2.680627e-04  1.873879e-07
    266    249   2   0.50000     0.0600000   -0.1150000   2.680627e-04  1.873879e-07
    243    246   2   0.50000     0.1950000   -0.1150000   1.091018e-03  2.092768e-06
    243    267   2   0.50000     0.1950000    0.1150000   2.262583e-04  1.374848e-07
    249    246   2   0.50000    -0.1150000   -0.1150000   1.172438e-03  2.346713e-06
    249    267   2   0.50000    -0.1150000    0.1150000   2.431434e-04  1.541678e-07
    243    248   2   0.50000     0.1950000   -0.1150000   1.091018e-03  2.092768e-06
    243    250   2   0.50000     0.1950000    0.1950000   1.015252e-03  1.866303e-06
    245    248   2   0.50000    -0.1150000   -0.1150000   1.172438e-03  2.346713e-06
    245    250   2   0.50000    -0.1150000    0.1950000   1.091018e-03  2.092768e-06
    244    247   2   0.50000    -0.1150000   -0.1150000   1.172438e-03  2.346713e-06
    244    268   2   0.50000    -0.1150000    0.1150000   2.431434e-04  1.541678e-07
    267    247   2   0.50000     0.1150000   -0.1150000   2.431434e-04  1.541678e-07
    267    268   2   0.50000     0.1150000    0.1150000   5.042375e-05  1.012808e-08
    245    269   2   0.50000    -0.1150000    0.1150000   2.431434e-04  1.541678e-07
    268    248   2   0.50000     0.1150000   -0.1150000   2.431434e-04  1.541678e-07
    268    269   2   0.50000     0.1150000    0.1150000   5.042375e-05  1.012808e-08
    246    270   2   0.50000    -0.1150000    0.1150000   2.431434e-04  1.541678e-07
    269    249   2   0.50000     0.1150000   -0.1150000   2.431434e-04  1.541678e-07
    269    270   2   0.50000     0.1150000    0.1150000   5.042375e-05  1.012808e-08
    247    250   2   0.50000    -0.1150000    0.1950000   1.091018e-03  2.092768e-06
    270    244   2   0.50000     0.1150000   -0.1150000   2.431434e-04  1.541678e-07
    270    250   2   0.50000     0.1150000    0.1950000   2.262583e-04  1.374848e-07
    244    251   2   0.50000    -0.1150000   -0.5000000   1.401943e-03  2.153106e-06
    244    271   2   0.50000    -0.1150000    0.0600000   2.680627e-04  1.873879e-07
    244    272   2   0.50000    -0.1150000    0.0600000   2.680627e-04  1.873879e-07
    248    251   2   0.50000    -0.1150000   -0.5000000   1.401943e-03  2.153106e-06
    248    271   2   0.50000    -0.1150000    0.0600000   2.680627e-04  1.873879e-07
    248    272   2   0.50000    -0.1150000    0.0600000   2.680627e-04  1.873879e-07
    249    252   2   0.50000    -0.1150000    0.5000000   1.692561e-03  3.993218e-06
    249    273   2   0.50000    -0.1150000    0.3000000   2.144502e-06  1.199282e-11
    271    252   2   0.50000     0.0600000    0.5000000   3.869820e-04  3.188634e-07
    271    273   2   0.50000     0.0600000    0.3000000   4.903125e-07  9.576416e-13
    272    252   2   0.50000     0.0600000    0.5000000   3.869820e-04  3.188634e-07
    272    273   2   0.50000     0.0600000    0.3000000   4.903125e-07  9.576416e-13
    250    253   2   0.50000     0.1950000   -0.5000000   1.095425e-03  1.218041e-06
    250    254   2   0.50000     0.1950000   -0.1200000   1.015252e-03  1.866303e-06
    273    253   2   0.50000     0.3000000   -0.5000000   2.153164e-06  6.980110e-12
    273    254   2   0.50000     0.3000000   -0.1200000   1.995577e-06  1.069504e-11
    251    255   2   0.50000    -0.5000000   -0.1200000   1.304585e-03  1.920112e-06
    251    274   2   0.50000    -0.5000000    0.0600000   3.205360e-04  1.719281e-07
    251    275   2   0.50000    -0.5000000    0.0600000   3.205360e-04  1.719281e-07
    253    255   2   0.50000    -0.5000000   -0.1200000   1.095425e-03  1.218041e-06
    253    274   2   0.50000    -0.5000000    0.0600000   2.691455e-04  1.090642e-07
    253    275   2   0.50000    -0.5000000    0.0600000   2.691455e-04  1.090642e-07
    252    256   2   0.50000     0.5000000   -0.1200000   1.575021e-03  3.561100e-06
    252    276   2   0.50000     0.5000000    0.0600000   3.869820e-04  3.188634e-07
    252    277   2   0.50000     0.5000000    0.0600000   3.869820e-04  3.188634e-07
    274    256   2   0.50000     0.0600000   -0.1200000   2.494471e-04  1.671101e-07
    274    276   2   0.50000     0.0600000    0.0600000   6.128906e-05  1.496315e-08
    274    277   2   0.50000     0.0600000    0.0600000   6.128906e-05  1.496315e-08
    275    256   2   0.50000     0.0600000   -0.1200000   2.494471e-04  1.671101e-07
    275    276   2   0.50000     0.0600000    0.0600000   6.128906e-05  1.496315e-08
    275    277   2   0.50000     0.0600000    0.0600000   6.128906e-05  1.496315e-08
    254    257   2   0.50000    -0.1200000   -0.1200000   1.015252e-03  1.866303e-06
    254    278   2   0.50000    -0.1200000    0.0600000   2.494471e-04  1.671101e-07
    254    279   2   0.50000    -0.1200000    0.0600000   2.494471e-04  1.671101e-07
    276    257   2   0.50000     0.0600000   -0.1200000   2.494471e-04  1.671101e-07
    276    278   2   0.50000     0.0600000    0.0600000   6.128906e-05  1.496315e-08
    276    279   2   0.50000     0.0600000    0.0600000   6.128906e-05  1.496315e-08
    277    257   2   0.50000     0.0600000   -0.1200000   2.494471e-04  1.671101e-07
    277    278   2   0.50000     0.0600000    0.0600000   6.128906e-05  1.496315e-08
    277    279   2   0.50000     0.0600000    0.0600000   6.128906e-05  1.496315e-08
    255    258   2   0.50000    -0.1200000   -0.1200000   1.015252e-03  1.866303e-06
    255    280   2   0.50000    -0.1200000    0.0600000   2.494471e-04  1.671101e-07
    255    281   2   0.50000    -0.1200000    0.0600000   2.494471e-04  1.671101e-07
    278    258   2   0.50000     0.0600000   -0.1200000   2.494471e-04  1.671101e-07
    278    280   2   0.50000     0.0600000    0.0600000   6.128906e-05  1.496315e-08
    278    281   2   0.50000     0.0600000    0.0600000   6.128906e-05  1.496315e-08
    279    258   2   0.50000     0.0600000   -0.1200000   2.494471e-04  1.671101e-07
    279    280   2   0.50000     0.0600000    0.0600000   6.128906e-05  1.496315e-08
    279    281   2   0.50000     0.0600000    0.0600000   6.128906e-05  1.496315e-08
    256    259   2   0.50000    -0.1200000   -0.1200000   1.015252e-03  1.866303e-06
    256    282   2   0.50000    -0.1200000    0.0600000   2.494471e-04  1.671101e-07
    256    283   2   0.50000    -0.1200000    0.0600000   2.494471e-04  1.671101e-07
    280    259   2   0.50000     0.0600000   -0.1200000   2.494471e-04  1.671101e-07
    280    282   2   0.50000     0.0600000    0.0600000   6.128906e-05  1.496315e-08
    280    283   2   0.50000     0.0600000    0.0600000   6.128906e-05  1.496315e-08
    281    259   2   0.50000     0.0600000   -0.1200000   2.494471e-04  1.671101e-07
    281    282   2   0.50000     0.0600000    0.0600000   6.128906e-05  1.496315e-08
    281    283   2   0.50000     0.0600000    0.0600000   6.128906e-05  1.496315e-08
    257    260   2   0.50000    -0.1200000   -0.1200000   1.015252e-03  1.866303e-06
    257    284   2   0.50000    -0.1200000    0.0600000   2.494471e-04  1.671101e-07
    257    285   2   0.50000    -0.1200000    0.0600000   2.494471e-04  1.671101e-07
    282    260   2   0.50000     0.0600000   -0.1200000   2.494471e-04  1.671101e-07
    282    284   2   0.50000     0.0600000    0.0600000   6.128906e-05  1.496315e-08
    282    285   2   0.50000     0.0600000    0.0600000   6.128906e-05  1.496315e-08
    283    260   2   0.50000     0.0600000   -0.1200000   2.494471e-04  1.671101e-07
    283    284   2   0.50000     0.0600000    0.0600000   6.128906e-05  1.496315e-08
    283    285   2   0.50000     0.0600000    0.0600000   6.128906e-05  1.496315e-08
    258    261   2   0.50000    -0.1200000   -0.1200000   1.015252e-03  1.866303e-06
    258    286   2   0.50000    -0.1200000    0.0600000   2.494471e-04  1.671101e-07
    258    287   2   0.50000    -0.1200000    0.0600000   2.494471e-04  1.671101e-07
    284    261   2   0.50000     0.0600000   -0.1200000   2.494471e-04  1.671101e-07
    284    286   2   0.50000     0.0600000    0.0600000   6.128906e-05  1.496315e-08
    284    287   2   0.50000     0.0600000    0.0600000   6.128906e-05  1.496315e-08
    285    261   2   0.50000     0.0600000   -0.1200000   2.494471e-04  1.671101e-07
    285    286   2   0.50000     0.0600000    0.0600000   6.128906e-05  1.496315e-08
    285    287   2   0.50000     0.0600000    0.0600000   6.128906e-05  1.496315e-08
    259    262   2   0.50000    -0.1200000    0.5000000   1.575021e-03  3.561100e-06
    259    288   2   0.50000    -0.1200000    0.0600000   2.494471e-04  1.671101e-07
    259    289   2   0.50000    -0.1200000    0.0600000   2.494471e-04  1.671101e-07
    286    262   2   0.50000     0.0600000    0.5000000   3.869820e-04  3.188634e-07
    286    288   2   0.50000     0.0600000    0.0600000   6.128906e-05  1.496315e-08
    286    289   2   0.50000     0.0600000    0.0600000   6.128906e-05  1.496315e-08
    287    262   2   0.50000     0.0600000    0.5000000   3.869820e-04  3.188634e-07
    287    288   2   0.50000     0.0600000    0.0600000   6.128906e-05  1.496315e-08
    287    289   2   0.50000     0.0600000    0.0600000   6.128906e-05  1.496315e-08
    260    263   2   0.50000    -0.1200000   -0.5000000   1.095425e-03  1.218041e-06
    260    290   2   0.50000    -0.1200000   -0.5000000   1.304585e-03  1.920112e-06
    288    263   2   0.50000     0.0600000   -0.5000000   2.691455e-04  1.090642e-07
    288    290   2   0.50000     0.0600000   -0.5000000   3.205360e-04  1.719281e-07
    289    263   2   0.50000     0.0600000   -0.5000000   2.691455e-04  1.090642e-07
    289    290   2   0.50000     0.0600000   -0.5000000   3.205360e-04  1.719281e-07
    261    291   2   0.50000    -0.1200000    0.1950000   1.015252e-03  1.866303e-06
    261    312   2   0.50000    -0.1200000    0.3000000   1.995577e-06  1.069504e-11
    263    291   2   0.50000    -0.5000000    0.1950000   1.095425e-03  1.218041e-06
    263    312   2   0.50000    -0.5000000    0.3000000   2.153164e-06  6.980110e-12
    262    292   2   0.50000     0.5000000   -0.1150000   1.692561e-03  3.993218e-06
    262    313   2   0.50000     0.5000000    0.0600000   3.869820e-04  3.188634e-07
    262    314   2   0.50000     0.5000000    0.0600000   3.869820e-04  3.188634e-07
    312    292   2   0.50000     0.3000000   -0.1150000   2.144502e-06  1.199282e-11
    312    313   2   0.50000     0.3000000    0.0600000   4.903125e-07  9.576416e-13
    312    314   2   0.50000     0.3000000    0.0600000   4.903125e-07  9.576416e-13
    290    293   2   0.50000    -0.5000000   -0.1150000   1.401943e-03  2.153106e-06
    290    297   2   0.50000    -0.5000000   -0.1150000   1.401943e-03  2.153106e-06
    313    293   2   0.50000     0.0600000   -0.1150000   2.680627e-04  1.873879e-07
    313    297   2   0.50000     0.0600000   -0.1150000   2.680627e-04  1.873879e-07
    314    293   2   0.50000     0.0600000   -0.1150000   2.680627e-04  1.873879e-07
    314    297   2   0.50000     0.0600000   -0.1150000   2.680627e-04  1.873879e-07
    291    294   2   0.50000     0.1950000   -0.1150000   1.091018e-03  2.092768e-06
    291    315   2   0.50000     0.1950000    0.1150000   2.262583e-04  1.374848e-07
    297    294   2   0.50000    -0.1150000   -0.1150000   1.172438e-03  2.346713e-06
    297    315   2   0.50000    -0.1150000    0.1150000   2.431434e-04  1.541678e-07
    291    296   2   0.50000     0.1950000   -0.1150000   1.091018e-03  2.092768e-06
    291    298   2   0.50000     0.1950000    0.1950000   1.015252e-03  1.866303e-06
    293    296   2   0.50000    -0.1150000   -0.1150000   1.172438e-03  2.346713e-06
    293    298   2   0.50000    -0.1150000    0.1950000   1.091018e-03  2.092768e-06
    292    295   2   0.50000    -0.1150000   -0.1150000   1.172438e-03  2.346713e-06
    292    316   2   0.50000    -0.1150000    0.1150000   2.431434e-04  1.541678e-07
    315    295   2   0.50000     0.1150000   -0.1150000   2.431434e-04  1.541678e-07
    315    316   2   0.50000     0.1150000    0.1150000   5.042375e-05  1.012808e-08
    293    317   2   0.50000    -0.1150000    0.1150000   2.431434e-04  1.541678e-07
    316    296   2   0.50000     0.1150000   -0.1150000   2.431434e-04  1.541678e-07
    316    317   2   0.50000     0.1150000    0.1150000   5.042375e-05  1.012808e-08
    294    318   2   0.50000    -0.1150000    0.1150000   2.431434e-04  1.541678e-07
    317    297   2   0.50000     0.1150000   -0.1150000   2.431434e-04  1.541678e-07
    317    318   2   0.50000     0.1150000    0.1150000   5.042375e-05  1.012808e-08
    295    298   2   0.50000    -0.1150000    0.1950000   1.091018e-03  2.092768e-06
    318    292   2   0.50000     0.1150000   -0.1150000   2.431434e-04  1.541678e-07
    318    298   2   0.50000     0.1150000    0.1950000   2.262583e-04  1.374848e-07
    292    299   2   0.50000    -0.1150000   -0.5000000   1.401943e-03  2.153106e-06
    292    319   2   0.50000    -0.1150000    0.0600000   2.680627e-04  1.873879e-07
    292    320   2   0.50000    -0.1150000    0.0600000   2.680627e-04  1.873879e-07
    296    299   2   0.50000    -0.1150000   -0.5000000   1.401943e-03  2.153106e-06
    296    319   2   0.50000    -0.1150000    0.0600000   2.680627e-04  1.873879e-07
    296    320   2   0.50000    -0.1150000    0.0600000   2.680627e-04  1.873879e-07
    297    300   2   0.50000    -0.1150000    0.5000000   1.692561e-03  3.993218e-06
    297    321   2   0.50000    -0.1150000    0.3000000   2.144502e-06  1.199282e-11
    319    300   2   0.50000     0.0600000    0.5000000   3.869820e-04  3.188634e-07
    319    321   2   0.50000     0.0600000    0.3000000   4.903125e-07  9.576416e-13
    320    300   2   0.50000     0.0600000    0.5000000   3.869820e-04  3.188634e-07
    320    321   2   0.50000     0.0600000    0.3000000   4.903125e-07  9.576416e-13
    298    301   2   0.50000     0.1950000   -0.5000000   1.095425e-03  1.218041e-06
    298    302   2   0.50000     0.1950000   -0.1200000   1.015252e-03  1.866303e-06
    321    301   2   0.50000     0.3000000   -0.5000000   2.153164e-06  6.980110e-12
    321    302   2   0.50000     0.3000000   -0.1200000   1.995577e-06  1.069504e-11
    299    303   2   0.50000    -0.5000000   -0.1200000   1.304585e-03  1.920112e-06
    299    322   2   0.50000    -0.5000000    0.0600000   3.205360e-04  1.719281e-07
    299    323   2   0.50000    -0.5000000    0.0600000   3.205360e-04  1.719281e-07
    301    303   2   0.50000    -0.5000000   -0.1200000   1.095425e-03  1.218041e-06
    301    322   2   0.50000    -0.5000000    0.0600000   2.691455e-04  1.090642e-07
    301    323   2   0.50000    -0.5000000    0.0600000   2.691455e-04  1.090642e-07
    300    304   2   0.50000     0.5000000   -0.1200000   1.575021e-03  3.561100e-06
    300    324   2   0.50000     0.5000000    0.0600000   3.869820e-04  3.188634e-07
    300    325   2   0.50000     0.5000000    0.0600000   3.869820e-04  3.188634e-07
    322    304   2   0.50000     0.0600000   -0.1200000   2.494471e-04  1.671101e-07
    322    324   2   0.50000     0.0600000    0.0600000   6.128906e-05  1.496315e-08
    322    325   2   0.50000     0.0600000    0.0600000   6.128906e-05  1.496315e-08
    323    304   2   0.50000     0.0600000   -0.1200000   2.494471e-04  1.671101e-07
    323    324   2   0.50000     0.0600000    0.0600000   6.128906e-05  1.496315e-08
    323    325   2   0.50000     0.0600000    0.0600000   6.128906e-05  1.496315e-08
    302    305   2   0.50000    -0.1200000   -0.1200000   1.015252e-03  1.866303e-06
    302    326   2   0.50000    -0.1200000    0.0600000   2.494471e-04  1.671101e-07
    302    327   2   0.50000    -0.1200000    0.0600000   2.494471e-04  1.671101e-07
    324    305   2   0.50000     0.0600000   -0.1200000   2.494471e-04  1.671101e-07
    324    326   2   0.50000     0.0600000    0.0600000   6.128906e-05  1.496315e-08
    324    327   2   0.50000     0.0600000    0.0600000   6.128906e-05  1.496315e-08
    325    305   2   0.50000     0.0600000   -0.1200000   2.494471e-04  1.671101e-07
    325    326   2   0.50000     0.0600000    0.0600000   6.128906e-05  1.496315e-08
    325    327   2   0.50000     0.0600000    0.0600000   6.128906e-05  1.496315e-08
    303    306   2   0.50000    -0.1200000   -0.1200000   1.015252e-03  1.866303e-06
    303    328   2   0.50000    -0.1200000    0.0600000   2.494471e-04  1.671101e-07
    303    329   2   0.50000    -0.1200000    0.0600000   2.494471e-04  1.671101e-07
    326    306   2   0.50000     0.0600000   -0.1200000   2.494471e-04  1.671101e-07
    326    328   2   0.50000     0.0600000    0.0600000   6.128906e-05  1.496315e-08
    326    329   2   0.50000     0.0600000    0.0600000   6.128906e-05  1.496315e-08
    327    306   2   0.50000     0.0600000   -0.1200000   2.494471e-04  1.671101e-07
    327    328   2   0.50000     0.0600000    0.0600000   6.128906e-05  1.496315e-08
    327    329   2   0.50000     0.0600000    0.0600000   6.128906e-05  1.496315e-08
    304    307   2   0.50000    -0.1200000   -0.1200000   1.015252e-03  1.866303e-06
    304    330   2   0.50000    -0.1200000    0.0600000   2.494471e-04  1.671101e-07
    304    331   2   0.50000    -0.1200000    0.0600000   2.494471e-04  1.671101e-07
    328    307   2   0.50000     0.0600000   -0.1200000   2.494471e-04  1.671101e-07
    328    330   2   0.50000     0.0600000    0.0600000   6.128906e-05  1.496315e-08
    328    331   2   0.50000     0.0600000    0.0600000   6.128906e-05  1.496315e-08
    329    307   2   0.50000     0.0600000   -0.1200000   2.494471e-04  1.671101e-07
    329    330   2   0.50000     0.0600000    0.0600000   6.128906e-05  1.496315e-08
    329    331   2   0.50000     0.0600000    0.0600000   6.128906e-05  1.496315e-08
    305    308   2   0.50000    -0.1200000   -0.1200000   1.015252e-03  1.866303e-06
    305    332   2   0.50000    -0.1200000    0.0600000   2.494471e-04  1.671101e-07
    305    333   2   0.50000    -0.1200000    0.0600000   2.494471e-04  1.671101e-07
    330    308   2   0.50000     0.0600000   -0.1200000   2.494471e-04  1.671101e-07
    330    332   2   0.50000     0.0600000    0.0600000   6.128906e-05  1.496315e-08
    330    333   2   0.50000     0.0600000    0.0600000   6.128906e-05  1.496315e-08
    331    308   2   0.50000     0.0600000   -0.1200000   2.494471e-04  1.671101e-07
    331    332   2   0.50000     0.0600000    0.0600000   6.128906e-05  1.496315e-08
    331    333   2   0.50000     0.0600000    0.0600000   6.128906e-05  1.496315e-08
    306    309   2   0.50000    -0.1200000   -0.1200000   1.015252e-03  1.866303e-06
    306    334   2   0.50000    -0.1200000    0.0600000   2.494471e-04  1.671101e-07
    306    335   2   0.50000    -0.1200000    0.0600000   2.494471e-04  1.671101e-07
    332    309   2   0.50000     0.0600000   -0.1200000   2.494471e-04  1.671101e-07
    332    334   2   0.50000     0.0600000    0.0600000   6.128906e-05  1.496315e-08
    332    335   2   0.50000     0.0600000    0.0600000   6.128906e-05  1.496315e-08
    333    309   2   0.50000     0.0600000   -0.1200000   2.494471e-04  1.671101e-07
    333    334   2   0.50000     0.0600000    0.0600000   6.128906e-05  1.496315e-08
    333    335   2   0.50000     0.0600000    0.0600000   6.128906e-05  1.496315e-08
    307    310   2   0.50000    -0.1200000    0.5000000   1.575021e-03  3.561100e-06
    307    336   2   0.50000    -0.1200000    0.0600000   2.494471e-04  1.671101e-07
    307    337   2   0.50000    -0.1200000    0.0600000   2.494471e-04  1.671101e-07
    334    310   2   0.50000     0.0600000    0.5000000   3.869820e-04  3.188634e-07
    334    336   2   0.50000     0.0600000    0.0600000   6.128906e-05  1.496315e-08
    334    337   2   0.50000     0.0600000    0.0600000   6.128906e-05  1.496315e-08
    335    310   2   0.50000     0.0600000    0.5000000   3.869820e-04  3.188634e-07
    335    336   2   0.50000     0.0600000    0.0600000   6.128906e-05  1.496315e-08
    335    337   2   0.50000     0.0600000    0.0600000   6.128906e-05  1.496315e-08
    308    311   2   0.50000    -0.1200000   -0.5000000   1.095425e-03  1.218041e-06
    308    338   2   0.50000    -0.1200000   -0.5000000   1.304585e-03  1.920112e-06
    336    311   2   0.50000     0.0600000   -0.5000000   2.691455e-04  1.090642e-07
    336    338   2   0.50000     0.0600000   -0.5000000   3.205360e-04  1.719281e-07
    337    311   2   0.50000     0.0600000   -0.5000000   2.691455e-04  1.090642e-07
    337    338   2   0.50000     0.0600000   -0.5000000   3.205360e-04  1.719281e-07
    309    339   2   0.50000    -0.1200000    0.1950000   1.015252e-03  1.866303e-06
    309    360   2   0.50000    -0.1200000    0.3000000   1.995577e-06  1.069504e-11
    311    339   2   0.50000    -0.5000000    0.1950000   1.095425e-03  1.218041e-06
    311    360   2   0.50000    -0.5000000    0.3000000   2.153164e-06  6.980110e-12
    310    340   2   0.50000     0.5000000   -0.1150000   1.692561e-03  3.993218e-06
    310    361   2   0.50000     0.5000000    0.0600000   3.869820e-04  3.188634e-07
    310    362   2   0.50000     0.5000000    0.0600000   3.869820e-04  3.188634e-07
    360    340   2   0.50000     0.3000000   -0.1150000   2.144502e-06  1.199282e-11
    360    361   2   0.50000     0.3000000    0.0600000   4.903125e-07  9.576416e-13
    360    362   2   0.50000     0.3000000    0.0600000   4.903125e-07  9.576416e-13
    338    341   2   0.50000    -0.5000000   -0.1150000   1.401943e-03  2.153106e-06
    338    345   2   0.50000    -0.5000000   -0.1150000   1.401943e-03  2.153106e-06
    361    341   2   0.50000     0.0600000   -0.1150000   2.680627e-04  1.873879e-07
    361    345   2   0.50000     0.0600000   -0.1150000   2.680627e-04  1.873879e-07
    362    341   2   0.50000     0.0600000   -0.1150000   2.680627e-04  1.873879e-07
    362    345   2   0.50000     0.0600000   -0.1150000   2.680627e-04  1.873879e-07
    339    342   2   0.50000     0.1950000   -0.1150000   1.091018e-03  2.092768e-06
    339    363   2   0.50000     0.1950000    0.1150000   2.262583e-04  1.374848e-07
    345    342   2   0.50000    -0.1150000   -0.1150000   1.172438e-03  2.346713e-06
    345    363   2   0.50000    -0.1150000    0.1150000   2.431434e-04  1.541678e-07
    339    344   2   0.50000     0.1950000   -0.1150000   1.091018e-03  2.092768e-06
    339    346   2   0.50000     0.1950000    0.1950000   1.015252e-03  1.866303e-06
    341    344   2   0.50000    -0.1150000   -0.1150000   1.172438e-03  2.346713e-06
    341    346   2   0.50000    -0.1150000    0.1950000   1.091018e-03  2.092768e-06
    340    343   2   0.50000    -0.1150000   -0.1150000   1.172438e-03  2.346713e-06
    340    364   2   0.50000    -0.1150000    0.1150000   2.431434e-04  1.541678e-07
    363    343   2   0.50000     0.1150000   -0.1150000   2.431434e-04  1.541678e-07
    363    364   2   0.50000     0.1150000    0.1150000   5.042375e-05  1.012808e-08
    341    365   2   0.50000    -0.1150000    0.1150000   2.431434e-04  1.541678e-07
    364    344   2   0.50000     0.1150000   -0.1150000   2.431434e-04  1.541678e-07
    364    365   2   0.50000     0.1150000    0.1150000   5.042375e-05  1.012808e-08
    342    366   2   0.50000    -0.1150000    0.1150000   2.431434e-04  1.541678e-07
    365    345   2   0.50000     0.1150000   -0.1150000   2.431434e-04  1.541678e-07
    365    366   2   0.50000     0.1150000    0.1150000   5.042375e-05  1.012808e-08
    343    346   2   0.50000    -0.1150000    0.1950000   1.091018e-03  2.092768e-06
    366    340   2   0.50000     0.1150000   -0.1150000   2.431434e-04  1.541678e-07
    366    346   2   0.50000     0.1150000    0.1950000   2.262583e-04  1.374848e-07
    340    347   2   0.50000    -0.1150000   -0.5000000   1.401943e-03  2.153106e-06
    340    367   2   0.50000    -0.1150000    0.0600000   2.680627e-04  1.873879e-07
    340    368   2   0.50000    -0.1150000    0.0600000   2.680627e-04  1.873879e-07
    344    347   2   0.50000    -0.1150000   -0.5000000   1.401943e-03  2.153106e-06
    344    367   2   0.50000    -0.1150000    0.0600000   2.680627e-04  1.873879e-07
    344    368   2   0.50000    -0.1150000    0.0600000   2.680627e-04  1.873879e-07
    345    348   2   0.50000    -0.1150000    0.5000000   1.692561e-03  3.993218e-06
    345    369   2   0.50000    -0.1150000    0.3000000   2.144502e-06  1.199282e-11
    367    348   2   0.50000     0.0600000    0.5000000   3.869820e-04  3.188634e-07
    367    369   2   0.50000     0.0600000    0.3000000   4.903125e-07  9.576416e-13
    368    348   2   0.50000     0.0600000    0.5000000   3.869820e-04  3.188634e-07
    368    369   2   0.50000     0.0600000    0.3000000   4.903125e-07  9.576416e-13
    346    349   2   0.50000     0.1950000   -0.5000000   1.095425e-03  1.218041e-06
    346    350   2   0.50000     0.1950000   -0.1200000   1.015252e-03  1.866303e-06
    369    349   2   0.50000     0.3000000   -0.5000000   2.153164e-06  6.980110e-12
    369    350   2   0.50000     0.3000000   -0.1200000   1.995577e-06  1.069504e-11
    347    351   2   0.50000    -0.5000000   -0.1200000   1.304585e-03  1.920112e-06
    347    370   2   0.50000    -0.5000000    0.0600000   3.205360e-04  1.719281e-07
    347    371   2   0.50000    -0.5000000    0.0600000   3.205360e-04  1.719281e-07
    349    351   2   0.50000    -0.5000000   -0.1200000   1.095425e-03  1.218041e-06
    349    370   2   0.50000    -0.5000000    0.0600000   2.691455e-04  1.090642e-07
    349    371   2   0.50000    -0.5000000    0.0600000   2.691455e-04  1.090642e-07
    348    352   2   0.50000     0.5000000   -0.1200000   1.575021e-03  3.561100e-06
    348    372   2   0.50000     0.5000000    0.0600000   3.869820e-04  3.188634e-07
    348    373   2   0.50000     0.5000000    0.0600000   3.869820e-04  3.188634e-07
    370    352   2   0.50000     0.0600000   -0.1200000   2.494471e-04  1.671101e-07
    370    372   2   0.50000     0.0600000    0.0600000   6.128906e-05  1.496315e-08
    370    373   2   0.50000     0.0600000    0.0600000   6.128906e-05  1.496315e-08
    371    352   2   0.50000     0.0600000   -0.1200000   2.494471e-04  1.671101e-07
    371    372   2   0.50000     0.0600000    0.0600000   6.128906e-05  1.496315e-08
    371    373   2   0.50000     0.0600000    0.0600000   6.128906e-05  1.496315e-08
    350    353   2   0.50000    -0.1200000   -0.1200000   1.015252e-03  1.866303e-06
    350    374   2   0.50000    -0.1200000    0.0600000   2.494471e-04  1.671101e-07
    350    375   2   0.50000    -0.1200000    0.0600000   2.494471e-04  1.671101e-07
    372    353   2   0.50000     0.0600000   -0.1200000   2.494471e-04  1.671101e-07
    372    374   2   0.50000     0.0600000    0.0600000   6.128906e-05  1.496315e-08
    372    375   2   0.50000     0.0600000    0.0600000   6.128906e-05  1.496315e-08
    373    353   2   0.50000     0.0600000   -0.1200000   2.494471e-04  1.671101e-07
    373    374   2   0.50000     0.0600000    0.0600000   6.128906e-05  1.496315e-08
    373    375   2   0.50000     0.0600000    0.0600000   6.128906e-05  1.496315e-08
    351    354   2   0.50000    -0.1200000   -0.1200000   1.015252e-03  1.866303e-06
    351    376   2   0.50000    -0.1200000    0.0600000   2.494471e-04  1.671101e-07
    351    377   2   0.50000    -0.1200000    0.0600000   2.494471e-04  1.671101e-07
    374    354   2   0.50000     0.0600000   -0.1200000   2.494471e-04  1.671101e-07
    374    376   2   0.50000     0.0600000    0.0600000   6.128906e-05  1.496315e-08
    374    377   2   0.50000     0.0600000    0.0600000   6.128906e-05  1.496315e-08
    375    354   2   0.50000     0.0600000   -0.1200000   2.494471e-04  1.671101e-07
    375    376   2   0.50000     0.0600000    0.0600000   6.128906e-05  1.496315e-08
    375    377   2   0.50000     0.0600000    0.0600000   6.128906e-05  1.496315e-08
    352    355   2   0.50000    -0.1200000   -0.1200000   1.015252e-03  1.866303e-06
    352    378   2   0.50000    -0.1200000    0.0600000   2.494471e-04  1.671101e-07
    352    379   2   0.50000    -0.1200000    0.0600000   2.494471e-04  1.671101e-07
    376    355   2   0.50000     0.0600000   -0.1200000   2.494471e-04  1.671101e-07
    376    378   2   0.50000     0.0600000    0.0600000   6.128906e-05  1.496315e-08
    376    379   2   0.50000     0.0600000    0.0600000   6.128906e-05  1.496315e-08
    377    355   2   0.50000     0.0600000   -0.1200000   2.494471e-04  1.671101e-07
    377    378   2   0.50000     0.0600000    0.0600000   6.128906e-05  1.496315e-08
    377    379   2   0.50000     0.0600000    0.0600000   6.128906e-05  1.496315e-08
    353    356   2   0.50000    -0.1200000   -0.1200000   1.015252e-03  1.866303e-06
    353    380   2   0.50000    -0.1200000    0.0600000   2.494471e-04  1.671101e-07
    353    381   2   0.50000    -0.1200000    0.0600000   2.494471e-04  1.671101e-07
    378    356   2   0.50000     0.0600000   -0.1200000   2.494471e-04  1.671101e-07
    378    380   2   0.50000     0.0600000    0.0600000   6.128906e-05  1.496315e-08
    378    381   2   0.50000     0.0600000    0.0600000   6.128906e-05  1.496315e-08
    379    356   2   0.50000     0.0600000   -0.1200000   2.494471e-04  1.671101e-07
    379    380   2   0.50000     0.0600000    0.0600000   6.128906e-05  1.496315e-08
    379    381   2   0.50000     0.0600000    0.0600000   6.128906e-05  1.496315e-08
    354    357   2   0.50000    -0.1200000   -0.1200000   1.015252e-03  1.866303e-06
    354    382   2   0.50000    -0.1200000    0.0600000   2.494471e-04  1.671101e-07
    354    383   2   0.50000    -0.1200000    0.0600000   2.494471e-04  1.671101e-07
    380    357   2   0.50000     0.0600000   -0.1200000   2.494471e-04  1.671101e-07
    380    382   2   0.50000     0.0600000    0.0600000   6.128906e-05  1.496315e-08
    380    383   2   0.50000     0.0600000    0.0600000   6.128906e-05  1.496315e-08
    381    357   2   0.50000     0.0600000   -0.1200000   2.494471e-04  1.671101e-07
    381    382   2   0.50000     0.0600000    0.0600000   6.128906e-05  1.496315e-08
    381    383   2   0.50000     0.0600000    0.0600000   6.128906e-05  1.496315e-08
    355    358   2   0.50000    -0.1200000    0.5000000   1.575021e-03  3.561100e-06
    355    384   2   0.50000    -0.1200000    0.0600000   2.494471e-04  1.671101e-07
    355    385   2   0.50000    -0.1200000    0.0600000   2.494471e-04  1.671101e-07
    382    358   2   0.50000     0.0600000    0.5000000   3.869820e-04  3.188634e-07
    382    384   2   0.50000     0.0600000    0.0600000   6.128906e-05  1.496315e-08
    382    385   2   0.50000     0.0600000    0.0600000   6.128906e-05  1.496315e-08
    383    358   2   0.50000     0.0600000    0.5000000   3.869820e-04  3.188634e-07
    383    384   2   0.50000     0.0600000    0.0600000   6.128906e-05  1.496315e-08
    383    385   2   0.50000     0.0600000    0.0600000   6.128906e-05  1.496315e-08
    356    359   2   0.50000    -0.1200000   -0.5000000   1.095425e-03  1.218041e-06
    356    386   2   0.50000    -0.1200000   -0.5000000   1.304585e-03  1.920112e-06
    384    359   2   0.50000     0.0600000   -0.5000000   2.691455e-04  1.090642e-07
    384    386   2   0.50000     0.0600000   -0.5000000   3.205360e-04  1.719281e-07
    385    359   2   0.50000     0.0600000   -0.5000000   2.691455e-04  1.090642e-07
    385    386   2   0.50000     0.0600000   -0.5000000   3.205360e-04  1.719281e-07
    357    387   2   0.50000    -0.1200000    0.1950000   1.015252e-03  1.866303e-06
    357    408   2   0.50000    -0.1200000    0.3000000   1.995577e-06  1.069504e-11
    359    387   2   0.50000    -0.5000000    0.1950000   1.095425e-03  1.218041e-06
    359    408   2   0.50000    -0.5000000    0.3000000   2.153164e-06  6.980110e-12
    358    388   2   0.50000     0.5000000   -0.1150000   1.692561e-03  3.993218e-06
    358    409   2   0.50000     0.5000000    0.0600000   3.869820e-04  3.188634e-07
    358    410   2   0.50000     0.5000000    0.0600000   3.869820e-04  3.188634e-07
    408    388   2   0.50000     0.3000000   -0.1150000   2.144502e-06  1.199282e-11
    408    409   2   0.50000     0.3000000    0.0600000   4.903125e-07  9.576416e-13
    408    410   2   0.50000     0.3000000    0.0600000   4.903125e-07  9.576416e-13
    386    389   2   0.50000    -0.5000000   -0.1150000   1.401943e-03  2.153106e-06
    386    393   2   0.50000    -0.5000000   -0.1150000   1.401943e-03  2.153106e-06
    409    389   2   0.50000     0.0600000   -0.1150000   2.680627e-04  1.873879e-07
    409    393   2   0.50000     0.0600000   -0.1150000   2.680627e-04  1.873879e-07
    410    389   2   0.50000     0.0600000   -0.1150000   2.680627e-04  1.873879e-07
    410    393   2   0.50000     0.0600000   -0.1150000   2.680627e-04  1.873879e-07
    387    390   2   0.50000     0.1950000   -0.1150000   1.091018e-03  2.092768e-06
    387    411   2   0.50000     0.1950000    0.1150000   2.262583e-04  1.374848e-07
    393    390   2   0.50000    -0.1150000   -0.1150000   1.172438e-03  2.346713e-06
    393    411   2   0.50000    -0.1150000    0.1150000   2.431434e-04  1.541678e-07
    387    392   2   0.50000     0.1950000   -0.1150000   1.091018e-03  2.092768e-06
    387    394   2   0.50000     0.1950000    0.1950000   1.015252e-03  1.866303e-06
    389    392   2   0.50000    -0.1150000   -0.1150000   1.172438e-03  2.346713e-06
    389    394   2   0.50000    -0.1150000    0.1950000   1.091018e-03  2.092768e-06
    388    391   2   0.50000    -0.1150000   -0.1150000   1.172438e-03  2.346713e-06
    388    412   2   0.50000    -0.1150000    0.1150000   2.431434e-04  1.541678e-07
    411    391   2   0.50000     0.1150000   -0.1150000   2.431434e-04  1.541678e-07
    411    412   2   0.50000     0.1150000    0.1150000   5.042375e-05  1.012808e-08
    389    413   2   0.50000    -0.1150000    0.1150000   2.431434e-04  1.541678e-07
    412    392   2   0.50000     0.1150000   -0.1150000   2.431434e-04  1.541678e-07
    412    413   2   0.50000     0.1150000    0.1150000   5.042375e-05  1.012808e-08
    390    414   2   0.50000    -0.1150000    0.1150000   2.431434e-04  1.541678e-07
    413    393   2   0.50000     0.1150000   -0.1150000   2.431434e-04  1.541678e-07
    413    414   2   0.50000     0.1150000    0.1150000   5.042375e-05  1.012808e-08
    391    394   2   0.50000    -0.1150000    0.1950000   1.091018e-03  2.092768e-06
    414    388   2   0.50000     0.1150000   -0.1150000   2.431434e-04  1.541678e-07
    414    394   2   0.50000     0.1150000    0.1950000   2.262583e-04  1.374848e-07
    388    395   2   0.50000    -0.1150000   -0.5000000   1.401943e-03  2.153106e-06
    388    415   2   0.50000    -0.1150000    0.0600000   2.680627e-04  1.873879e-07
    388    416   2   0.50000    -0.1150000    0.0600000   2.680627e-04  1.873879e-07
    392    395   2   0.50000    -0.1150000   -0.5000000   1.401943e-03  2.153106e-06
    392    415   2   0.50000    -0.1150000    0.0600000   2.680627e-04  1.873879e-07
    392    416   2   0.50000    -0.1150000    0.0600000   2.680627e-04  1.873879e-07
    393    396   2   0.50000    -0.1150000    0.5000000   1.692561e-03  3.993218e-06
    393    417   2   0.50000    -0.1150000    0.3000000   2.144502e-06  1.199282e-11
    415    396   2   0.50000     0.0600000    0.5000000   3.869820e-04  3.188634e-07
    415    417   2   0.50000     0.0600000    0.3000000   4.903125e-07  9.576416e-13
    416    396   2   0.50000     0.0600000    0.5000000   3.869820e-04  3.188634e-07
    416    417   2   0.50000     0.0600000    0.3000000   4.903125e-07  9.576416e-13
    394    397   2   0.50000     0.1950000   -0.5000000   1.095425e-03  1.218041e-06
    394    398   2   0.50000     0.1950000   -0.1200000   1.015252e-03  1.866303e-06
    417    397   2   0.50000     0.3000000   -0.5000000   2.153164e-06  6.980110e-12
    417    398   2   0.50000     0.3000000   -0.1200000   1.995577e-06  1.069504e-11
    395    399   2   0.50000    -0.5000000   -0.1200000   1.304585e-03  1.920112e-06
    395    418   2   0.50000    -0.5000000    0.0600000   3.205360e-04  1.719281e-07
    395    419   2   0.50000    -0.5000000    0.0600000   3.205360e-04  1.719281e-07
    397    399   2   0.50000    -0.5000000   -0.1200000   1.095425e-03  1.218041e-06
    397    418   2   0.50000    -0.5000000    0.0600000   2.691455e-04  1.090642e-07
    397    419   2   0.50000    -0.5000000    0.0600000   2.691455e-04  1.090642e-07
    396    400   2   0.50000     0.5000000   -0.1200000   1.575021e-03  3.561100e-06
    396    420   2   0.50000     0.5000000    0.0600000   3.869820e-04  3.188634e-07
    396    421   2   0.50000     0.5000000    0.0600000   3.869820e-04  3.188634e-07
    418    400   2   0.50000     0.0600000   -0.1200000   2.494471e-04  1.671101e-07
    418    420   2   0.50000     0.0600000    0.0600000   6.128906e-05  1.496315e-08
    418    421   2   0.50000     0.0600000    0.0600000   6.128906e-05  1.496315e-08
    419    400   2   0.50000     0.0600000   -0.1200000   2.494471e-04  1.671101e-07
    419    420   2   0.50000     0.0600000    0.0600000   6.128906e-05  1.496315e-08
    419    421   2   0.50000     0.0600000    0.0600000   6.128906e-05  1.496315e-08
    398    401   2   0.50000    -0.1200000   -0.1200000   1.015252e-03  1.866303e-06
    398    422   2   0.50000    -0.1200000    0.0600000   2.494471e-04  1.671101e-07
    398    423   2   0.50000    -0.1200000    0.0600000   2.494471e-04  1.671101e-07
    420    401   2   0.50000     0.0600000   -0.1200000   2.494471e-04  1.671101e-07
    420    422   2   0.50000     0.0600000    0.0600000   6.128906e-05  1.496315e-08
    420    423   2   0.50000     0.0600000    0.0600000   6.128906e-05  1.496315e-08
    421    401   2   0.50000     0.0600000   -0.1200000   2.494471e-04  1.671101e-07
    421    422   2   0.50000     0.0600000    0.0600000   6.128906e-05  1.496315e-08
    421    423   2   0.50000     0.0600000    0.0600000   6.128906e-05  1.496315e-08
    399    402   2   0.50000    -0.1200000   -0.1200000   1.015252e-03  1.866303e-06
    399    424   2   0.50000    -0.1200000    0.0600000   2.494471e-04  1.671101e-07
    399    425   2   0.50000    -0.1200000    0.0600000   2.494471e-04  1.671101e-07
    422    402   2   0.50000     0.0600000   -0.1200000   2.494471e-04  1.671101e-07
    422    424   2   0.50000     0.0600000    0.0600000   6.128906e-05  1.496315e-08
    422    425   2   0.50000     0.0600000    0.0600000   6.128906e-05  1.496315e-08
    423    402   2   0.50000     0.0600000   -0.1200000   2.494471e-04  1.671101e-07
    423    424   2   0.50000     0.0600000    0.0600000   6.128906e-05  1.496315e-08
    423    425   2   0.50000     0.0600000    0.0600000   6.128906e-05  1.496315e-08
    400    403   2   0.50000    -0.1200000   -0.1200000   1.015252e-03  1.866303e-06
    400    426   2   0.50000    -0.1200000    0.0600000   2.494471e-04  1.671101e-07
    400    427   2   0.50000    -0.1200000    0.0600000   2.494471e-04  1.671101e-07
    424    403   2   0.50000     0.0600000   -0.1200000   2.494471e-04  1.671101e-07
    424    426   2   0.50000     0.0600000    0.0600000   6.128906e-05  1.496315e-08
    424    427   2   0.50000     0.0600000    0.0600000   6.128906e-05  1.496315e-08
    425    403   2   0.50000     0.0600000   -0.1200000   2.494471e-04  1.671101e-07
    425    426   2   0.50000     0.0600000    0.0600000   6.128906e-05  1.496315e-08
    425    427   2   0.50000     0.0600000    0.0600000   6.128906e-05  1.496315e-08
    401    404   2   0.50000    -0.1200000   -0.1200000   1.015252e-03  1.866303e-06
    401    428   2   0.50000    -0.1200000    0.0600000   2.494471e-04  1.671101e-07
    401    429   2   0.50000    -0.1200000    0.0600000   2.494471e-04  1.671101e-07
    426    404   2   0.50000     0.0600000   -0.1200000   2.494471e-04  1.671101e-07
    426    428   2   0.50000     0.0600000    0.0600000   6.128906e-05  1.496315e-08
    426    429   2   0.50000     0.0600000    0.0600000   6.128906e-05  1.496315e-08
    427    404   2   0.50000     0.0600000   -0.1200000   2.494471e-04  1.671101e-07
    427    428   2   0.50000     0.0600000    0.0600000   6.128906e-05  1.496315e-08
    427    429   2   0.50000     0.0600000    0.0600000   6.128906e-05  1.496315e-08
    402    405   2   0.50000    -0.1200000   -0.1200000   1.015252e-03  1.866303e-06
    402    430   2   0.50000    -0.1200000    0.0600000   2.494471e-04  1.671101e-07
    402    431   2   0.50000    -0.1200000    0.0600000   2.494471e-04  1.671101e-07
    428    405   2   0.50000     0.0600000   -0.1200000   2.494471e-04  1.671101e-07
    428    430   2   0.50000     0.0600000    0.0600000   6.128906e-05  1.496315e-08
    428    431   2   0.50000     0.0600000    0.0600000   6.128906e-05  1.496315e-08
    429    405   2   0.50000     0.0600000   -0.1200000   2.494471e-04  1.671101e-07
    429    430   2   0.50000     0.0600000    0.0600000   6.128906e-05  1.496315e-08
    429    431   2   0.50000     0.0600000    0.0600000   6.128906e-05  1.496315e-08
    403    406   2   0.50000    -0.1200000    0.5000000   1.575021e-03  3.561100e-06
    403    432   2   0.50000    -0.1200000    0.0600000   2.494471e-04  1.671101e-07
    403    433   2   0.50000    -0.1200000    0.0600000   2.494471e-04  1.671101e-07
    430    406   2   0.50000     0.0600000    0.5000000   3.869820e-04  3.188634e-07
    430    432   2   0.50000     0.0600000    0.0600000   6.128906e-05  1.496315e-08
    430    433   2   0.50000     0.0600000    0.0600000   6.128906e-05  1.496315e-08
    431    406   2   0.50000     0.0600000    0.5000000   3.869820e-04  3.188634e-07
    431    432   2   0.50000     0.0600000    0.0600000   6.128906e-05  1.496315e-08
    431    433   2   0.50000     0.0600000    0.0600000   6.128906e-05  1.496315e-08
    404    407   2   0.50000    -0.1200000   -0.5000000   1.095425e-03  1.218041e-06
    404    434   2   0.50000    -0.1200000   -0.5000000   1.304585e-03  1.920112e-06
    432    407   2   0.50000     0.0600000   -0.5000000   2.691455e-04  1.090642e-07
    432    434   2   0.50000     0.0600000   -0.5000000   3.205360e-04  1.719281e-07
    433    407   2   0.50000     0.0600000   -0.5000000   2.691455e-04  1.090642e-07
    433    434   2   0.50000     0.0600000   -0.5000000   3.205360e-04  1.719281e-07
    405    435   2   0.50000    -0.1200000    0.1950000   1.015252e-03  1.866303e-06
    405    456   2   0.50000    -0.1200000    0.3000000   1.995577e-06  1.069504e-11
    407    435   2   0.50000    -0.5000000    0.1950000   1.095425e-03  1.218041e-06
    407    456   2   0.50000    -0.5000000    0.3000000   2.153164e-06  6.980110e-12
    406    436   2   0.50000     0.5000000   -0.1150000   1.692561e-03  3.993218e-06
    406    457   2   0.50000     0.5000000    0.0600000   3.869820e-04  3.188634e-07
    406    458   2   0.50000     0.5000000    0.0600000   3.869820e-04  3.188634e-07
    456    436   2   0.50000     0.3000000   -0.1150000   2.144502e-06  1.199282e-11
    456    457   2   0.50000     0.3000000    0.0600000   4.903125e-07  9.576416e-13
    456    458   2   0.50000     0.3000000    0.0600000   4.903125e-07  9.576416e-13
    434    437   2   0.50000    -0.5000000   -0.1150000   1.401943e-03  2.153106e-06
    434    441   2   0.50000    -0.5000000   -0.1150000   1.401943e-03  2.153106e-06
    457    437   2   0.50000     0.0600000   -0.1150000   2.680627e-04  1.873879e-07
    457    441   2   0.50000     0.0600000   -0.1150000   2.680627e-04  1.873879e-07
    458    437   2   0.50000     0.0600000   -0.1150000   2.680627e-04  1.873879e-07
    458    441   2   0.50000     0.0600000   -0.1150000   2.680627e-04  1.873879e-07
    435    438   2   0.50000     0.1950000   -0.1150000   1.091018e-03  2.092768e-06
    435    459   2   0.50000     0.1950000    0.1150000   2.262583e-04  1.374848e-07
    441    438   2   0.50000    -0.1150000   -0.1150000   1.172438e-03  2.346713e-06
    441    459   2   0.50000    -0.1150000    0.1150000   2.431434e-04  1.541678e-07
    435    440   2   0.50000     0.1950000   -0.1150000   1.091018e-03  2.092768e-06
    435    442   2   0.50000     0.1950000    0.1950000   1.015252e-03  1.866303e-06
    437    440   2   0.50000    -0.1150000   -0.1150000   1.172438e-03  2.346713e-06
    437    442   2   0.50000    -0.1150000    0.1950000   1.091018e-03  2.092768e-06
    436    439   2   0.50000    -0.1150000   -0.1150000   1.172438e-03  2.346713e-06
    436    460   2   0.50000    -0.1150000    0.1150000   2.431434e-04  1.541678e-07
    459    439   2   0.50000     0.1150000   -0.1150000   2.431434e-04  1.541678e-07
    459    460   2   0.50000     0.1150000    0.1150000   5.042375e-05  1.012808e-08
    437    461   2   0.50000    -0.1150000    0.1150000   2.431434e-04  1.541678e-07
    460    440   2   0.50000     0.1150000   -0.1150000   2.431434e-04  1.541678e-07
    460    461   2   0.50000     0.1150000    0.1150000   5.042375e-05  1.012808e-08
    438    462   2   0.50000    -0.1150000    0.1150000   2.431434e-04  1.541678e-07
    461    441   2   0.50000     0.1150000   -0.1150000   2.431434e-04  1.541678e-07
    461    462   2   0.50000     0.1150000    0.1150000   5.042375e-05  1.012808e-08
    439    442   2   0.50000    -0.1150000    0.1950000   1.091018e-03  2.092768e-06
    462    436   2   0.50000     0.1150000   -0.1150000   2.431434e-04  1.541678e-07
    462    442   2   0.50000     0.1150000    0.1950000   2.262583e-04  1.374848e-07
    436    443   2   0.50000    -0.1150000   -0.5000000   1.401943e-03  2.153106e-06
    436    463   2   0.50000    -0.1150000    0.0600000   2.680627e-04  1.873879e-07
    436    464   2   0.50000    -0.1150000    0.0600000   2.680627e-04  1.873879e-07
    440    443   2   0.50000    -0.1150000   -0.5000000   1.401943e-03  2.153106e-06
    440    463   2   0.50000    -0.1150000    0.0600000   2.680627e-04  1.873879e-07
    440    464   2   0.50000    -0.1150000    0.0600000   2.680627e-04  1.873879e-07
    441    444   2   0.50000    -0.1150000    0.5000000   1.692561e-03  3.993218e-06
    441    465   2   0.50000    -0.1150000    0.3000000   2.144502e-06  1.199282e-11
    463    444   2   0.50000     0.0600000    0.5000000   3.869820e-04  3.188634e-07
    463    465   2   0.50000     0.0600000    0.3000000   4.903125e-07  9.576416e-13
    464    444   2   0.50000     0.0600000    0.5000000   3.869820e-04  3.188634e-07
    464    465   2   0.50000     0.0600000    0.3000000   4.903125e-07  9.576416e-13
    442    445   2   0.50000     0.1950000   -0.5000000   1.095425e-03  1.218041e-06
    442    446   2   0.50000     0.1950000   -0.1200000   1.015252e-03  1.866303e-06
    465    445   2   0.50000     0.3000000   -0.5000000   2.153164e-06  6.980110e-12
    465    446   2   0.50000     0.3000000   -0.1200000   1.995577e-06  1.069504e-11
    443    447   2   0.50000    -0.5000000   -0.1200000   1.304585e-03  1.920112e-06
    443    466   2   0.50000    -0.5000000    0.0600000   3.205360e-04  1.719281e-07
    443    467   2   0.50000    -0.5000000    0.0600000   3.205360e-04  1.719281e-07
    445    447   2   0.50000    -0.5000000   -0.1200000   1.095425e-03  1.218041e-06
    445    466   2   0.50000    -0.5000000    0.0600000   2.691455e-04  1.090642e-07
    445    467   2   0.50000    -0.5000000    0.0600000   2.691455e-04  1.090642e-07
    444    448   2   0.50000     0.5000000   -0.1200000   1.575021e-03  3.561100e-06
    444    468   2   0.50000     0.5000000    0.0600000   3.869820e-04  3.188634e-07
    444    469   2   0.50000     0.5000000    0.0600000   3.869820e-04  3.188634e-07
    466    448   2   0.50000     0.0600000   -0.1200000   2.494471e-04  1.671101e-07
    466    468   2   0.50000     0.0600000    0.0600000   6.128906e-05  1.496315e-08
    466    469   2   0.50000     0.0600000    0.0600000   6.128906e-05  1.496315e-08
    467    448   2   0.50000     0.0600000   -0.1200000   2.494471e-04  1.671101e-07
    467    468   2   0.50000     0.0600000    0.0600000   6.128906e-05  1.496315e-08
    467    469   2   0.50000     0.0600000    0.0600000   6.128906e-05  1.496315e-08
    446    449   2   0.50000    -0.1200000   -0.1200000   1.015252e-03  1.866303e-06
    446    470   2   0.50000    -0.1200000    0.0600000   2.494471e-04  1.671101e-07
    446    471   2   0.50000    -0.1200000    0.0600000   2.494471e-04  1.671101e-07
    468    449   2   0.50000     0.0600000   -0.1200000   2.494471e-04  1.671101e-07
    468    470   2   0.50000     0.0600000    0.0600000   6.128906e-05  1.496315e-08
    468    471   2   0.50000     0.0600000    0.0600000   6.128906e-05  1.496315e-08
    469    449   2   0.50000     0.0600000   -0.1200000   2.494471e-04  1.671101e-07
    469    470   2   0.50000     0.0600000    0.0600000   6.128906e-05  1.496315e-08
    469    471   2   0.50000     0.0600000    0.0600000   6.128906e-05  1.496315e-08
    447    450   2   0.50000    -0.1200000   -0.1200000   1.015252e-03  1.866303e-06
    447    472   2   0.50000    -0.1200000    0.0600000   2.494471e-04  1.671101e-07
    447    473   2   0.50000    -0.1200000    0.0600000   2.494471e-04  1.671101e-07
    470    450   2   0.50000     0.0600000   -0.1200000   2.494471e-04  1.671101e-07
    470    472   2   0.50000     0.0600000    0.0600000   6.128906e-05  1.496315e-08
    470    473   2   0.50000     0.0600000    0.0600000   6.128906e-05  1.496315e-08
    471    450   2   0.50000     0.0600000   -0.1200000   2.494471e-04  1.671101e-07
    471    472   2   0.50000     0.0600000    0.0600000   6.128906e-05  1.496315e-08
    471    473   2   0.50000     0.0600000    0.0600000   6.128906e-05  1.496315e-08
    448    451   2   0.50000    -0.1200000   -0.1200000   1.015252e-03  1.866303e-06
    448    474   2   0.50000    -0.1200000    0.0600000   2.494471e-04  1.671101e-07
    448    475   2   0.50000    -0.1200000    0.0600000   2.494471e-04  1.671101e-07
    472    451   2   0.50000     0.0600000   -0.1200000   2.494471e-04  1.671101e-07
    472    474   2   0.50000     0.0600000    0.0600000   6.128906e-05  1.496315e-08
    472    475   2   0.50000     0.0600000    0.0600000   6.128906e-05  1.496315e-08
    473    451   2   0.50000     0.0600000   -0.1200000   2.494471e-04  1.671101e-07
    473    474   2   0.50000     0.0600000    0.0600000   6.128906e-05  1.496315e-08
    473    475   2   0.50000     0.0600000    0.0600000   6.128906e-05  1.496315e-08
    449    452   2   0.50000    -0.1200000   -0.1200000   1.015252e-03  1.866303e-06
    449    476   2   0.50000    -0.1200000    0.0600000   2.494471e-04  1.671101e-07
    449    477   2   0.50000    -0.1200000    0.0600000   2.494471e-04  1.671101e-07
    474    452   2   0.50000     0.0600000   -0.1200000   2.494471e-04  1.671101e-07
    474    476   2   0.50000     0.0600000    0.0600000   6.128906e-05  1.496315e-08
    474    477   2   0.50000     0.0600000    0.0600000   6.128906e-05  1.496315e-08
    475    452   2   0.50000     0.0600000   -0.1200000   2.494471e-04  1.671101e-07
    475    476   2   0.50000     0.0600000    0.0600000   6.128906e-05  1.496315e-08
    475    477   2   0.50000     0.0600000    0.0600000   6.128906e-05  1.496315e-08
    450    453   2   0.50000    -0.1200000   -0.1200000   1.015252e-03  1.866303e-06
    450    478   2   0.50000    -0.1200000    0.0600000   2.494471e-04  1.671101e-07
    450    479   2   0.50000    -0.1200000    0.0600000   2.494471e-04  1.671101e-07
    476    453   2   0.50000     0.0600000   -0.1200000   2.494471e-04  1.671101e-07
    476    478   2   0.50000     0.0600000    0.0600000   6.128906e-05  1.496315e-08
    476    479   2   0.50000     0.0600000    0.0600000   6.128906e-05  1.496315e-08
    477    453   2   0.50000     0.0600000   -0.1200000   2.494471e-04  1.671101e-07
    477    478   2   0.50000     0.0600000    0.0600000   6.128906e-05  1.496315e-08
    477    479   2   0.50000     0.0600000    0.0600000   6.128906e-05  1.496315e-08
    451    454   2   0.50000    -0.1200000    0.5000000   1.575021e-03  3.561100e-06
    451    480   2   0.50000    -0.1200000    0.0600000   2.494471e-04  1.671101e-07
    451    481   2   0.50000    -0.1200000    0.0600000   2.494471e-04  1.671101e-07
    478    454   2   0.50000     0.0600000    0.5000000   3.869820e-04  3.188634e-07
    478    480   2   0.50000     0.0600000    0.0600000   6.128906e-05  1.496315e-08
    478    481   2   0.50000     0.0600000    0.0600000   6.128906e-05  1.496315e-08
    479    454   2   0.50000     0.0600000    0.5000000   3.869820e-04  3.188634e-07
    479    480   2   0.50000     0.0600000    0.0600000   6.128906e-05  1.496315e-08
    479    481   2   0.50000     0.0600000    0.0600000   6.128906e-05  1.496315e-08
    452    455   2   0.50000    -0.1200000   -0.5000000   1.095425e-03  1.218041e-06
    452    482   2   0.50000    -0.1200000   -0.5000000   1.304585e-03  1.920112e-06
    480    455   2   0.50000     0.0600000   -0.5000000   2.691455e-04  1.090642e-07
    480    482   2   0.50000     0.0600000   -0.5000000   3.205360e-04  1.719281e-07
    481    455   2   0.50000     0.0600000   -0.5000000   2.691455e-04  1.090642e-07
    481    482   2   0.50000     0.0600000   -0.5000000   3.205360e-04  1.719281e-07
    453    483   2   0.50000    -0.1200000    0.1950000   1.015252e-03  1.866303e-06
    453    504   2   0.50000    -0.1200000    0.3000000   1.995577e-06  1.069504e-11
    455    483   2   0.50000    -0.5000000    0.1950000   1.095425e-03  1.218041e-06
    455    504   2   0.50000    -0.5000000    0.3000000   2.153164e-06  6.980110e-12
    454    484   2   0.50000     0.5000000   -0.1150000   1.692561e-03  3.993218e-06
    454    505   2   0.50000     0.5000000    0.0600000   3.869820e-04  3.188634e-07
    454    506   2   0.50000     0.5000000    0.0600000   3.869820e-04  3.188634e-07
    504    484   2   0.50000     0.3000000   -0.1150000   2.144502e-06  1.199282e-11
    504    505   2   0.50000     0.3000000    0.0600000   4.903125e-07  9.576416e-13
    504    506   2   0.50000     0.3000000    0.0600000   4.903125e-07  9.576416e-13
    482    485   2   0.50000    -0.5000000   -0.1150000   1.401943e-03  2.153106e-06
    482    489   2   0.50000    -0.5000000   -0.1150000   1.401943e-03  2.153106e-06
    505    485   2   0.50000     0.0600000   -0.1150000   2.680627e-04  1.873879e-07
    505    489   2   0.50000     0.0600000   -0.1150000   2.680627e-04  1.873879e-07
    506    485   2   0.50000     0.0600000   -0.1150000   2.680627e-04  1.873879e-07
    506    489   2   0.50000     0.0600000   -0.1150000   2.680627e-04  1.873879e-07
    483    486   2   0.50000     0.1950000   -0.1150000   1.091018e-03  2.092768e-06
    483    507   2   0.50000     0.1950000    0.1150000   2.262583e-04  1.374848e-07
    489    486   2   0.50000    -0.1150000   -0.1150000   1.172438e-03  2.346713e-06
    489    507   2   0.50000    -0.1150000    0.1150000   2.431434e-04  1.541678e-07
    483    488   2   0.50000     0.1950000   -0.1150000   1.091018e-03  2.092768e-06
    483    490   2   0.50000     0.1950000    0.1950000   1.015252e-03  1.866303e-06
    485    488   2   0.50000    -0.1150000   -0.1150000   1.172438e-03  2.346713e-06
    485    490   2   0.50000    -0.1150000    0.1950000   1.091018e-03  2.092768e-06
    484    487   2   0.50000    -0.1150000   -0.1150000   1.172438e-03  2.346713e-06
    484    508   2   0.50000    -0.1150000    0.1150000   2.431434e-04  1.541678e-07
    507    487   2   0.50000     0.1150000   -0.1150000   2.431434e-04  1.541678e-07
    507    508   2   0.50000     0.1150000    0.1150000   5.042375e-05  1.012808e-08
    485    509   2   0.50000    -0.1150000    0.1150000   2.431434e-04  1.541678e-07
    508    488   2   0.50000     0.1150000   -0.1150000   2.431434e-04  1.541678e-07
    508    509   2   0.50000     0.1150000    0.1150000   5.042375e-05  1.012808e-08
    486    510   2   0.50000    -0.1150000    0.1150000   2.431434e-04  1.541678e-07
    509    489   2   0.50000     0.1150000   -0.1150000   2.431434e-04  1.541678e-07
    509    510   2   0.50000     0.1150000    0.1150000   5.042375e-05  1.012808e-08
    487    490   2   0.50000    -0.1150000    0.1950000   1.091018e-03  2.092768e-06
    510    484   2   0.50000     0.1150000   -0.1150000   2.431434e-04  1.541678e-07
    510    490   2   0.50000     0.1150000    0.1950000   2.262583e-04  1.374848e-07
    484    491   2   0.50000    -0.1150000   -0.5000000   1.401943e-03  2.153106e-06
    484    511   2   0.50000    -0.1150000    0.0600000   2.680627e-04  1.873879e-07
    484    512   2   0.50000    -0.1150000    0.0600000   2.680627e-04  1.873879e-07
    488    491   2   0.50000    -0.1150000   -0.5000000   1.401943e-03  2.153106e-06
    488    511   2   0.50000    -0.1150000    0.0600000   2.680627e-04  1.873879e-07
    488    512   2   0.50000    -0.1150000    0.0600000   2.680627e-04  1.873879e-07
    489    492   2   0.50000    -0.1150000    0.5000000   1.692561e-03  3.993218e-06
    489    513   2   0.50000    -0.1150000    0.3000000   2.144502e-06  1.199282e-11
    511    492   2   0.50000     0.0600000    0.5000000   3.869820e-04  3.188634e-07
    511    513   2   0.50000     0.0600000    0.3000000   4.903125e-07  9.576416e-13
    512    492   2   0.50000     0.0600000    0.5000000   3.869820e-04  3.188634e-07
    512    513   2   0.50000     0.0600000    0.3000000   4.903125e-07  9.576416e-13
    490    493   2   0.50000     0.1950000   -0.5000000   1.095425e-03  1.218041e-06
    490    494   2   0.50000     0.1950000   -0.1200000   1.015252e-03  1.866303e-06
    513    493   2   0.50000     0.3000000   -0.5000000   2.153164e-06  6.980110e-12
    513    494   2   0.50000     0.3000000   -0.1200000   1.995577e-06  1.069504e-11
    491    495   2   0.50000    -0.5000000   -0.1200000   1.304585e-03  1.920112e-06
    491    514   2   0.50000    -0.5000000    0.0600000   3.205360e-04  1.719281e-07
    491    515   2   0.50000    -0.5000000    0.0600000   3.205360e-04  1.719281e-07
    493    495   2   0.50000    -0.5000000   -0.1200000   1.095425e-03  1.218041e-06
    493    514   2   0.50000    -0.5000000    0.0600000   2.691455e-04  1.090642e-07
    493    515   2   0.50000    -0.5000000    0.0600000   2.691455e-04  1.090642e-07
    492    496   2   0.50000     0.5000000   -0.1200000   1.575021e-03  3.561100e-06
    492    516   2   0.50000     0.5000000    0.0600000   3.869820e-04  3.188634e-07
    492    517   2   0.50000     0.5000000    0.0600000   3.869820e-04  3.188634e-07
    514    496   2   0.50000     0.0600000   -0.1200000   2.494471e-04  1.671101e-07
    514    516   2   0.50000     0.0600000    0.0600000   6.128906e-05  1.496315e-08
    514    517   2   0.50000     0.0600000    0.0600000   6.128906e-05  1.496315e-08
    515    496   2   0.50000     0.0600000   -0.1200000   2.494471e-04  1.671101e-07
    515    516   2   0.50000     0.0600000    0.0600000   6.128906e-05  1.496315e-08
    515    517   2   0.50000     0.0600000    0.0600000   6.128906e-05  1.496315e-08
    494    497   2   0.50000    -0.1200000   -0.1200000   1.015252e-03  1.866303e-06
    494    518   2   0.50000    -0.1200000    0.0600000   2.494471e-04  1.671101e-07
    494    519   2   0.50000    -0.1200000    0.0600000   2.494471e-04  1.671101e-07
    516    497   2   0.50000     0.0600000   -0.1200000   2.494471e-04  1.671101e-07
    516    518   2   0.50000     0.0600000    0.0600000   6.128906e-05  1.496315e-08
    516    519   2   0.50000     0.0600000    0.0600000   6.128906e-05  1.496315e-08
    517    497   2   0.50000     0.0600000   -0.1200000   2.494471e-04  1.671101e-07
    517    518   2   0.50000     0.0600000    0.0600000   6.128906e-05  1.496315e-08
    517    519   2   0.50000     0.0600000    0.0600000   6.128906e-05  1.496315e-08
    495    498   2   0.50000    -0.1200000   -0.1200000   1.015252e-03  1.866303e-06
    495    520   2   0.50000    -0.1200000    0.0600000   2.494471e-04  1.671101e-07
    495    521   2   0.50000    -0.1200000    0.0600000   2.494471e-04  1.671101e-07
    518    498   2   0.50000     0.0600000   -0.1200000   2.494471e-04  1.671101e-07
    518    520   2   0.50000     0.0600000    0.0600000   6.128906e-05  1.496315e-08
    518    521   2   0.50000     0.0600000    0.0600000   6.128906e-05  1.496315e-08
    519    498   2   0.50000     0.0600000   -0.1200000   2.494471e-04  1.671101e-07
    519    520   2   0.50000     0.0600000    0.0600000   6.128906e-05  1.496315e-08
    519    521   2   0.50000     0.0600000    0.0600000   6.128906e-05  1.496315e-08
    496    499   2   0.50000    -0.1200000   -0.1200000   1.015252e-03  1.866303e-06
    496    522   2   0.50000    -0.1200000    0.0600000   2.494471e-04  1.671101e-07
    496    523   2   0.50000    -0.1200000    0.0600000   2.494471e-04  1.671101e-07
    520    499   2   0.50000     0.0600000   -0.1200000   2.494471e-04  1.671101e-07
    520    522   2   0.50000     0.0600000    0.0600000   6.128906e-05  1.496315e-08
    520    523   2   0.50000     0.0600000    0.0600000   6.128906e-05  1.496315e-08
    521    499   2   0.50000     0.0600000   -0.1200000   2.494471e-04  1.671101e-07
    521    522   2   0.50000     0.0600000    0.0600000   6.128906e-05  1.496315e-08
    521    523   2   0.50000     0.0600000    0.0600000   6.128906e-05  1.496315e-08
    497    500   2   0.50000    -0.1200000   -0.1200000   1.015252e-03  1.866303e-06
    497    524   2   0.50000    -0.1200000    0.0600000   2.494471e-04  1.671101e-07
    497    525   2   0.50000    -0.1200000    0.0600000   2.494471e-04  1.671101e-07
    522    500   2   0.50000     0.0600000   -0.1200000   2.494471e-04  1.671101e-07
    522    524   2   0.50000     0.0600000    0.0600000   6.128906e-05  1.496315e-08
    522    525   2   0.50000     0.0600000    0.0600000   6.128906e-05  1.496315e-08
    523    500   2   0.50000     0.0600000   -0.1200000   2.494471e-04  1.671101e-07
    523    524   2   0.50000     0.0600000    0.0600000   6.128906e-05  1.496315e-08
    523    525   2   0.50000     0.0600000    0.0600000   6.128906e-05  1.496315e-08
    498    501   2   0.50000    -0.1200000   -0.1200000   1.015252e-03  1.866303e-06
    498    526   2   0.50000    -0.1200000    0.0600000   2.494471e-04  1.671101e-07
    498    527   2   0.50000    -0.1200000    0.0600000   2.494471e-04  1.671101e-07
    524    501   2   0.50000     0.0600000   -0.1200000   2.494471e-04  1.671101e-07
    524    526   2   0.50000     0.0600000    0.0600000   6.128906e-05  1.496315e-08
    524    527   2   0.50000     0.0600000    0.0600000   6.128906e-05  1.496315e-08
    525    501   2   0.50000     0.0600000   -0.1200000   2.494471e-04  1.671101e-07
    525    526   2   0.50000     0.0600000    0.0600000   6.128906e-05  1.496315e-08
    525    527   2   0.50000     0.0600000    0.0600000   6.128906e-05  1.496315e-08
    499    502   2   0.50000    -0.1200000    0.5000000   1.575021e-03  3.561100e-06
    499    528   2   0.50000    -0.1200000    0.0600000   2.494471e-04  1.671101e-07
    499    529   2   0.50000    -0.1200000    0.0600000   2.494471e-04  1.671101e-07
    526    502   2   0.50000     0.0600000    0.5000000   3.869820e-04  3.188634e-07
    526    528   2   0.50000     0.0600000    0.0600000   6.128906e-05  1.496315e-08
    526    529   2   0.50000     0.0600000    0.0600000   6.128906e-05  1.496315e-08
    527    502   2   0.50000     0.0600000    0.5000000   3.869820e-04  3.188634e-07
    527    528   2   0.50000     0.0600000    0.0600000   6.128906e-05  1.496315e-08
    527    529   2   0.50000     0.0600000    0.0600000   6.128906e-05  1.496315e-08
    500    503   2   0.50000    -0.1200000   -0.5000000   1.095425e-03  1.218041e-06
    500    530   2   0.50000    -0.1200000   -0.5000000   1.304585e-03  1.920112e-06
    528    503   2   0.50000     0.0600000   -0.5000000   2.691455e-04  1.090642e-07
    528    530   2   0.50000     0.0600000   -0.5000000   3.205360e-04  1.719281e-07
    529    503   2   0.50000     0.0600000   -0.5000000   2.691455e-04  1.090642e-07
    529    530   2   0.50000     0.0600000   -0.5000000   3.205360e-04  1.719281e-07
    501    531   2   0.50000    -0.1200000    0.1950000   1.015252e-03  1.866303e-06
    501    552   2   0.50000    -0.1200000    0.3000000   1.995577e-06  1.069504e-11
    503    531   2   0.50000    -0.5000000    0.1950000   1.095425e-03  1.218041e-06
    503    552   2   0.50000    -0.5000000    0.3000000   2.153164e-06  6.980110e-12
    502    532   2   0.50000     0.5000000   -0.1150000   1.692561e-03  3.993218e-06
    502    553   2   0.50000     0.5000000    0.0600000   3.869820e-04  3.188634e-07
    502    554   2   0.50000     0.5000000    0.0600000   3.869820e-04  3.188634e-07
    552    532   2   0.50000     0.3000000   -0.1150000   2.144502e-06  1.199282e-11
    552    553   2   0.50000     0.3000000    0.0600000   4.903125e-07  9.576416e-13
    552    554   2   0.50000     0.3000000    0.0600000   4.903125e-07  9.576416e-13
    530    533   2   0.50000    -0.5000000   -0.1150000   1.401943e-03  2.153106e-06
    530    537   2   0.50000    -0.5000000   -0.1150000   1.401943e-03  2.153106e-06
    553    533   2   0.50000     0.0600000   -0.1150000   2.680627e-04  1.873879e-07
    553    537   2   0.50000     0.0600000   -0.1150000   2.680627e-04  1.873879e-07
    554    533   2   0.50000     0.0600000   -0.1150000   2.680627e-04  1.873879e-07
    554    537   2   0.50000     0.0600000   -0.1150000   2.680627e-04  1.873879e-07
    531    534   2   0.50000     0.1950000   -0.1150000   1.091018e-03  2.092768e-06
    531    555   2   0.50000     0.1950000    0.1150000   2.262583e-04  1.374848e-07
    537    534   2   0.50000    -0.1150000   -0.1150000   1.172438e-03  2.346713e-06
    537    555   2   0.50000    -0.1150000    0.1150000   2.431434e-04  1.541678e-07
    531    536   2   0.50000     0.1950000   -0.1150000   1.091018e-03  2.092768e-06
    531    538   2   0.50000     0.1950000    0.1950000   1.015252e-03  1.866303e-06
    533    536   2   0.50000    -0.1150000   -0.1150000   1.172438e-03  2.346713e-06
    533    538   2   0.50000    -0.1150000    0.1950000   1.091018e-03  2.092768e-06
    532    535   2   0.50000    -0.1150000   -0.1150000   1.172438e-03  2.346713e-06
    532    556   2   0.50000    -0.1150000    0.1150000   2.431434e-04  1.541678e-07
    555    535   2   0.50000     0.1150000   -0.1150000   2.431434e-04  1.541678e-07
    555    556   2   0.50000     0.1150000    0.1150000   5.042375e-05  1.012808e-08
    533    557   2   0.50000    -0.1150000    0.1150000   2.431434e-04  1.541678e-07
    556    536   2   0.50000     0.1150000   -0.1150000   2.431434e-04  1.541678e-07
    556    557   2   0.50000     0.1150000    0.1150000   5.042375e-05  1.012808e-08
    534    558   2   0.50000    -0.1150000    0.1150000   2.431434e-04  1.541678e-07
    557    537   2   0.50000     0.1150000   -0.1150000   2.431434e-04  1.541678e-07
    557    558   2   0.50000     0.1150000    0.1150000   5.042375e-05  1.012808e-08
    535    538   2   0.50000    -0.1150000    0.1950000   1.091018e-03  2.092768e-06
    558    532   2   0.50000     0.1150000   -0.1150000   2.431434e-04  1.541678e-07
    558    538   2   0.50000     0.1150000    0.1950000   2.262583e-04  1.374848e-07
    532    539   2   0.50000    -0.1150000   -0.5000000   1.401943e-03  2.153106e-06
    532    559   2   0.50000    -0.1150000    0.0600000   2.680627e-04  1.873879e-07
    532    560   2   0.50000    -0.1150000    0.0600000   2.680627e-04  1.873879e-07
    536    539   2   0.50000    -0.1150000   -0.5000000   1.401943e-03  2.153106e-06
    536    559   2   0.50000    -0.1150000    0.0600000   2.680627e-04  1.873879e-07
    536    560   2   0.50000    -0.1150000    0.0600000   2.680627e-04  1.873879e-07
    537    540   2   0.50000    -0.1150000    0.5000000   1.692561e-03  3.993218e-06
    537    561   2   0.50000    -0.1150000    0.3000000   2.144502e-06  1.199282e-11
    559    540   2   0.50000     0.0600000    0.5000000   3.869820e-04  3.188634e-07
    559    561   2   0.50000     0.0600000    0.3000000   4.903125e-07  9.576416e-13
    560    540   2   0.50000     0.0600000    0.5000000   3.869820e-04  3.188634e-07
    560    561   2   0.50000     0.0600000    0.3000000   4.903125e-07  9.576416e-13
    538    541   2   0.50000     0.1950000   -0.5000000   1.095425e-03  1.218041e-06
    538    542   2   0.50000     0.1950000   -0.1200000   1.015252e-03  1.866303e-06
    561    541   2   0.50000     0.3000000   -0.5000000   2.153164e-06  6.980110e-12
    561    542   2   0.50000     0.3000000   -0.1200000   1.995577e-06  1.069504e-11
    539    543   2   0.50000    -0.5000000   -0.1200000   1.304585e-03  1.920112e-06
    539    562   2   0.50000    -0.5000000    0.0600000   3.205360e-04  1.719281e-07
    539    563   2   0.50000    -0.5000000    0.0600000   3.205360e-04  1.719281e-07
    541    543   2   0.50000    -0.5000000   -0.1200000   1.095425e-03  1.218041e-06
    541    562   2   0.50000    -0.5000000    0.0600000   2.691455e-04  1.090642e-07
    541    563   2   0.50000    -0.5000000    0.0600000   2.691455e-04  1.090642e-07
    540    544   2   0.50000     0.5000000   -0.1200000   1.575021e-03  3.561100e-06
    540    564   2   0.50000     0.5000000    0.0600000   3.869820e-04  3.188634e-07
    540    565   2   0.50000     0.5000000    0.0600000   3.869820e-04  3.188634e-07
    562    544   2   0.50000     0.0600000   -0.1200000   2.494471e-04  1.671101e-07
    562    564   2   0.50000     0.0600000    0.0600000   6.128906e-05  1.496315e-08
    562    565   2   0.50000     0.0600000    0.0600000   6.128906e-05  1.496315e-08
    563    544   2   0.50000     0.0600000   -0.1200000   2.494471e-04  1.671101e-07
    563    564   2   0.50000     0.0600000    0.0600000   6.128906e-05  1.496315e-08
    563    565   2   0.50000     0.0600000    0.0600000   6.128906e-05  1.496315e-08
    542    545   2   0.50000    -0.1200000   -0.1200000   1.015252e-03  1.866303e-06
    542    566   2   0.50000    -0.1200000    0.0600000   2.494471e-04  1.671101e-07
    542    567   2   0.50000    -0.1200000    0.0600000   2.494471e-04  1.671101e-07
    564    545   2   0.50000     0.0600000   -0.1200000   2.494471e-04  1.671101e-07
    564    566   2   0.50000     0.0600000    0.0600000   6.128906e-05  1.496315e-08
    564    567   2   0.50000     0.0600000    0.0600000   6.128906e-05  1.496315e-08
    565    545   2   0.50000     0.0600000   -0.1200000   2.494471e-04  1.671101e-07
    565    566   2   0.50000     0.0600000    0.0600000   6.128906e-05  1.496315e-08
    565    567   2   0.50000     0.0600000    0.0600000   6.128906e-05  1.496315e-08
    543    546   2   0.50000    -0.1200000   -0.1200000   1.015252e-03  1.866303e-06
    543    568   2   0.50000    -0.1200000    0.0600000   2.494471e-04  1.671101e-07
    543    569   2   0.50000    -0.1200000    0.0600000   2.494471e-04  1.671101e-07
    566    546   2   0.50000     0.0600000   -0.1200000   2.494471e-04  1.671101e-07
    566    568   2   0.50000     0.0600000    0.0600000   6.128906e-05  1.496315e-08
    566    569   2   0.50000     0.0600000    0.0600000   6.128906e-05  1.496315e-08
    567    546   2   0.50000     0.0600000   -0.1200000   2.494471e-04  1.671101e-07
    567    568   2   0.50000     0.0600000    0.0600000   6.128906e-05  1.496315e-08
    567    569   2   0.50000     0.0600000    0.0600000   6.128906e-05  1.496315e-08
    544    547   2   0.50000    -0.1200000   -0.1200000   1.015252e-03  1.866303e-06
    544    570   2   0.50000    -0.1200000    0.0600000   2.494471e-04  1.671101e-07
    544    571   2   0.50000    -0.1200000    0.0600000   2.494471e-04  1.671101e-07
    568    547   2   0.50000     0.0600000   -0.1200000   2.494471e-04  1.671101e-07
    568    570   2   0.50000     0.0600000    0.0600000   6.128906e-05  1.496315e-08
    568    571   2   0.50000     0.0600000    0.0600000   6.128906e-05  1.496315e-08
    569    547   2   0.50000     0.0600000   -0.1200000   2.494471e-04  1.671101e-07
    569    570   2   0.50000     0.0600000    0.0600000   6.128906e-05  1.496315e-08
    569    571   2   0.50000     0.0600000    0.0600000   6.128906e-05  1.496315e-08
    545    548   2   0.50000    -0.1200000   -0.1200000   1.015252e-03  1.866303e-06
    545    572   2   0.50000    -0.1200000    0.0600000   2.494471e-04  1.671101e-07
    545    573   2   0.50000    -0.1200000    0.0600000   2.494471e-04  1.671101e-07
    570    548   2   0.50000     0.0600000   -0.1200000   2.494471e-04  1.671101e-07
    570    572   2   0.50000     0.0600000    0.0600000   6.128906e-05  1.496315e-08
    570    573   2   0.50000     0.0600000    0.0600000   6.128906e-05  1.496315e-08
    571    548   2   0.50000     0.0600000   -0.1200000   2.494471e-04  1.671101e-07
    571    572   2   0.50000     0.0600000    0.0600000   6.128906e-05  1.496315e-08
    571    573   2   0.50000     0.0600000    0.0600000   6.128906e-05  1.496315e-08
    546    549   2   0.50000    -0.1200000   -0.1200000   1.015252e-03  1.866303e-06
    546    574   2   0.50000    -0.1200000    0.0600000   2.494471e-04  1.671101e-07
    546    575   2   0.50000    -0.1200000    0.0600000   2.494471e-04  1.671101e-07
    572    549   2   0.50000     0.0600000   -0.1200000   2.494471e-04  1.671101e-07
    572    574   2   0.50000     0.0600000    0.0600000   6.128906e-05  1.496315e-08
    572    575   2   0.50000     0.0600000    0.0600000   6.128906e-05  1.496315e-08
    573    549   2   0.50000     0.0600000   -0.1200000   2.494471e-04  1.671101e-07
    573    574   2   0.50000     0.0600000    0.0600000   6.128906e-05  1.496315e-08
    573    575   2   0.50000     0.0600000    0.0600000   6.128906e-05  1.496315e-08
    547    550   2   0.50000    -0.1200000    0.5000000   1.575021e-03  3.561100e-06
    547    576   2   0.50000    -0.1200000    0.0600000   2.494471e-04  1.671101e-07
    547    577   2   0.50000    -0.1200000    0.0600000   2.494471e-04  1.671101e-07
    574    550   2   0.50000     0.0600000    0.5000000   3.869820e-04  3.188634e-07
    574    576   2   0.50000     0.0600000    0.0600000   6.128906e-05  1.496315e-08
    574    577   2   0.50000     0.0600000    0.0600000   6.128906e-05  1.496315e-08
    575    550   2   0.50000     0.0600000    0.5000000   3.869820e-04  3.188634e-07
    575    576   2   0.50000     0.0600000    0.0600000   6.128906e-05  1.496315e-08
    575    577   2   0.50000     0.0600000    0.0600000   6.128906e-05  1.496315e-08
    548    551   2   0.50000    -0.1200000   -0.5000000   1.095425e-03  1.218041e-06
    548    578   2   0.50000    -0.1200000   -0.5000000   1.304585e-03  1.920112e-06
    576    551   2   0.50000     0.0600000   -0.5000000   2.691455e-04  1.090642e-07
    576    578   2   0.50000     0.0600000   -0.5000000   3.205360e-04  1.719281e-07
    577    551   2   0.50000     0.0600000   -0.5000000   2.691455e-04  1.090642e-07
    577    578   2   0.50000     0.0600000   -0.5000000   3.205360e-04  1.719281e-07
    549    579   2   0.50000    -0.1200000    0.1950000   1.015252e-03  1.866303e-06
    549    600   2   0.50000    -0.1200000    0.3000000   1.995577e-06  1.069504e-11
    551    579   2   0.50000    -0.5000000    0.1950000   1.095425e-03  1.218041e-06
    551    600   2   0.50000    -0.5000000    0.3000000   2.153164e-06  6.980110e-12
    550    580   2   0.50000     0.5000000   -0.1150000   1.692561e-03  3.993218e-06
    550    601   2   0.50000     0.5000000    0.0600000   3.869820e-04  3.188634e-07
    550    602   2   0.50000     0.5000000    0.0600000   3.869820e-04  3.188634e-07
    600    580   2   0.50000     0.3000000   -0.1150000   2.144502e-06  1.199282e-11
    600    601   2   0.50000     0.3000000    0.0600000   4.903125e-07  9.576416e-13
    600    602   2   0.50000     0.3000000    0.0600000   4.903125e-07  9.576416e-13
    578    581   2   0.50000    -0.5000000   -0.1150000   1.401943e-03  2.153106e-06
    578    585   2   0.50000    -0.5000000   -0.1150000   1.401943e-03  2.153106e-06
    601    581   2   0.50000     0.0600000   -0.1150000   2.680627e-04  1.873879e-07
    601    585   2   0.50000     0.0600000   -0.1150000   2.680627e-04  1.873879e-07
    602    581   2   0.50000     0.0600000   -0.1150000   2.680627e-04  1.873879e-07
    602    585   2   0.50000     0.0600000   -0.1150000   2.680627e-04  1.873879e-07
    579    582   2   0.50000     0.1950000   -0.1150000   1.091018e-03  2.092768e-06
    579    603   2   0.50000     0.1950000    0.1150000   2.262583e-04  1.374848e-07
    585    582   2   0.50000    -0.1150000   -0.1150000   1.172438e-03  2.346713e-06
    585    603   2   0.50000    -0.1150000    0.1150000   2.431434e-04  1.541678e-07
    579    584   2   0.50000     0.1950000   -0.1150000   1.091018e-03  2.092768e-06
    579    586   2   0.50000     0.1950000    0.1950000   1.015252e-03  1.866303e-06
    581    584   2   0.50000    -0.1150000   -0.1150000   1.172438e-03  2.346713e-06
    581    586   2   0.50000    -0.1150000    0.1950000   1.091018e-03  2.092768e-06
    580    583   2   0.50000    -0.1150000   -0.1150000   1.172438e-03  2.346713e-06
    580    604   2   0.50000    -0.1150000    0.1150000   2.431434e-04  1.541678e-07
    603    583   2   0.50000     0.1150000   -0.1150000   2.431434e-04  1.541678e-07
    603    604   2   0.50000     0.1150000    0.1150000   5.042375e-05  1.012808e-08
    581    605   2   0.50000    -0.1150000    0.1150000   2.431434e-04  1.541678e-07
    604    584   2   0.50000     0.1150000   -0.1150000   2.431434e-04  1.541678e-07
    604    605   2   0.50000     0.1150000    0.1150000   5.042375e-05  1.012808e-08
    582    606   2   0.50000    -0.1150000    0.1150000   2.431434e-04  1.541678e-07
    605    585   2   0.50000     0.1150000   -0.1150000   2.431434e-04  1.541678e-07
    605    606   2   0.50000     0.1150000    0.1150000   5.042375e-05  1.012808e-08
    583    586   2   0.50000    -0.1150000    0.1950000   1.091018e-03  2.092768e-06
    606    580   2   0.50000     0.1150000   -0.1150000   2.431434e-04  1.541678e-07
    606    586   2   0.50000     0.1150000    0.1950000   2.262583e-04  1.374848e-07
    580    587   2   0.50000    -0.1150000   -0.5000000   1.401943e-03  2.153106e-06
    580    607   2   0.50000    -0.1150000    0.0600000   2.680627e-04  1.873879e-07
    580    608   2   0.50000    -0.1150000    0.0600000   2.680627e-04  1.873879e-07
    584    587   2   0.50000    -0.1150000   -0.5000000   1.401943e-03  2.153106e-06
    584    607   2   0.50000    -0.1150000    0.0600000   2.680627e-04  1.873879e-07
    584    608   2   0.50000    -0.1150000    0.0600000   2.680627e-04  1.873879e-07
    585    588   2   0.50000    -0.1150000    0.5000000   1.692561e-03  3.993218e-06
    585    609   2   0.50000    -0.1150000    0.3000000   2.144502e-06  1.199282e-11
    607    588   2   0.50000     0.0600000    0.5000000   3.869820e-04  3.188634e-07
    607    609   2   0.50000     0.0600000    0.3000000   4.903125e-07  9.576416e-13
    608    588   2   0.50000     0.0600000    0.5000000   3.869820e-04  3.188634e-07
    608    609   2   0.50000     0.0600000    0.3000000   4.903125e-07  9.576416e-13
    586    589   2   0.50000     0.1950000   -0.5000000   1.095425e-03  1.218041e-06
    586    590   2   0.50000     0.1950000   -0.1200000   1.015252e-03  1.866303e-06
    609    589   2   0.50000     0.3000000   -0.5000000   2.153164e-06  6.980110e-12
    609    590   2   0.50000     0.3000000   -0.1200000   1.995577e-06  1.069504e-11
    587    591   2   0.50000    -0.5000000   -0.1200000   1.304585e-03  1.920112e-06
    587    610   2   0.50000    -0.5000000    0.0600000   3.205360e-04  1.719281e-07
    587    611   2   0.50000    -0.5000000    0.0600000   3.205360e-04  1.719281e-07
    589    591   2   0.50000    -0.5000000   -0.1200000   1.095425e-03  1.218041e-06
    589    610   2   0.50000    -0.5000000    0.0600000   2.691455e-04  1.090642e-07
    589    611   2   0.50000    -0.5000000    0.0600000   2.691455e-04  1.090642e-07
    588    592   2   0.50000     0.5000000   -0.1200000   1.575021e-03  3.561100e-06
    588    612   2   0.50000     0.5000000    0.0600000   3.869820e-04  3.188634e-07
    588    613   2   0.50000     0.5000000    0.0600000   3.869820e-04  3.188634e-07
    610    592   2   0.50000     0.0600000   -0.1200000   2.494471e-04  1.671101e-07
    610    612   2   0.50000     0.0600000    0.0600000   6.128906e-05  1.496315e-08
    610    613   2   0.50000     0.0600000    0.0600000   6.128906e-05  1.496315e-08
    611    592   2   0.50000     0.0600000   -0.1200000   2.494471e-04  1.671101e-07
    611    612   2   0.50000     0.0600000    0.0600000   6.128906e-05  1.496315e-08
    611    613   2   0.50000     0.0600000    0.0600000   6.128906e-05  1.496315e-08
    590    593   2   0.50000    -0.1200000   -0.1200000   1.015252e-03  1.866303e-06
    590    614   2   0.50000    -0.1200000    0.0600000   2.494471e-04  1.671101e-07
    590    615   2   0.50000    -0.1200000    0.0600000   2.494471e-04  1.671101e-07
    612    593   2   0.50000     0.0600000   -0.1200000   2.494471e-04  1.671101e-07
    612    614   2   0.50000     0.0600000    0.0600000   6.128906e-05  1.496315e-08
    612    615   2   0.50000     0.0600000    0.0600000   6.128906e-05  1.496315e-08
    613    593   2   0.50000     0.0600000   -0.1200000   2.494471e-04  1.671101e-07
    613    614   2   0.50000     0.0600000    0.0600000   6.128906e-05  1.496315e-08
    613    615   2   0.50000     0.0600000    0.0600000   6.128906e-05  1.496315e-08
    591    594   2   0.50000    -0.1200000   -0.1200000   1.015252e-03  1.866303e-06
    591    616   2   0.50000    -0.1200000    0.0600000   2.494471e-04  1.671101e-07
    591    617   2   0.50000    -0.1200000    0.0600000   2.494471e-04  1.671101e-07
    614    594   2   0.50000     0.0600000   -0.1200000   2.494471e-04  1.671101e-07
    614    616   2   0.50000     0.0600000    0.0600000   6.128906e-05  1.496315e-08
    614    617   2   0.50000     0.0600000    0.0600000   6.128906e-05  1.496315e-08
    615    594   2   0.50000     0.0600000   -0.1200000   2.494471e-04  1.671101e-07
    615    616   2   0.50000     0.0600000    0.0600000   6.128906e-05  1.496315e-08
    615    617   2   0.50000     0.0600000    0.0600000   6.128906e-05  1.496315e-08
    592    595   2   0.50000    -0.1200000   -0.1200000   1.015252e-03  1.866303e-06
    592    618   2   0.50000    -0.1200000    0.0600000   2.494471e-04  1.671101e-07
    592    619   2   0.50000    -0.1200000    0.0600000   2.494471e-04  1.671101e-07
    616    595   2   0.50000     0.0600000   -0.1200000   2.494471e-04  1.671101e-07
    616    618   2   0.50000     0.0600000    0.0600000   6.128906e-05  1.496315e-08
    616    619   2   0.50000     0.0600000    0.0600000   6.128906e-05  1.496315e-08
    617    595   2   0.50000     0.0600000   -0.1200000   2.494471e-04  1.671101e-07
    617    618   2   0.50000     0.0600000    0.0600000   6.128906e-05  1.496315e-08
    617    619   2   0.50000     0.0600000    0.0600000   6.128906e-05  1.496315e-08
    593    596   2   0.50000    -0.1200000   -0.1200000   1.015252e-03  1.866303e-06
    593    620   2   0.50000    -0.1200000    0.0600000   2.494471e-04  1.671101e-07
    593    621   2   0.50000    -0.1200000    0.0600000   2.494471e-04  1.671101e-07
    618    596   2   0.50000     0.0600000   -0.1200000   2.494471e-04  1.671101e-07
    618    620   2   0.50000     0.0600000    0.0600000   6.128906e-05  1.496315e-08
    618    621   2   0.50000     0.0600000    0.0600000   6.128906e-05  1.496315e-08
    619    596   2   0.50000     0.0600000   -0.1200000   2.494471e-04  1.671101e-07
    619    620   2   0.50000     0.0600000    0.0600000   6.128906e-05  1.496315e-08
    619    621   2   0.50000     0.0600000    0.0600000   6.128906e-05  1.496315e-08
    594    597   2   0.50000    -0.1200000   -0.1200000   1.015252e-03  1.866303e-06
    594    622   2   0.50000    -0.1200000    0.0600000   2.494471e-04  1.671101e-07
    594    623   2   0.50000    -0.1200000    0.0600000   2.494471e-04  1.671101e-07
    620    597   2   0.50000     0.0600000   -0.1200000   2.494471e-04  1.671101e-07
    620    622   2   0.50000     0.0600000    0.0600000   6.128906e-05  1.496315e-08
    620    623   2   0.50000     0.0600000    0.0600000   6.128906e-05  1.496315e-08
    621    597   2   0.50000     0.0600000   -0.1200000   2.494471e-04  1.671101e-07
    621    622   2   0.50000     0.0600000    0.0600000   6.128906e-05  1.496315e-08
    621    623   2   0.50000     0.0600000    0.0600000   6.128906e-05  1.496315e-08
    595    598   2   0.50000    -0.1200000    0.5000000   1.575021e-03  3.561100e-06
    595    624   2   0.50000    -0.1200000    0.0600000   2.494471e-04  1.671101e-07
    595    625   2   0.50000    -0.1200000    0.0600000   2.494471e-04  1.671101e-07
    622    598   2   0.50000     0.0600000    0.5000000   3.869820e-04  3.188634e-07
    622    624   2   0.50000     0.0600000    0.0600000   6.128906e-05  1.496315e-08
    622    625   2   0.50000     0.0600000    0.0600000   6.128906e-05  1.496315e-08
    623    598   2   0.50000     0.0600000    0.5000000   3.869820e-04  3.188634e-07
    623    624   2   0.50000     0.0600000    0.0600000   6.128906e-05  1.496315e-08
    623    625   2   0.50000     0.0600000    0.0600000   6.128906e-05  1.496315e-08
    596    599   2   0.50000    -0.1200000   -0.5000000   1.095425e-03  1.218041e-06
    596    626   2   0.50000    -0.1200000   -0.5000000   1.304585e-03  1.920112e-06
    624    599   2   0.50000     0.0600000   -0.5000000   2.691455e-04  1.090642e-07
    624    626   2   0.50000     0.0600000   -0.5000000   3.205360e-04  1.719281e-07
    625    599   2   0.50000     0.0600000   -0.5000000   2.691455e-04  1.090642e-07
    625    626   2   0.50000     0.0600000   -0.5000000   3.205360e-04  1.719281e-07
    597    627   2   0.50000    -0.1200000    0.1950000   1.015252e-03  1.866303e-06
    597    648   2   0.50000    -0.1200000    0.3000000   1.995577e-06  1.069504e-11
    599    627   2   0.50000    -0.5000000    0.1950000   1.095425e-03  1.218041e-06
    599    648   2   0.50000    -0.5000000    0.3000000   2.153164e-06  6.980110e-12
    598    628   2   0.50000     0.5000000   -0.1150000   1.692561e-03  3.993218e-06
    598    649   2   0.50000     0.5000000    0.0600000   3.869820e-04  3.188634e-07
    598    650   2   0.50000     0.5000000    0.0600000   3.869820e-04  3.188634e-07
    648    628   2   0.50000     0.3000000   -0.1150000   2.144502e-06  1.199282e-11
    648    649   2   0.50000     0.3000000    0.0600000   4.903125e-07  9.576416e-13
    648    650   2   0.50000     0.3000000    0.0600000   4.903125e-07  9.576416e-13
    626    629   2   0.50000    -0.5000000   -0.1150000   1.401943e-03  2.153106e-06
    626    633   2   0.50000    -0.5000000   -0.1150000   1.401943e-03  2.153106e-06
    649    629   2   0.50000     0.0600000   -0.1150000   2.680627e-04  1.873879e-07
    649    633   2   0.50000     0.0600000   -0.1150000   2.680627e-04  1.873879e-07
    650    629   2   0.50000     0.0600000   -0.1150000   2.680627e-04  1.873879e-07
    650    633   2   0.50000     0.0600000   -0.1150000   2.680627e-04  1.873879e-07
    627    630   2   0.50000     0.1950000   -0.1150000   1.091018e-03  2.092768e-06
    627    651   2   0.50000     0.1950000    0.1150000   2.262583e-04  1.374848e-07
    633    630   2   0.50000    -0.1150000   -0.1150000   1.172438e-03  2.346713e-06
    633    651   2   0.50000    -0.1150000    0.1150000   2.431434e-04  1.541678e-07
    627    632   2   0.50000     0.1950000   -0.1150000   1.091018e-03  2.092768e-06
    627    634   2   0.50000     0.1950000    0.1950000   1.015252e-03  1.866303e-06
    629    632   2   0.50000    -0.1150000   -0.1150000   1.172438e-03  2.346713e-06
    629    634   2   0.50000    -0.1150000    0.1950000   1.091018e-03  2.092768e-06
    628    631   2   0.50000    -0.1150000   -0.1150000   1.172438e-03  2.346713e-06
    628    652   2   0.50000    -0.1150000    0.1150000   2.431434e-04  1.541678e-07
    651    631   2   0.50000     0.1150000   -0.1150000   2.431434e-04  1.541678e-07
    651    652   2   0.50000     0.1150000    0.1150000   5.042375e-05  1.012808e-08
    629    653   2   0.50000    -0.1150000    0.1150000   2.431434e-04  1.541678e-07
    652    632   2   0.50000     0.1150000   -0.1150000   2.431434e-04  1.541678e-07
    652    653   2   0.50000     0.1150000    0.1150000   5.042375e-05  1.012808e-08
    630    654   2   0.50000    -0.1150000    0.1150000   2.431434e-04  1.541678e-07
    653    633   2   0.50000     0.1150000   -0.1150000   2.431434e-04  1.541678e-07
    653    654   2   0.50000     0.1150000    0.1150000   5.042375e-05  1.012808e-08
    631    634   2   0.50000    -0.1150000    0.1950000   1.091018e-03  2.092768e-06
    654    628   2   0.50000     0.1150000   -0.1150000   2.431434e-04  1.541678e-07
    654    634   2   0.50000     0.1150000    0.1950000   2.262583e-04  1.374848e-07
    628    635   2   0.50000    -0.1150000   -0.5000000   1.401943e-03  2.153106e-06
    628    655   2   0.50000    -0.1150000    0.0600000   2.680627e-04  1.873879e-07
    628    656   2   0.50000    -0.1150000    0.0600000   2.680627e-04  1.873879e-07
    632    635   2   0.50000    -0.1150000   -0.5000000   1.401943e-03  2.153106e-06
    632    655   2   0.50000    -0.1150000    0.0600000   2.680627e-04  1.873879e-07
    632    656   2   0.50000    -0.1150000    0.0600000   2.680627e-04  1.873879e-07
    633    636   2   0.50000    -0.1150000    0.5000000   1.692561e-03  3.993218e-06
    633    657   2   0.50000    -0.1150000    0.3000000   2.144502e-06  1.199282e-11
    655    636   2   0.50000     0.0600000    0.5000000   3.869820e-04  3.188634e-07
    655    657   2   0.50000     0.0600000    0.3000000   4.903125e-07  9.576416e-13
    656    636   2   0.50000     0.0600000    0.5000000   3.869820e-04  3.188634e-07
    656    657   2   0.50000     0.0600000    0.3000000   4.903125e-07  9.576416e-13
    634    637   2   0.50000     0.1950000   -0.5000000   1.095425e-03  1.218041e-06
    634    638   2   0.50000     0.1950000   -0.1200000   1.015252e-03  1.866303e-06
    657    637   2   0.50000     0.3000000   -0.5000000   2.153164e-06  6.980110e-12
    657    638   2   0.50000     0.3000000   -0.1200000   1.995577e-06  1.069504e-11
    635    639   2   0.50000    -0.5000000   -0.1200000   1.304585e-03  1.920112e-06
    635    658   2   0.50000    -0.5000000    0.0600000   3.205360e-04  1.719281e-07
    635    659   2   0.50000    -0.5000000    0.0600000   3.205360e-04  1.719281e-07
    637    639   2   0.50000    -0.5000000   -0.1200000   1.095425e-03  1.218041e-06
    637    658   2   0.50000    -0.5000000    0.0600000   2.691455e-04  1.090642e-07
    637    659   2   0.50000    -0.5000000    0.0600000   2.691455e-04  1.090642e-07
    636    640   2   0.50000     0.5000000   -0.1200000   1.575021e-03  3.561100e-06
    636    660   2   0.50000     0.5000000    0.0600000   3.869820e-04  3.188634e-07
    636    661   2   0.50000     0.5000000    0.0600000   3.869820e-04  3.188634e-07
    658    640   2   0.50000     0.0600000   -0.1200000   2.494471e-04  1.671101e-07
    658    660   2   0.50000     0.0600000    0.0600000   6.128906e-05  1.496315e-08
    658    661   2   0.50000     0.0600000    0.0600000   6.128906e-05  1.496315e-08
    659    640   2   0.50000     0.0600000   -0.1200000   2.494471e-04  1.671101e-07
    659    660   2   0.50000     0.0600000    0.0600000   6.128906e-05  1.496315e-08
    659    661   2   0.50000     0.0600000    0.0600000   6.128906e-05  1.496315e-08
    638    641   2   0.50000    -0.1200000   -0.1200000   1.015252e-03  1.866303e-06
    638    662   2   0.50000    -0.1200000    0.0600000   2.494471e-04  1.671101e-07
    638    663   2   0.50000    -0.1200000    0.0600000   2.494471e-04  1.671101e-07
    660    641   2   0.50000     0.0600000   -0.1200000   2.494471e-04  1.671101e-07
    660    662   2   0.50000     0.0600000    0.0600000   6.128906e-05  1.496315e-08
    660    663   2   0.50000     0.0600000    0.0600000   6.128906e-05  1.496315e-08
    661    641   2   0.50000     0.0600000   -0.1200000   2.494471e-04  1.671101e-07
    661    662   2   0.50000     0.0600000    0.0600000   6.128906e-05  1.496315e-08
    661    663   2   0.50000     0.0600000    0.0600000   6.128906e-05  1.496315e-08
    639    642   2   0.50000    -0.1200000   -0.1200000   1.015252e-03  1.866303e-06
    639    664   2   0.50000    -0.1200000    0.0600000   2.494471e-04  1.671101e-07
    639    665   2   0.50000    -0.1200000    0.0600000   2.494471e-04  1.671101e-07
    662    642   2   0.50000     0.0600000   -0.1200000   2.494471e-04  1.671101e-07
    662    664   2   0.50000     0.0600000    0.0600000   6.128906e-05  1.496315e-08
    662    665   2   0.50000     0.0600000    0.0600000   6.128906e-05  1.496315e-08
    663    642   2   0.50000     0.0600000   -0.1200000   2.494471e-04  1.671101e-07
    663    664   2   0.50000     0.0600000    0.0600000   6.128906e-05  1.496315e-08
    663    665   2   0.50000     0.0600000    0.0600000   6.128906e-05  1.496315e-08
    640    643   2   0.50000    -0.1200000   -0.1200000   1.015252e-03  1.866303e-06
    640    666   2   0.50000    -0.1200000    0.0600000   2.494471e-04  1.671101e-07
    640    667   2   0.50000    -0.1200000    0.0600000   2.494471e-04  1.671101e-07
    664    643   2   0.50000     0.0600000   -0.1200000   2.494471e-04  1.671101e-07
    664    666   2   0.50000     0.0600000    0.0600000   6.128906e-05  1.496315e-08
    664    667   2   0.50000     0.0600000    0.0600000   6.128906e-05  1.496315e-08
    665    643   2   0.50000     0.0600000   -0.1200000   2.494471e-04  1.671101e-07
    665    666   2   0.50000     0.0600000    0.0600000   6.128906e-05  1.496315e-08
    665    667   2   0.50000     0.0600000    0.0600000   6.128906e-05  1.496315e-08
    641    644   2   0.50000    -0.1200000   -0.1200000   1.015252e-03  1.866303e-06
    641    668   2   0.50000    -0.1200000    0.0600000   2.494471e-04  1.671101e-07
    641    669   2   0.50000    -0.1200000    0.0600000   2.494471e-04  1.671101e-07
    666    644   2   0.50000     0.0600000   -0.1200000   2.494471e-04  1.671101e-07
    666    668   2   0.50000     0.0600000    0.0600000   6.128906e-05  1.496315e-08
    666    669   2   0.50000     0.0600000    0.0600000   6.128906e-05  1.496315e-08
    667    644   2   0.50000     0.0600000   -0.1200000   2.494471e-04  1.671101e-07
    667    668   2   0.50000     0.0600000    0.0600000   6.128906e-05  1.496315e-08
    667    669   2   0.50000     0.0600000    0.0600000   6.128906e-05  1.496315e-08
    642    645   2   0.50000    -0.1200000   -0.1200000   1.015252e-03  1.866303e-06
    642    670   2   0.50000    -0.1200000    0.0600000   2.494471e-04  1.671101e-07
    642    671   2   0.50000    -0.1200000    0.0600000   2.494471e-04  1.671101e-07
    668    645   2   0.50000     0.0600000   -0.1200000   2.494471e-04  1.671101e-07
    668    670   2   0.50000     0.0600000    0.0600000   6.128906e-05  1.496315e-08
    668    671   2   0.50000     0.0600000    0.0600000   6.128906e-05  1.496315e-08
    669    645   2   0.50000     0.0600000   -0.1200000   2.494471e-04  1.671101e-07
    669    670   2   0.50000     0.0600000    0.0600000   6.128906e-05  1.496315e-08
    669    671   2   0.50000     0.0600000    0.0600000   6.128906e-05  1.496315e-08
    643    646   2   0.50000    -0.1200000    0.5000000   1.575021e-03  3.561100e-06
    643    672   2   0.50000    -0.1200000    0.0600000   2.494471e-04  1.671101e-07
    643    673   2   0.50000    -0.1200000    0.0600000   2.494471e-04  1.671101e-07
    670    646   2   0.50000     0.0600000    0.5000000   3.869820e-04  3.188634e-07
    670    672   2   0.50000     0.0600000    0.0600000   6.128906e-05  1.496315e-08
    670    673   2   0.50000     0.0600000    0.0600000   6.128906e-05  1.496315e-08
    671    646   2   0.50000     0.0600000    0.5000000   3.869820e-04  3.188634e-07
    671    672   2   0.50000     0.0600000    0.0600000   6.128906e-05  1.496315e-08
    671    673   2   0.50000     0.0600000    0.0600000   6.128906e-05  1.496315e-08
    644    647   2   0.50000    -0.1200000   -0.5000000   1.095425e-03  1.218041e-06
    644    674   2   0.50000    -0.1200000   -0.5000000   1.304585e-03  1.920112e-06
    672    647   2   0.50000     0.0600000   -0.5000000   2.691455e-04  1.090642e-07
    672    674   2   0.50000     0.0600000   -0.5000000   3.205360e-04  1.719281e-07
    673    647   2   0.50000     0.0600000   -0.5000000   2.691455e-04  1.090642e-07
    673    674   2   0.50000     0.0600000   -0.5000000   3.205360e-04  1.719281e-07
    645    675   2   0.50000    -0.1200000    0.1950000   1.015252e-03  1.866303e-06
    645    696   2   0.50000    -0.1200000    0.3000000   1.995577e-06  1.069504e-11
    647    675   2   0.50000    -0.5000000    0.1950000   1.095425e-03  1.218041e-06
    647    696   2   0.50000    -0.5000000    0.3000000   2.153164e-06  6.980110e-12
    646    676   2   0.50000     0.5000000   -0.1150000   1.692561e-03  3.993218e-06
    646    697   2   0.50000     0.5000000    0.0600000   3.869820e-04  3.188634e-07
    646    698   2   0.50000     0.5000000    0.0600000   3.869820e-04  3.188634e-07
    696    676   2   0.50000     0.3000000   -0.1150000   2.144502e-06  1.199282e-11
    696    697   2   0.50000     0.3000000    0.0600000   4.903125e-07  9.576416e-13
    696    698   2   0.50000     0.3000000    0.0600000   4.903125e-07  9.576416e-13
    674    677   2   0.50000    -0.5000000   -0.1150000   1.401943e-03  2.153106e-06
    674    681   2   0.50000    -0.5000000   -0.1150000   1.401943e-03  2.153106e-06
    697    677   2   0.50000     0.0600000   -0.1150000   2.680627e-04  1.873879e-07
    697    681   2   0.50000     0.0600000   -0.1150000   2.680627e-04  1.873879e-07
    698    677   2   0.50000     0.0600000   -0.1150000   2.680627e-04  1.873879e-07
    698    681   2   0.50000     0.0600000   -0.1150000   2.680627e-04  1.873879e-07
    675    678   2   0.50000     0.1950000   -0.1150000   1.091018e-03  2.092768e-06
    675    699   2   0.50000     0.1950000    0.1150000   2.262583e-04  1.374848e-07
    681    678   2   0.50000    -0.1150000   -0.1150000   1.172438e-03  2.346713e-06
    681    699   2   0.50000    -0.1150000    0.1150000   2.431434e-04  1.541678e-07
    675    680   2   0.50000     0.1950000   -0.1150000   1.091018e-03  2.092768e-06
    675    682   2   0.50000     0.1950000    0.1950000   1.015252e-03  1.866303e-06
    677    680   2   0.50000    -0.1150000   -0.1150000   1.172438e-03  2.346713e-06
    677    682   2   0.50000    -0.1150000    0.1950000   1.091018e-03  2.092768e-06
    676    679   2   0.50000    -0.1150000   -0.1150000   1.172438e-03  2.346713e-06
    676    700   2   0.50000    -0.1150000    0.1150000   2.431434e-04  1.541678e-07
    699    679   2   0.50000     0.1150000   -0.1150000   2.431434e-04  1.541678e-07
    699    700   2   0.50000     0.1150000    0.1150000   5.042375e-05  1.012808e-08
    677    701   2   0.50000    -0.1150000    0.1150000   2.431434e-04  1.541678e-07
    700    680   2   0.50000     0.1150000   -0.1150000   2.431434e-04  1.541678e-07
    700    701   2   0.50000     0.1150000    0.1150000   5.042375e-05  1.012808e-08
    678    702   2   0.50000    -0.1150000    0.1150000   2.431434e-04  1.541678e-07
    701    681   2   0.50000     0.1150000   -0.1150000   2.431434e-04  1.541678e-07
    701    702   2   0.50000     0.1150000    0.1150000   5.042375e-05  1.012808e-08
    679    682   2   0.50000    -0.1150000    0.1950000   1.091018e-03  2.092768e-06
    702    676   2   0.50000     0.1150000   -0.1150000   2.431434e-04  1.541678e-07
    702    682   2   0.50000     0.1150000    0.1950000   2.262583e-04  1.374848e-07
    676    683   2   0.50000    -0.1150000   -0.5000000   1.401943e-03  2.153106e-06
    676    703   2   0.50000    -0.1150000    0.0600000   2.680627e-04  1.873879e-07
    676    704   2   0.50000    -0.1150000    0.0600000   2.680627e-04  1.873879e-07
    680    683   2   0.50000    -0.1150000   -0.5000000   1.401943e-03  2.153106e-06
    680    703   2   0.50000    -0.1150000    0.0600000   2.680627e-04  1.873879e-07
    680    704   2   0.50000    -0.1150000    0.0600000   2.680627e-04  1.873879e-07
    681    684   2   0.50000    -0.1150000    0.5000000   1.692561e-03  3.993218e-06
    681    705   2   0.50000    -0.1150000    0.3000000   2.144502e-06  1.199282e-11
    703    684   2   0.50000     0.0600000    0.5000000   3.869820e-04  3.188634e-07
    703    705   2   0.50000     0.0600000    0.3000000   4.903125e-07  9.576416e-13
    704    684   2   0.50000     0.0600000    0.5000000   3.869820e-04  3.188634e-07
    704    705   2   0.50000     0.0600000    0.3000000   4.903125e-07  9.576416e-13
    682    685   2   0.50000     0.1950000   -0.5000000   1.095425e-03  1.218041e-06
    682    686   2   0.50000     0.1950000   -0.1200000   1.015252e-03  1.866303e-06
    705    685   2   0.50000     0.3000000   -0.5000000   2.153164e-06  6.980110e-12
    705    686   2   0.50000     0.3000000   -0.1200000   1.995577e-06  1.069504e-11
    683    687   2   0.50000    -0.5000000   -0.1200000   1.304585e-03  1.920112e-06
    683    706   2   0.50000    -0.5000000    0.0600000   3.205360e-04  1.719281e-07
    683    707   2   0.50000    -0.5000000    0.0600000   3.205360e-04  1.719281e-07
    685    687   2   0.50000    -0.5000000   -0.1200000   1.095425e-03  1.218041e-06
    685    706   2   0.50000    -0.5000000    0.0600000   2.691455e-04  1.090642e-07
    685    707   2   0.50000    -0.5000000    0.0600000   2.691455e-04  1.090642e-07
    684    688   2   0.50000     0.5000000   -0.1200000   1.575021e-03  3.561100e-06
    684    708   2   0.50000     0.5000000    0.0600000   3.869820e-04  3.188634e-07
    684    709   2   0.50000     0.5000000    0.0600000   3.869820e-04  3.188634e-07
    706    688   2   0.50000     0.0600000   -0.1200000   2.494471e-04  1.671101e-07
    706    708   2   0.50000     0.0600000    0.0600000   6.128906e-05  1.496315e-08
    706    709   2   0.50000     0.0600000    0.0600000   6.128906e-05  1.496315e-08
    707    688   2   0.50000     0.0600000   -0.1200000   2.494471e-04  1.671101e-07
    707    708   2   0.50000     0.0600000    0.0600000   6.128906e-05  1.496315e-08
    707    709   2   0.50000     0.0600000    0.0600000   6.128906e-05  1.496315e-08
    686    689   2   0.50000    -0.1200000   -0.1200000   1.015252e-03  1.866303e-06
    686    710   2   0.50000    -0.1200000    0.0600000   2.494471e-04  1.671101e-07
    686    711   2   0.50000    -0.1200000    0.0600000   2.494471e-04  1.671101e-07
    708    689   2   0.50000     0.0600000   -0.1200000   2.494471e-04  1.671101e-07
    708    710   2   0.50000     0.0600000    0.0600000   6.128906e-05  1.496315e-08
    708    711   2   0.50000     0.0600000    0.0600000   6.128906e-05  1.496315e-08
    709    689   2   0.50000     0.0600000   -0.1200000   2.494471e-04  1.671101e-07
    709    710   2   0.50000     0.0600000    0.0600000   6.128906e-05  1.496315e-08
    709    711   2   0.50000     0.0600000    0.0600000   6.128906e-05  1.496315e-08
    687    690   2   0.50000    -0.1200000   -0.1200000   1.015252e-03  1.866303e-06
    687    712   2   0.50000    -0.1200000    0.0600000   2.494471e-04  1.671101e-07
    687    713   2   0.50000    -0.1200000    0.0600000   2.494471e-04  1.671101e-07
    710    690   2   0.50000     0.0600000   -0.1200000   2.494471e-04  1.671101e-07
    710    712   2   0.50000     0.0600000    0.0600000   6.128906e-05  1.496315e-08
    710    713   2   0.50000     0.0600000    0.0600000   6.128906e-05  1.496315e-08
    711    690   2   0.50000     0.0600000   -0.1200000   2.494471e-04  1.671101e-07
    711    712   2   0.50000     0.0600000    0.0600000   6.128906e-05  1.496315e-08
    711    713   2   0.50000     0.0600000    0.0600000   6.128906e-05  1.496315e-08
    688    691   2   0.50000    -0.1200000   -0.1200000   1.015252e-03  1.866303e-06
    688    714   2   0.50000    -0.1200000    0.0600000   2.494471e-04  1.671101e-07
    688    715   2   0.50000    -0.1200000    0.0600000   2.494471e-04  1.671101e-07
    712    691   2   0.50000     0.0600000   -0.1200000   2.494471e-04  1.671101e-07
    712    714   2   0.50000     0.0600000    0.0600000   6.128906e-05  1.496315e-08
    712    715   2   0.50000     0.0600000    0.0600000   6.128906e-05  1.496315e-08
    713    691   2   0.50000     0.0600000   -0.1200000   2.494471e-04  1.671101e-07
    713    714   2   0.50000     0.0600000    0.0600000   6.128906e-05  1.496315e-08
    713    715   2   0.50000     0.0600000    0.0600000   6.128906e-05  1.496315e-08
    689    692   2   0.50000    -0.1200000   -0.1200000   1.015252e-03  1.866303e-06
    689    716   2   0.50000    -0.1200000    0.0600000   2.494471e-04  1.671101e-07
    689    717   2   0.50000    -0.1200000    0.0600000   2.494471e-04  1.671101e-07
    714    692   2   0.50000     0.0600000   -0.1200000   2.494471e-04  1.671101e-07
    714    716   2   0.50000     0.0600000    0.0600000   6.128906e-05  1.496315e-08
    714    717   2   0.50000     0.0600000    0.0600000   6.128906e-05  1.496315e-08
    715    692   2   0.50000     0.0600000   -0.1200000   2.494471e-04  1.671101e-07
    715    716   2   0.50000     0.0600000    0.0600000   6.128906e-05  1.496315e-08
    715    717   2   0.50000     0.0600000    0.0600000   6.128906e-05  1.496315e-08
    690    693   2   0.50000    -0.1200000   -0.1200000   1.015252e-03  1.866303e-06
    690    718   2   0.50000    -0.1200000    0.0600000   2.494471e-04  1.671101e-07
    690    719   2   0.50000    -0.1200000    0.0600000   2.494471e-04  1.671101e-07
    716    693   2   0.50000     0.0600000   -0.1200000   2.494471e-04  1.671101e-07
    716    718   2   0.50000     0.0600000    0.0600000   6.128906e-05  1.496315e-08
    716    719   2   0.50000     0.0600000    0.0600000   6.128906e-05  1.496315e-08
    717    693   2   0.50000     0.0600000   -0.1200000   2.494471e-04  1.671101e-07
    717    718   2   0.50000     0.0600000    0.0600000   6.128906e-05  1.496315e-08
    717    719   2   0.50000     0.0600000    0.0600000   6.128906e-05  1.496315e-08
    691    694   2   0.50000    -0.1200000    0.5000000   1.575021e-03  3.561100e-06
    691    720   2   0.50000    -0.1200000    0.0600000   2.494471e-04  1.671101e-07
    691    721   2   0.50000    -0.1200000    0.0600000   2.494471e-04  1.671101e-07
    718    694   2   0.50000     0.0600000    0.5000000   3.869820e-04  3.188634e-07
    718    720   2   0.50000     0.0600000    0.0600000   6.128906e-05  1.496315e-08
    718    721   2   0.50000     0.0600000    0.0600000   6.128906e-05  1.496315e-08
    719    694   2   0.50000     0.0600000    0.5000000   3.869820e-04  3.188634e-07
    719    720   2   0.50000     0.0600000    0.0600000   6.128906e-05  1.496315e-08
    719    721   2   0.50000     0.0600000    0.0600000   6.128906e-05  1.496315e-08
    692    695   2   0.50000    -0.1200000   -0.5000000   1.095425e-03  1.218041e-06
    692    722   2   0.50000    -0.1200000   -0.5000000   1.304585e-03  1.920112e-06
    720    695   2   0.50000     0.0600000   -0.5000000   2.691455e-04  1.090642e-07
    720    722   2   0.50000     0.0600000   -0.5000000   3.205360e-04  1.719281e-07
    721    695   2   0.50000     0.0600000   -0.5000000   2.691455e-04  1.090642e-07
    721    722   2   0.50000     0.0600000   -0.5000000   3.205360e-04  1.719281e-07
    693    723   2   0.50000    -0.1200000    0.1950000   1.015252e-03  1.866303e-06
    693    744   2   0.50000    -0.1200000    0.3000000   1.995577e-06  1.069504e-11
    695    723   2   0.50000    -0.5000000    0.1950000   1.095425e-03  1.218041e-06
    695    744   2   0.50000    -0.5000000    0.3000000   2.153164e-06  6.980110e-12
    694    724   2   0.50000     0.5000000   -0.1150000   1.692561e-03  3.993218e-06
    694    745   2   0.50000     0.5000000    0.0600000   3.869820e-04  3.188634e-07
    694    746   2   0.50000     0.5000000    0.0600000   3.869820e-04  3.188634e-07
    744    724   2   0.50000     0.3000000   -0.1150000   2.144502e-06  1.199282e-11
    744    745   2   0.50000     0.3000000    0.0600000   4.903125e-07  9.576416e-13
    744    746   2   0.50000     0.3000000    0.0600000   4.903125e-07  9.576416e-13
    722    725   2   0.50000    -0.5000000   -0.1150000   1.401943e-03  2.153106e-06
    722    729   2   0.50000    -0.5000000   -0.1150000   1.401943e-03  2.153106e-06
    745    725   2   0.50000     0.0600000   -0.1150000   2.680627e-04  1.873879e-07
    745    729   2   0.50000     0.0600000   -0.1150000   2.680627e-04  1.873879e-07
    746    725   2   0.50000     0.0600000   -0.1150000   2.680627e-04  1.873879e-07
    746    729   2   0.50000     0.0600000   -0.1150000   2.680627e-04  1.873879e-07
    723    726   2   0.50000     0.1950000   -0.1150000   1.091018e-03  2.092768e-06
    723    747   2   0.50000     0.1950000    0.1150000   2.262583e-04  1.374848e-07
    729    726   2   0.50000    -0.1150000   -0.1150000   1.172438e-03  2.346713e-06
    729    747   2   0.50000    -0.1150000    0.1150000   2.431434e-04  1.541678e-07
    723    728   2   0.50000     0.1950000   -0.1150000   1.091018e-03  2.092768e-06
    723    730   2   0.50000     0.1950000    0.1950000   1.015252e-03  1.866303e-06
    725    728   2   0.50000    -0.1150000   -0.1150000   1.172438e-03  2.346713e-06
    725    730   2   0.50000    -0.1150000    0.1950000   1.091018e-03  2.092768e-06
    724    727   2   0.50000    -0.1150000   -0.1150000   1.172438e-03  2.346713e-06
    724    748   2   0.50000    -0.1150000    0.1150000   2.431434e-04  1.541678e-07
    747    727   2   0.50000     0.1150000   -0.1150000   2.431434e-04  1.541678e-07
    747    748   2   0.50000     0.1150000    0.1150000   5.042375e-05  1.012808e-08
    725    749   2   0.50000    -0.1150000    0.1150000   2.431434e-04  1.541678e-07
    748    728   2   0.50000     0.1150000   -0.1150000   2.431434e-04  1.541678e-07
    748    749   2   0.50000     0.1150000    0.1150000   5.042375e-05  1.012808e-08
    726    750   2   0.50000    -0.1150000    0.1150000   2.431434e-04  1.541678e-07
    749    729   2   0.50000     0.1150000   -0.1150000   2.431434e-04  1.541678e-07
    749    750   2   0.50000     0.1150000    0.1150000   5.042375e-05  1.012808e-08
    727    730   2   0.50000    -0.1150000    0.1950000   1.091018e-03  2.092768e-06
    750    724   2   0.50000     0.1150000   -0.1150000   2.431434e-04  1.541678e-07
    750    730   2   0.50000     0.1150000    0.1950000   2.262583e-04  1.374848e-07
    724    731   2   0.50000    -0.1150000   -0.5000000   1.401943e-03  2.153106e-06
    724    751   2   0.50000    -0.1150000    0.0600000   2.680627e-04  1.873879e-07
    724    752   2   0.50000    -0.1150000    0.0600000   2.680627e-04  1.873879e-07
    728    731   2   0.50000    -0.1150000   -0.5000000   1.401943e-03  2.153106e-06
    728    751   2   0.50000    -0.1150000    0.0600000   2.680627e-04  1.873879e-07
    728    752   2   0.50000    -0.1150000    0.0600000   2.680627e-04  1.873879e-07
    729    732   2   0.50000    -0.1150000    0.5000000   1.692561e-03  3.993218e-06
    729    753   2   0.50000    -0.1150000    0.3000000   2.144502e-06  1.199282e-11
    751    732   2   0.50000     0.0600000    0.5000000   3.869820e-04  3.188634e-07
    751    753   2   0.50000     0.0600000    0.3000000   4.903125e-07  9.576416e-13
    752    732   2   0.50000     0.0600000    0.5000000   3.869820e-04  3.188634e-07
    752    753   2   0.50000     0.0600000    0.3000000   4.903125e-07  9.576416e-13
    730    733   2   0.50000     0.1950000   -0.5000000   1.095425e-03  1.218041e-06
    730    734   2   0.50000     0.1950000   -0.1200000   1.015252e-03  1.866303e-06
    753    733   2   0.50000     0.3000000   -0.5000000   2.153164e-06  6.980110e-12
    753    734   2   0.50000     0.3000000   -0.1200000   1.995577e-06  1.069504e-11
    731    735   2   0.50000    -0.5000000   -0.1200000   1.304585e-03  1.920112e-06
    731    754   2   0.50000    -0.5000000    0.0600000   3.205360e-04  1.719281e-07
    731    755   2   0.50000    -0.5000000    0.0600000   3.205360e-04  1.719281e-07
    733    735   2   0.50000    -0.5000000   -0.1200000   1.095425e-03  1.218041e-06
    733    754   2   0.50000    -0.5000000    0.0600000   2.691455e-04  1.090642e-07
    733    755   2   0.50000    -0.5000000    0.0600000   2.691455e-04  1.090642e-07
    732    736   2   0.50000     0.5000000   -0.1200000   1.575021e-03  3.561100e-06
    732    756   2   0.50000     0.5000000    0.0600000   3.869820e-04  3.188634e-07
    732    757   2   0.50000     0.5000000    0.0600000   3.869820e-04  3.188634e-07
    754    736   2   0.50000     0.0600000   -0.1200000   2.494471e-04  1.671101e-07
    754    756   2   0.50000     0.0600000    0.0600000   6.128906e-05  1.496315e-08
    754    757   2   0.50000     0.0600000    0.0600000   6.128906e-05  1.496315e-08
    755    736   2   0.50000     0.0600000   -0.1200000   2.494471e-04  1.671101e-07
    755    756   2   0.50000     0.0600000    0.0600000   6.128906e-05  1.496315e-08
    755    757   2   0.50000     0.0600000    0.0600000   6.128906e-05  1.496315e-08
    734    737   2   0.50000    -0.1200000   -0.1200000   1.015252e-03  1.866303e-06
    734    758   2   0.50000    -0.1200000    0.0600000   2.494471e-04  1.671101e-07
    734    759   2   0.50000    -0.1200000    0.0600000   2.494471e-04  1.671101e-07
    756    737   2   0.50000     0.0600000   -0.1200000   2.494471e-04  1.671101e-07
    756    758   2   0.50000     0.0600000    0.0600000   6.128906e-05  1.496315e-08
    756    759   2   0.50000     0.0600000    0.0600000   6.128906e-05  1.496315e-08
    757    737   2   0.50000     0.0600000   -0.1200000   2.494471e-04  1.671101e-07
    757    758   2   0.50000     0.0600000    0.0600000   6.128906e-05  1.496315e-08
    757    759   2   0.50000     0.0600000    0.0600000   6.128906e-05  1.496315e-08
    735    738   2   0.50000    -0.1200000   -0.1200000   1.015252e-03  1.866303e-06
    735    760   2   0.50000    -0.1200000    0.0600000   2.494471e-04  1.671101e-07
    735    761   2   0.50000    -0.1200000    0.0600000   2.494471e-04  1.671101e-07
    758    738   2   0.50000     0.0600000   -0.1200000   2.494471e-04  1.671101e-07
    758    760   2   0.50000     0.0600000    0.0600000   6.128906e-05  1.496315e-08
    758    761   2   0.50000     0.0600000    0.0600000   6.128906e-05  1.496315e-08
    759    738   2   0.50000     0.0600000   -0.1200000   2.494471e-04  1.671101e-07
    759    760   2   0.50000     0.0600000    0.0600000   6.128906e-05  1.496315e-08
    759    761   2   0.50000     0.0600000    0.0600000   6.128906e-05  1.496315e-08
    736    739   2   0.50000    -0.1200000   -0.1200000   1.015252e-03  1.866303e-06
    736    762   2   0.50000    -0.1200000    0.0600000   2.494471e-04  1.671101e-07
    736    763   2   0.50000    -0.1200000    0.0600000   2.494471e-04  1.671101e-07
    760    739   2   0.50000     0.0600000   -0.1200000   2.494471e-04  1.671101e-07
    760    762   2   0.50000     0.0600000    0.0600000   6.128906e-05  1.496315e-08
    760    763   2   0.50000     0.0600000    0.0600000   6.128906e-05  1.496315e-08
    761    739   2   0.50000     0.0600000   -0.1200000   2.494471e-04  1.671101e-07
    761    762   2   0.50000     0.0600000    0.0600000   6.128906e-05  1.496315e-08
    761    763   2   0.50000     0.0600000    0.0600000   6.128906e-05  1.496315e-08
    737    740   2   0.50000    -0.1200000   -0.1200000   1.015252e-03  1.866303e-06
    737    764   2   0.50000    -0.1200000    0.0600000   2.494471e-04  1.671101e-07
    737    765   2   0.50000    -0.1200000    0.0600000   2.494471e-04  1.671101e-07
    762    740   2   0.50000     0.0600000   -0.1200000   2.494471e-04  1.671101e-07
    762    764   2   0.50000     0.0600000    0.0600000   6.128906e-05  1.496315e-08
    762    765   2   0.50000     0.0600000    0.0600000   6.128906e-05  1.496315e-08
    763    740   2   0.50000     0.0600000   -0.1200000   2.494471e-04  1.671101e-07
    763    764   2   0.50000     0.0600000    0.0600000   6.128906e-05  1.496315e-08
    763    765   2   0.50000     0.0600000    0.0600000   6.128906e-05  1.496315e-08
    738    741   2   0.50000    -0.1200000   -0.1200000   1.015252e-03  1.866303e-06
    738    766   2   0.50000    -0.1200000    0.0600000   2.494471e-04  1.671101e-07
    738    767   2   0.50000    -0.1200000    0.0600000   2.494471e-04  1.671101e-07
    764    741   2   0.50000     0.0600000   -0.1200000   2.494471e-04  1.671101e-07
    764    766   2   0.50000     0.0600000    0.0600000   6.128906e-05  1.496315e-08
    764    767   2   0.50000     0.0600000    0.0600000   6.128906e-05  1.496315e-08
    765    741   2   0.50000     0.0600000   -0.1200000   2.494471e-04  1.671101e-07
    765    766   2   0.50000     0.0600000    0.0600000   6.128906e-05  1.496315e-08
    765    767   2   0.50000     0.0600000    0.0600000   6.128906e-05  1.496315e-08
    739    742   2   0.50000    -0.1200000    0.5000000   1.575021e-03  3.561100e-06
    739    768   2   0.50000    -0.1200000    0.0600000   2.494471e-04  1.671101e-07
    739    769   2   0.50000    -0.1200000    0.0600000   2.494471e-04  1.671101e-07
    766    742   2   0.50000     0.0600000    0.5000000   3.869820e-04  3.188634e-07
    766    768   2   0.50000     0.0600000    0.0600000   6.128906e-05  1.496315e-08
    766    769   2   0.50000     0.0600000    0.0600000   6.128906e-05  1.496315e-08
    767    742   2   0.50000     0.0600000    0.5000000   3.869820e-04  3.188634e-07
    767    768   2   0.50000     0.0600000    0.0600000   6.128906e-05  1.496315e-08
    767    769   2   0.50000     0.0600000    0.0600000   6.128906e-05  1.496315e-08
    740    743   2   0.50000    -0.1200000   -0.5000000   1.095425e-03  1.218041e-06
    740    770   2   0.50000    -0.1200000   -0.5000000   1.304585e-03  1.920112e-06
    768    743   2   0.50000     0.0600000   -0.5000000   2.691455e-04  1.090642e-07
    768    770   2   0.50000     0.0600000   -0.5000000   3.205360e-04  1.719281e-07
    769    743   2   0.50000     0.0600000   -0.5000000   2.691455e-04  1.090642e-07
    769    770   2   0.50000     0.0600000   -0.5000000   3.205360e-04  1.719281e-07
    741    771   2   0.50000    -0.1200000    0.1950000   1.015252e-03  1.866303e-06
    741    792   2   0.50000    -0.1200000    0.3000000   1.995577e-06  1.069504e-11
    743    771   2   0.50000    -0.5000000    0.1950000   1.095425e-03  1.218041e-06
    743    792   2   0.50000    -0.5000000    0.3000000   2.153164e-06  6.980110e-12
    742    772   2   0.50000     0.5000000   -0.1150000   1.692561e-03  3.993218e-06
    742    793   2   0.50000     0.5000000    0.0600000   3.869820e-04  3.188634e-07
    742    794   2   0.50000     0.5000000    0.0600000   3.869820e-04  3.188634e-07
    792    772   2   0.50000     0.3000000   -0.1150000   2.144502e-06  1.199282e-11
    792    793   2   0.50000     0.3000000    0.0600000   4.903125e-07  9.576416e-13
    792    794   2   0.50000     0.3000000    0.0600000   4.903125e-07  9.576416e-13
    770    773   2   0.50000    -0.5000000   -0.1150000   1.401943e-03  2.153106e-06
    770    777   2   0.50000    -0.5000000   -0.1150000   1.401943e-03  2.153106e-06
    793    773   2   0.50000     0.0600000   -0.1150000   2.680627e-04  1.873879e-07
    793    777   2   0.50000     0.0600000   -0.1150000   2.680627e-04  1.873879e-07
    794    773   2   0.50000     0.0600000   -0.1150000   2.680627e-04  1.873879e-07
    794    777   2   0.50000     0.0600000   -0.1150000   2.680627e-04  1.873879e-07
    771    774   2   0.50000     0.1950000   -0.1150000   1.091018e-03  2.092768e-06
    771    795   2   0.50000     0.1950000    0.1150000   2.262583e-04  1.374848e-07
    777    774   2   0.50000    -0.1150000   -0.1150000   1.172438e-03  2.346713e-06
    777    795   2   0.50000    -0.1150000    0.1150000   2.431434e-04  1.541678e-07
    771    776   2   0.50000     0.1950000   -0.1150000   1.091018e-03  2.092768e-06
    771    778   2   0.50000     0.1950000    0.1950000   1.015252e-03  1.866303e-06
    773    776   2   0.50000    -0.1150000   -0.1150000   1.172438e-03  2.346713e-06
    773    778   2   0.50000    -0.1150000    0.1950000   1.091018e-03  2.092768e-06
    772    775   2   0.50000    -0.1150000   -0.1150000   1.172438e-03  2.346713e-06
    772    796   2   0.50000    -0.1150000    0.1150000   2.431434e-04  1.541678e-07
    795    775   2   0.50000     0.1150000   -0.1150000   2.431434e-04  1.541678e-07
    795    796   2   0.50000     0.1150000    0.1150000   5.042375e-05  1.012808e-08
    773    797   2   0.50000    -0.1150000    0.1150000   2.431434e-04  1.541678e-07
    796    776   2   0.50000     0.1150000   -0.1150000   2.431434e-04  1.541678e-07
    796    797   2   0.50000     0.1150000    0.1150000   5.042375e-05  1.012808e-08
    774    798   2   0.50000    -0.1150000    0.1150000   2.431434e-04  1.541678e-07
    797    777   2   0.50000     0.1150000   -0.1150000   2.431434e-04  1.541678e-07
    797    798   2   0.50000     0.1150000    0.1150000   5.042375e-05  1.012808e-08
    775    778   2   0.50000    -0.1150000    0.1950000   1.091018e-03  2.092768e-06
    798    772   2   0.50000     0.1150000   -0.1150000   2.431434e-04  1.541678e-07
    798    778   2   0.50000     0.1150000    0.1950000   2.262583e-04  1.374848e-07
    772    779   2   0.50000    -0.1150000   -0.5000000   1.401943e-03  2.153106e-06
    772    799   2   0.50000    -0.1150000    0.0600000   2.680627e-04  1.873879e-07
    772    800   2   0.50000    -0.1150000    0.0600000   2.680627e-04  1.873879e-07
    776    779   2   0.50000    -0.1150000   -0.5000000   1.401943e-03  2.153106e-06
    776    799   2   0.50000    -0.1150000    0.0600000   2.680627e-04  1.873879e-07
    776    800   2   0.50000    -0.1150000    0.0600000   2.680627e-04  1.873879e-07
    777    780   2   0.50000    -0.1150000    0.5000000   1.692561e-03  3.993218e-06
    777    801   2   0.50000    -0.1150000    0.3000000   2.144502e-06  1.199282e-11
    799    780   2   0.50000     0.0600000    0.5000000   3.869820e-04  3.188634e-07
    799    801   2   0.50000     0.0600000    0.3000000   4.903125e-07  9.576416e-13
    800    780   2   0.50000     0.0600000    0.5000000   3.869820e-04  3.188634e-07
    800    801   2   0.50000     0.0600000    0.3000000   4.903125e-07  9.576416e-13
    778    781   2   0.50000     0.1950000   -0.5000000   1.095425e-03  1.218041e-06
    778    782   2   0.50000     0.1950000   -0.1200000   1.015252e-03  1.866303e-06
    801    781   2   0.50000     0.3000000   -0.5000000   2.153164e-06  6.980110e-12
    801    782   2   0.50000     0.3000000   -0.1200000   1.995577e-06  1.069504e-11
    779    783   2   0.50000    -0.5000000   -0.1200000   1.304585e-03  1.920112e-06
    779    802   2   0.50000    -0.5000000    0.0600000   3.205360e-04  1.719281e-07
    779    803   2   0.50000    -0.5000000    0.0600000   3.205360e-04  1.719281e-07
    781    783   2   0.50000    -0.5000000   -0.1200000   1.095425e-03  1.218041e-06
    781    802   2   0.50000    -0.5000000    0.0600000   2.691455e-04  1.090642e-07
    781    803   2   0.50000    -0.5000000    0.0600000   2.691455e-04  1.090642e-07
    780    784   2   0.50000     0.5000000   -0.1200000   1.575021e-03  3.561100e-06
    780    804   2   0.50000     0.5000000    0.0600000   3.869820e-04  3.188634e-07
    780    805   2   0.50000     0.5000000    0.0600000   3.869820e-04  3.188634e-07
    802    784   2   0.50000     0.0600000   -0.1200000   2.494471e-04  1.671101e-07
    802    804   2   0.50000     0.0600000    0.0600000   6.128906e-05  1.496315e-08
    802    805   2   0.50000     0.0600000    0.0600000   6.128906e-05  1.496315e-08
    803    784   2   0.50000     0.0600000   -0.1200000   2.494471e-04  1.671101e-07
    803    804   2   0.50000     0.0600000    0.0600000   6.128906e-05  1.496315e-08
    803    805   2   0.50000     0.0600000    0.0600000   6.128906e-05  1.496315e-08
    782    785   2   0.50000    -0.1200000   -0.1200000   1.015252e-03  1.866303e-06
    782    806   2   0.50000    -0.1200000    0.0600000   2.494471e-04  1.671101e-07
    782    807   2   0.50000    -0.1200000    0.0600000   2.494471e-04  1.671101e-07
    804    785   2   0.50000     0.0600000   -0.1200000   2.494471e-04  1.671101e-07
    804    806   2   0.50000     0.0600000    0.0600000   6.128906e-05  1.496315e-08
    804    807   2   0.50000     0.0600000    0.0600000   6.128906e-05  1.496315e-08
    805    785   2   0.50000     0.0600000   -0.1200000   2.494471e-04  1.671101e-07
    805    806   2   0.50000     0.0600000    0.0600000   6.128906e-05  1.496315e-08
    805    807   2   0.50000     0.0600000    0.0600000   6.128906e-05  1.496315e-08
    783    786   2   0.50000    -0.1200000   -0.1200000   1.015252e-03  1.866303e-06
    783    808   2   0.50000    -0.1200000    0.0600000   2.494471e-04  1.671101e-07
    783    809   2   0.50000    -0.1200000    0.0600000   2.494471e-04  1.671101e-07
    806    786   2   0.50000     0.0600000   -0.1200000   2.494471e-04  1.671101e-07
    806    808   2   0.50000     0.0600000    0.0600000   6.128906e-05  1.496315e-08
    806    809   2   0.50000     0.0600000    0.0600000   6.128906e-05  1.496315e-08
    807    786   2   0.50000     0.0600000   -0.1200000   2.494471e-04  1.671101e-07
    807    808   2   0.50000     0.0600000    0.0600000   6.128906e-05  1.496315e-08
    807    809   2   0.50000     0.0600000    0.0600000   6.128906e-05  1.496315e-08
    784    787   2   0.50000    -0.1200000   -0.1200000   1.015252e-03  1.866303e-06
    784    810   2   0.50000    -0.1200000    0.0600000   2.494471e-04  1.671101e-07
    784    811   2   0.50000    -0.1200000    0.0600000   2.494471e-04  1.671101e-07
    808    787   2   0.50000     0.0600000   -0.1200000   2.494471e-04  1.671101e-07
    808    810   2   0.50000     0.0600000    0.0600000   6.128906e-05  1.496315e-08
    808    811   2   0.50000     0.0600000    0.0600000   6.128906e-05  1.496315e-08
    809    787   2   0.50000     0.0600000   -0.1200000   2.494471e-04  1.671101e-07
    809    810   2   0.50000     0.0600000    0.0600000   6.128906e-05  1.496315e-08
    809    811   2   0.50000     0.0600000    0.0600000   6.128906e-05  1.496315e-08
    785    788   2   0.50000    -0.1200000   -0.1200000   1.015252e-03  1.866303e-06
    785    812   2   0.50000    -0.1200000    0.0600000   2.494471e-04  1.671101e-07
    785    813   2   0.50000    -0.1200000    0.0600000   2.494471e-04  1.671101e-07
    810    788   2   0.50000     0.0600000   -0.1200000   2.494471e-04  1.671101e-07
    810    812   2   0.50000     0.0600000    0.0600000   6.128906e-05  1.496315e-08
    810    813   2   0.50000     0.0600000    0.0600000   6.128906e-05  1.496315e-08
    811    788   2   0.50000     0.0600000   -0.1200000   2.494471e-04  1.671101e-07
    811    812   2   0.50000     0.0600000    0.0600000   6.128906e-05  1.496315e-08
    811    813   2   0.50000     0.0600000    0.0600000   6.128906e-05  1.496315e-08
    786    789   2   0.50000    -0.1200000   -0.1200000   1.015252e-03  1.866303e-06
    786    814   2   0.50000    -0.1200000    0.0600000   2.494471e-04  1.671101e-07
    786    815   2   0.50000    -0.1200000    0.0600000   2.494471e-04  1.671101e-07
    812    789   2   0.50000     0.0600000   -0.1200000   2.494471e-04  1.671101e-07
    812    814   2   0.50000     0.0600000    0.0600000   6.128906e-05  1.496315e-08
    812    815   2   0.50000     0.0600000    0.0600000   6.128906e-05  1.496315e-08
    813    789   2   0.50000     0.0600000   -0.1200000   2.494471e-04  1.671101e-07
    813    814   2   0.50000     0.0600000    0.0600000   6.128906e-05  1.496315e-08
    813    815   2   0.50000     0.0600000    0.0600000   6.128906e-05  1.496315e-08
    787    790   2   0.50000    -0.1200000    0.5000000   1.575021e-03  3.561100e-06
    787    816   2   0.50000    -0.1200000    0.0600000   2.494471e-04  1.671101e-07
    787    817   2   0.50000    -0.1200000    0.0600000   2.494471e-04  1.671101e-07
    814    790   2   0.50000     0.0600000    0.5000000   3.869820e-04  3.188634e-07
    814    816   2   0.50000     0.0600000    0.0600000   6.128906e-05  1.496315e-08
    814    817   2   0.50000     0.0600000    0.0600000   6.128906e-05  1.496315e-08
    815    790   2   0.50000     0.0600000    0.5000000   3.869820e-04  3.188634e-07
    815    816   2   0.50000     0.0600000    0.0600000   6.128906e-05  1.496315e-08
    815    817   2   0.50000     0.0600000    0.0600000   6.128906e-05  1.496315e-08
    788    791   2   0.50000    -0.1200000   -0.5000000   1.095425e-03  1.218041e-06
    788    818   2   0.50000    -0.1200000   -0.5000000   1.304585e-03  1.920112e-06
    816    791   2   0.50000     0.0600000   -0.5000000   2.691455e-04  1.090642e-07
    816    818   2   0.50000     0.0600000   -0.5000000   3.205360e-04  1.719281e-07
    817    791   2   0.50000     0.0600000   -0.5000000   2.691455e-04  1.090642e-07
    817    818   2   0.50000     0.0600000   -0.5000000   3.205360e-04  1.719281e-07
    789    819   2   0.50000    -0.1200000    0.1950000   1.015252e-03  1.866303e-06
    789    840   2   0.50000    -0.1200000    0.3000000   1.995577e-06  1.069504e-11
    791    819   2   0.50000    -0.5000000    0.1950000   1.095425e-03  1.218041e-06
    791    840   2   0.50000    -0.5000000    0.3000000   2.153164e-06  6.980110e-12
    790    820   2   0.50000     0.5000000   -0.1150000   1.692561e-03  3.993218e-06
    790    841   2   0.50000     0.5000000    0.0600000   3.869820e-04  3.188634e-07
    790    842   2   0.50000     0.5000000    0.0600000   3.869820e-04  3.188634e-07
    840    820   2   0.50000     0.3000000   -0.1150000   2.144502e-06  1.199282e-11
    840    841   2   0.50000     0.3000000    0.0600000   4.903125e-07  9.576416e-13
    840    842   2   0.50000     0.3000000    0.0600000   4.903125e-07  9.576416e-13
    818    821   2   0.50000    -0.5000000   -0.1150000   1.401943e-03  2.153106e-06
    818    825   2   0.50000    -0.5000000   -0.1150000   1.401943e-03  2.153106e-06
    841    821   2   0.50000     0.0600000   -0.1150000   2.680627e-04  1.873879e-07
    841    825   2   0.50000     0.0600000   -0.1150000   2.680627e-04  1.873879e-07
    842    821   2   0.50000     0.0600000   -0.1150000   2.680627e-04  1.873879e-07
    842    825   2   0.50000     0.0600000   -0.1150000   2.680627e-04  1.873879e-07
    819    822   2   0.50000     0.1950000   -0.1150000   1.091018e-03  2.092768e-06
    819    843   2   0.50000     0.1950000    0.1150000   2.262583e-04  1.374848e-07
    825    822   2   0.50000    -0.1150000   -0.1150000   1.172438e-03  2.346713e-06
    825    843   2   0.50000    -0.1150000    0.1150000   2.431434e-04  1.541678e-07
    819    824   2   0.50000     0.1950000   -0.1150000   1.091018e-03  2.092768e-06
    819    826   2   0.50000     0.1950000    0.1950000   1.015252e-03  1.866303e-06
    821    824   2   0.50000    -0.1150000   -0.1150000   1.172438e-03  2.346713e-06
    821    826   2   0.50000    -0.1150000    0.1950000   1.091018e-03  2.092768e-06
    820    823   2   0.50000    -0.1150000   -0.1150000   1.172438e-03  2.346713e-06
    820    844   2   0.50000    -0.1150000    0.1150000   2.431434e-04  1.541678e-07
    843    823   2   0.50000     0.1150000   -0.1150000   2.431434e-04  1.541678e-07
    843    844   2   0.50000     0.1150000    0.1150000   5.042375e-05  1.012808e-08
    821    845   2   0.50000    -0.1150000    0.1150000   2.431434e-04  1.541678e-07
    844    824   2   0.50000     0.1150000   -0.1150000   2.431434e-04  1.541678e-07
    844    845   2   0.50000     0.1150000    0.1150000   5.042375e-05  1.012808e-08
    822    846   2   0.50000    -0.1150000    0.1150000   2.431434e-04  1.541678e-07
    845    825   2   0.50000     0.1150000   -0.1150000   2.431434e-04  1.541678e-07
    845    846   2   0.50000     0.1150000    0.1150000   5.042375e-05  1.012808e-08
    823    826   2   0.50000    -0.1150000    0.1950000   1.091018e-03  2.092768e-06
    846    820   2   0.50000     0.1150000   -0.1150000   2.431434e-04  1.541678e-07
    846    826   2   0.50000     0.1150000    0.1950000   2.262583e-04  1.374848e-07
    820    827   2   0.50000    -0.1150000   -0.5000000   1.401943e-03  2.153106e-06
    820    847   2   0.50000    -0.1150000    0.0600000   2.680627e-04  1.873879e-07
    820    848   2   0.50000    -0.1150000    0.0600000   2.680627e-04  1.873879e-07
    824    827   2   0.50000    -0.1150000   -0.5000000   1.401943e-03  2.153106e-06
    824    847   2   0.50000    -0.1150000    0.0600000   2.680627e-04  1.873879e-07
    824    848   2   0.50000    -0.1150000    0.0600000   2.680627e-04  1.873879e-07
    825    828   2   0.50000    -0.1150000    0.5000000   1.692561e-03  3.993218e-06
    825    849   2   0.50000    -0.1150000    0.3000000   2.144502e-06  1.199282e-11
    847    828   2   0.50000     0.0600000    0.5000000   3.869820e-04  3.188634e-07
    847    849   2   0.50000     0.0600000    0.3000000   4.903125e-07  9.576416e-13
    848    828   2   0.50000     0.0600000    0.5000000   3.869820e-04  3.188634e-07
    848    849   2   0.50000     0.0600000    0.3000000   4.903125e-07  9.576416e-13
    826    829   2   0.50000     0.1950000   -0.5000000   1.095425e-03  1.218041e-06
    826    830   2   0.50000     0.1950000   -0.1200000   1.015252e-03  1.866303e-06
    849    829   2   0.50000     0.3000000   -0.5000000   2.153164e-06  6.980110e-12
    849    830   2   0.50000     0.3000000   -0.1200000   1.995577e-06  1.069504e-11
    827    831   2   0.50000    -0.5000000   -0.1200000   1.304585e-03  1.920112e-06
    827    850   2   0.50000    -0.5000000    0.0600000   3.205360e-04  1.719281e-07
    827    851   2   0.50000    -0.5000000    0.0600000   3.205360e-04  1.719281e-07
    829    831   2   0.50000    -0.5000000   -0.1200000   1.095425e-03  1.218041e-06
    829    850   2   0.50000    -0.5000000    0.0600000   2.691455e-04  1.090642e-07
    829    851   2   0.50000    -0.5000000    0.0600000   2.691455e-04  1.090642e-07
    828    832   2   0.50000     0.5000000   -0.1200000   1.575021e-03  3.561100e-06
    828    852   2   0.50000     0.5000000    0.0600000   3.869820e-04  3.188634e-07
    828    853   2   0.50000     0.5000000    0.0600000   3.869820e-04  3.188634e-07
    850    832   2   0.50000     0.0600000   -0.1200000   2.494471e-04  1.671101e-07
    850    852   2   0.50000     0.0600000    0.0600000   6.128906e-05  1.496315e-08
    850    853   2   0.50000     0.0600000    0.0600000   6.128906e-05  1.496315e-08
    851    832   2   0.50000     0.0600000   -0.1200000   2.494471e-04  1.671101e-07
    851    852   2   0.50000     0.0600000    0.0600000   6.128906e-05  1.496315e-08
    851    853   2   0.50000     0.0600000    0.0600000   6.128906e-05  1.496315e-08
    830    833   2   0.50000    -0.1200000   -0.1200000   1.015252e-03  1.866303e-06
    830    854   2   0.50000    -0.1200000    0.0600000   2.494471e-04  1.671101e-07
    830    855   2   0.50000    -0.1200000    0.0600000   2.494471e-04  1.671101e-07
    852    833   2   0.50000     0.0600000   -0.1200000   2.494471e-04  1.671101e-07
    852    854   2   0.50000     0.0600000    0.0600000   6.128906e-05  1.496315e-08
    852    855   2   0.50000     0.0600000    0.0600000   6.128906e-05  1.496315e-08
    853    833   2   0.50000     0.0600000   -0.1200000   2.494471e-04  1.671101e-07
    853    854   2   0.50000     0.0600000    0.0600000   6.128906e-05  1.496315e-08
    853    855   2   0.50000     0.0600000    0.0600000   6.128906e-05  1.496315e-08
    831    834   2   0.50000    -0.1200000   -0.1200000   1.015252e-03  1.866303e-06
    831    856   2   0.50000    -0.1200000    0.0600000   2.494471e-04  1.671101e-07
    831    857   2   0.50000    -0.1200000    0.0600000   2.494471e-04  1.671101e-07
    854    834   2   0.50000     0.0600000   -0.1200000   2.494471e-04  1.671101e-07
    854    856   2   0.50000     0.0600000    0.0600000   6.128906e-05  1.496315e-08
    854    857   2   0.50000     0.0600000    0.0600000   6.128906e-05  1.496315e-08
    855    834   2   0.50000     0.0600000   -0.1200000   2.494471e-04  1.671101e-07
    855    856   2   0.50000     0.0600000    0.0600000   6.128906e-05  1.496315e-08
    855    857   2   0.50000     0.0600000    0.0600000   6.128906e-05  1.496315e-08
    832    835   2   0.50000    -0.1200000   -0.1200000   1.015252e-03  1.866303e-06
    832    858   2   0.50000    -0.1200000    0.0600000   2.494471e-04  1.671101e-07
    832    859   2   0.50000    -0.1200000    0.0600000   2.494471e-04  1.671101e-07
    856    835   2   0.50000     0.0600000   -0.1200000   2.494471e-04  1.671101e-07
    856    858   2   0.50000     0.0600000    0.0600000   6.128906e-05  1.496315e-08
    856    859   2   0.50000     0.0600000    0.0600000   6.128906e-05  1.496315e-08
    857    835   2   0.50000     0.0600000   -0.1200000   2.494471e-04  1.671101e-07
    857    858   2   0.50000     0.0600000    0.0600000   6.128906e-05  1.496315e-08
    857    859   2   0.50000     0.0600000    0.0600000   6.128906e-05  1.496315e-08
    833    836   2   0.50000    -0.1200000   -0.1200000   1.015252e-03  1.866303e-06
    833    860   2   0.50000    -0.1200000    0.0600000   2.494471e-04  1.671101e-07
    833    861   2   0.50000    -0.1200000    0.0600000   2.494471e-04  1.671101e-07
    858    836   2   0.50000     0.0600000   -0.1200000   2.494471e-04  1.671101e-07
    858    860   2   0.50000     0.0600000    0.0600000   6.128906e-05  1.496315e-08
    858    861   2   0.50000     0.0600000    0.0600000   6.128906e-05  1.496315e-08
    859    836   2   0.50000     0.0600000   -0.1200000   2.494471e-04  1.671101e-07
    859    860   2   0.50000     0.0600000    0.0600000   6.128906e-05  1.496315e-08
    859    861   2   0.50000     0.0600000    0.0600000   6.128906e-05  1.496315e-08
    834    837   2   0.50000    -0.1200000   -0.1200000   1.015252e-03  1.866303e-06
    834    862   2   0.50000    -0.1200000    0.0600000   2.494471e-04  1.671101e-07
    834    863   2   0.50000    -0.1200000    0.0600000   2.494471e-04  1.671101e-07
    860    837   2   0.50000     0.0600000   -0.1200000   2.494471e-04  1.671101e-07
    860    862   2   0.50000     0.0600000    0.0600000   6.128906e-05  1.496315e-08
    860    863   2   0.50000     0.0600000    0.0600000   6.128906e-05  1.496315e-08
    861    837   2   0.50000     0.0600000   -0.1200000   2.494471e-04  1.671101e-07
    861    862   2   0.50000     0.0600000    0.0600000   6.128906e-05  1.496315e-08
    861    863   2   0.50000     0.0600000    0.0600000   6.128906e-05  1.496315e-08
    835    838   2   0.50000    -0.1200000    0.5000000   1.575021e-03  3.561100e-06
    835    864   2   0.50000    -0.1200000    0.0600000   2.494471e-04  1.671101e-07
    835    865   2   0.50000    -0.1200000    0.0600000   2.494471e-04  1.671101e-07
    862    838   2   0.50000     0.0600000    0.5000000   3.869820e-04  3.188634e-07
    862    864   2   0.50000     0.0600000    0.0600000   6.128906e-05  1.496315e-08
    862    865   2   0.50000     0.0600000    0.0600000   6.128906e-05  1.496315e-08
    863    838   2   0.50000     0.0600000    0.5000000   3.869820e-04  3.188634e-07
    863    864   2   0.50000     0.0600000    0.0600000   6.128906e-05  1.496315e-08
    863    865   2   0.50000     0.0600000    0.0600000   6.128906e-05  1.496315e-08
    836    839   2   0.50000    -0.1200000   -0.5000000   1.095425e-03  1.218041e-06
    836    866   2   0.50000    -0.1200000   -0.5000000   1.304585e-03  1.920112e-06
    864    839   2   0.50000     0.0600000   -0.5000000   2.691455e-04  1.090642e-07
    864    866   2   0.50000     0.0600000   -0.5000000   3.205360e-04  1.719281e-07
    865    839   2   0.50000     0.0600000   -0.5000000   2.691455e-04  1.090642e-07
    865    866   2   0.50000     0.0600000   -0.5000000   3.205360e-04  1.719281e-07
    837    867   2   0.50000    -0.1200000    0.1950000   1.015252e-03  1.866303e-06
    837    888   2   0.50000    -0.1200000    0.3000000   1.995577e-06  1.069504e-11
    839    867   2   0.50000    -0.5000000    0.1950000   1.095425e-03  1.218041e-06
    839    888   2   0.50000    -0.5000000    0.3000000   2.153164e-06  6.980110e-12
    838    868   2   0.50000     0.5000000   -0.1150000   1.692561e-03  3.993218e-06
    838    889   2   0.50000     0.5000000    0.0600000   3.869820e-04  3.188634e-07
    838    890   2   0.50000     0.5000000    0.0600000   3.869820e-04  3.188634e-07
    888    868   2   0.50000     0.3000000   -0.1150000   2.144502e-06  1.199282e-11
    888    889   2   0.50000     0.3000000    0.0600000   4.903125e-07  9.576416e-13
    888    890   2   0.50000     0.3000000    0.0600000   4.903125e-07  9.576416e-13
    866    869   2   0.50000    -0.5000000   -0.1150000   1.401943e-03  2.153106e-06
    866    873   2   0.50000    -0.5000000   -0.1150000   1.401943e-03  2.153106e-06
    889    869   2   0.50000     0.0600000   -0.1150000   2.680627e-04  1.873879e-07
    889    873   2   0.50000     0.0600000   -0.1150000   2.680627e-04  1.873879e-07
    890    869   2   0.50000     0.0600000   -0.1150000   2.680627e-04  1.873879e-07
    890    873   2   0.50000     0.0600000   -0.1150000   2.680627e-04  1.873879e-07
    867    870   2   0.50000     0.1950000   -0.1150000   1.091018e-03  2.092768e-06
    867    891   2   0.50000     0.1950000    0.1150000   2.262583e-04  1.374848e-07
    873    870   2   0.50000    -0.1150000   -0.1150000   1.172438e-03  2.346713e-06
    873    891   2   0.50000    -0.1150000    0.1150000   2.431434e-04  1.541678e-07
    867    872   2   0.50000     0.1950000   -0.1150000   1.091018e-03  2.092768e-06
    867    874   2   0.50000     0.1950000    0.1950000   1.015252e-03  1.866303e-06
    869    872   2   0.50000    -0.1150000   -0.1150000   1.172438e-03  2.346713e-06
    869    874   2   0.50000    -0.1150000    0.1950000   1.091018e-03  2.092768e-06
    868    871   2   0.50000    -0.1150000   -0.1150000   1.172438e-03  2.346713e-06
    868    892   2   0.50000    -0.1150000    0.1150000   2.431434e-04  1.541678e-07
    891    871   2   0.50000     0.1150000   -0.1150000   2.431434e-04  1.541678e-07
    891    892   2   0.50000     0.1150000    0.1150000   5.042375e-05  1.012808e-08
    869    893   2   0.50000    -0.1150000    0.1150000   2.431434e-04  1.541678e-07
    892    872   2   0.50000     0.1150000   -0.1150000   2.431434e-04  1.541678e-07
    892    893   2   0.50000     0.1150000    0.1150000   5.042375e-05  1.012808e-08
    870    894   2   0.50000    -0.1150000    0.1150000   2.431434e-04  1.541678e-07
    893    873   2   0.50000     0.1150000   -0.1150000   2.431434e-04  1.541678e-07
    893    894   2   0.50000     0.1150000    0.1150000   5.042375e-05  1.012808e-08
    871    874   2   0.50000    -0.1150000    0.1950000   1.091018e-03  2.092768e-06
    894    868   2   0.50000     0.1150000   -0.1150000   2.431434e-04  1.541678e-07
    894    874   2   0.50000     0.1150000    0.1950000   2.262583e-04  1.374848e-07
    868    875   2   0.50000    -0.1150000   -0.5000000   1.401943e-03  2.153106e-06
    868    895   2   0.50000    -0.1150000    0.0600000   2.680627e-04  1.873879e-07
    868    896   2   0.50000    -0.1150000    0.0600000   2.680627e-04  1.873879e-07
    872    875   2   0.50000    -0.1150000   -0.5000000   1.401943e-03  2.153106e-06
    872    895   2   0.50000    -0.1150000    0.0600000   2.680627e-04  1.873879e-07
    872    896   2   0.50000    -0.1150000    0.0600000   2.680627e-04  1.873879e-07
    873    876   2   0.50000    -0.1150000    0.5000000   1.692561e-03  3.993218e-06
    873    897   2   0.50000    -0.1150000    0.3000000   2.144502e-06  1.199282e-11
    895    876   2   0.50000     0.0600000    0.5000000   3.869820e-04  3.188634e-07
    895    897   2   0.50000     0.0600000    0.3000000   4.903125e-07  9.576416e-13
    896    876   2   0.50000     0.0600000    0.5000000   3.869820e-04  3.188634e-07
    896    897   2   0.50000     0.0600000    0.3000000   4.903125e-07  9.576416e-13
    874    877   2   0.50000     0.1950000   -0.5000000   1.095425e-03  1.218041e-06
    874    878   2   0.50000     0.1950000   -0.1200000   1.015252e-03  1.866303e-06
    897    877   2   0.50000     0.3000000   -0.5000000   2.153164e-06  6.980110e-12
    897    878   2   0.50000     0.3000000   -0.1200000   1.995577e-06  1.069504e-11
    875    879   2   0.50000    -0.5000000   -0.1200000   1.304585e-03  1.920112e-06
    875    898   2   0.50000    -0.5000000    0.0600000   3.205360e-04  1.719281e-07
    875    899   2   0.50000    -0.5000000    0.0600000   3.205360e-04  1.719281e-07
    877    879   2   0.50000    -0.5000000   -0.1200000   1.095425e-03  1.218041e-06
    877    898   2   0.50000    -0.5000000    0.0600000   2.691455e-04  1.090642e-07
    877    899   2   0.50000    -0.5000000    0.0600000   2.691455e-04  1.090642e-07
    876    880   2   0.50000     0.5000000   -0.1200000   1.575021e-03  3.561100e-06
    876    900   2   0.50000     0.5000000    0.0600000   3.869820e-04  3.188634e-07
    876    901   2   0.50000     0.5000000    0.0600000   3.869820e-04  3.188634e-07
    898    880   2   0.50000     0.0600000   -0.1200000   2.494471e-04  1.671101e-07
    898    900   2   0.50000     0.0600000    0.0600000   6.128906e-05  1.496315e-08
    898    901   2   0.50000     0.0600000    0.0600000   6.128906e-05  1.496315e-08
    899    880   2   0.50000     0.0600000   -0.1200000   2.494471e-04  1.671101e-07
    899    900   2   0.50000     0.0600000    0.0600000   6.128906e-05  1.496315e-08
    899    901   2   0.50000     0.0600000    0.0600000   6.128906e-05  1.496315e-08
    878    881   2   0.50000    -0.1200000   -0.1200000   1.015252e-03  1.866303e-06
    878    902   2   0.50000    -0.1200000    0.0600000   2.494471e-04  1.671101e-07
    878    903   2   0.50000    -0.1200000    0.0600000   2.494471e-04  1.671101e-07
    900    881   2   0.50000     0.0600000   -0.1200000   2.494471e-04  1.671101e-07
    900    902   2   0.50000     0.0600000    0.0600000   6.128906e-05  1.496315e-08
    900    903   2   0.50000     0.0600000    0.0600000   6.128906e-05  1.496315e-08
    901    881   2   0.50000     0.0600000   -0.1200000   2.494471e-04  1.671101e-07
    901    902   2   0.50000     0.0600000    0.0600000   6.128906e-05  1.496315e-08
    901    903   2   0.50000     0.0600000    0.0600000   6.128906e-05  1.496315e-08
    879    882   2   0.50000    -0.1200000   -0.1200000   1.015252e-03  1.866303e-06
    879    904   2   0.50000    -0.1200000    0.0600000   2.494471e-04  1.671101e-07
    879    905   2   0.50000    -0.1200000    0.0600000   2.494471e-04  1.671101e-07
    902    882   2   0.50000     0.0600000   -0.1200000   2.494471e-04  1.671101e-07
    902    904   2   0.50000     0.0600000    0.0600000   6.128906e-05  1.496315e-08
    902    905   2   0.50000     0.0600000    0.0600000   6.128906e-05  1.496315e-08
    903    882   2   0.50000     0.0600000   -0.1200000   2.494471e-04  1.671101e-07
    903    904   2   0.50000     0.0600000    0.0600000   6.128906e-05  1.496315e-08
    903    905   2   0.50000     0.0600000    0.0600000   6.128906e-05  1.496315e-08
    880    883   2   0.50000    -0.1200000   -0.1200000   1.015252e-03  1.866303e-06
    880    906   2   0.50000    -0.1200000    0.0600000   2.494471e-04  1.671101e-07
    880    907   2   0.50000    -0.1200000    0.0600000   2.494471e-04  1.671101e-07
    904    883   2   0.50000     0.0600000   -0.1200000   2.494471e-04  1.671101e-07
    904    906   2   0.50000     0.0600000    0.0600000   6.128906e-05  1.496315e-08
    904    907   2   0.50000     0.0600000    0.0600000   6.128906e-05  1.496315e-08
    905    883   2   0.50000     0.0600000   -0.1200000   2.494471e-04  1.671101e-07
    905    906   2   0.50000     0.0600000    0.0600000   6.128906e-05  1.496315e-08
    905    907   2   0.50000     0.0600000    0.0600000   6.128906e-05  1.496315e-08
    881    884   2   0.50000    -0.1200000   -0.1200000   1.015252e-03  1.866303e-06
    881    908   2   0.50000    -0.1200000    0.0600000   2.494471e-04  1.671101e-07
    881    909   2   0.50000    -0.1200000    0.0600000   2.494471e-04  1.671101e-07
    906    884   2   0.50000     0.0600000   -0.1200000   2.494471e-04  1.671101e-07
    906    908   2   0.50000     0.0600000    0.0600000   6.128906e-05  1.496315e-08
    906    909   2   0.50000     0.0600000    0.0600000   6.128906e-05  1.496315e-08
    907    884   2   0.50000     0.0600000   -0.1200000   2.494471e-04  1.671101e-07
    907    908   2   0.50000     0.0600000    0.0600000   6.128906e-05  1.496315e-08
    907    909   2   0.50000     0.0600000    0.0600000   6.128906e-05  1.496315e-08
    882    885   2   0.50000    -0.1200000   -0.1200000   1.015252e-03  1.866303e-06
    882    910   2   0.50000    -0.1200000    0.0600000   2.494471e-04  1.671101e-07
    882    911   2   0.50000    -0.1200000    0.0600000   2.494471e-04  1.671101e-07
    908    885   2   0.50000     0.0600000   -0.1200000   2.494471e-04  1.671101e-07
    908    910   2   0.50000     0.0600000    0.0600000   6.128906e-05  1.496315e-08
    908    911   2   0.50000     0.0600000    0.0600000   6.128906e-05  1.496315e-08
    909    885   2   0.50000     0.0600000   -0.1200000   2.494471e-04  1.671101e-07
    909    910   2   0.50000     0.0600000    0.0600000   6.128906e-05  1.496315e-08
    909    911   2   0.50000     0.0600000    0.0600000   6.128906e-05  1.496315e-08
    883    886   2   0.50000    -0.1200000    0.5000000   1.575021e-03  3.561100e-06
    883    912   2   0.50000    -0.1200000    0.0600000   2.494471e-04  1.671101e-07
    883    913   2   0.50000    -0.1200000    0.0600000   2.494471e-04  1.671101e-07
    910    886   2   0.50000     0.0600000    0.5000000   3.869820e-04  3.188634e-07
    910    912   2   0.50000     0.0600000    0.0600000   6.128906e-05  1.496315e-08
    910    913   2   0.50000     0.0600000    0.0600000   6.128906e-05  1.496315e-08
    911    886   2   0.50000     0.0600000    0.5000000   3.869820e-04  3.188634e-07
    911    912   2   0.50000     0.0600000    0.0600000   6.128906e-05  1.496315e-08
    911    913   2   0.50000     0.0600000    0.0600000   6.128906e-05  1.496315e-08
    884    887   2   0.50000    -0.1200000   -0.5000000   1.095425e-03  1.218041e-06
    884    914   2   0.50000    -0.1200000   -0.5000000   1.304585e-03  1.920112e-06
    912    887   2   0.50000     0.0600000   -0.5000000   2.691455e-04  1.090642e-07
    912    914   2   0.50000     0.0600000   -0.5000000   3.205360e-04  1.719281e-07
    913    887   2   0.50000     0.0600000   -0.5000000   2.691455e-04  1.090642e-07
    913    914   2   0.50000     0.0600000   -0.5000000   3.205360e-04  1.719281e-07
    885    915   2   0.50000    -0.1200000    0.1950000   1.015252e-03  1.866303e-06
    885    936   2   0.50000    -0.1200000    0.3000000   1.995577e-06  1.069504e-11
    887    915   2   0.50000    -0.5000000    0.1950000   1.095425e-03  1.218041e-06
    887    936   2   0.50000    -0.5000000    0.3000000   2.153164e-06  6.980110e-12
    886    916   2   0.50000     0.5000000   -0.1150000   1.692561e-03  3.993218e-06
    886    937   2   0.50000     0.5000000    0.0600000   3.869820e-04  3.188634e-07
    886    938   2   0.50000     0.5000000    0.0600000   3.869820e-04  3.188634e-07
    936    916   2   0.50000     0.3000000   -0.1150000   2.144502e-06  1.199282e-11
    936    937   2   0.50000     0.3000000    0.0600000   4.903125e-07  9.576416e-13
    936    938   2   0.50000     0.3000000    0.0600000   4.903125e-07  9.576416e-13
    914    917   2   0.50000    -0.5000000   -0.1150000   1.401943e-03  2.153106e-06
    914    921   2   0.50000    -0.5000000   -0.1150000   1.401943e-03  2.153106e-06
    937    917   2   0.50000     0.0600000   -0.1150000   2.680627e-04  1.873879e-07
    937    921   2   0.50000     0.0600000   -0.1150000   2.680627e-04  1.873879e-07
    938    917   2   0.50000     0.0600000   -0.1150000   2.680627e-04  1.873879e-07
    938    921   2   0.50000     0.0600000   -0.1150000   2.680627e-04  1.873879e-07
    915    918   2   0.50000     0.1950000   -0.1150000   1.091018e-03  2.092768e-06
    915    939   2   0.50000     0.1950000    0.1150000   2.262583e-04  1.374848e-07
    921    918   2   0.50000    -0.1150000   -0.1150000   1.172438e-03  2.346713e-06
    921    939   2   0.50000    -0.1150000    0.1150000   2.431434e-04  1.541678e-07
    915    920   2   0.50000     0.1950000   -0.1150000   1.091018e-03  2.092768e-06
    915    922   2   0.50000     0.1950000    0.1950000   1.015252e-03  1.866303e-06
    917    920   2   0.50000    -0.1150000   -0.1150000   1.172438e-03  2.346713e-06
    917    922   2   0.50000    -0.1150000    0.1950000   1.091018e-03  2.092768e-06
    916    919   2   0.50000    -0.1150000   -0.1150000   1.172438e-03  2.346713e-06
    916    940   2   0.50000    -0.1150000    0.1150000   2.431434e-04  1.541678e-07
    939    919   2   0.50000     0.1150000   -0.1150000   2.431434e-04  1.541678e-07
    939    940   2   0.50000     0.1150000    0.1150000   5.042375e-05  1.012808e-08
    917    941   2   0.50000    -0.1150000    0.1150000   2.431434e-04  1.541678e-07
    940    920   2   0.50000     0.1150000   -0.1150000   2.431434e-04  1.541678e-07
    940    941   2   0.50000     0.1150000    0.1150000   5.042375e-05  1.012808e-08
    918    942   2   0.50000    -0.1150000    0.1150000   2.431434e-04  1.541678e-07
    941    921   2   0.50000     0.1150000   -0.1150000   2.431434e-04  1.541678e-07
    941    942   2   0.50000     0.1150000    0.1150000   5.042375e-05  1.012808e-08
    919    922   2   0.50000    -0.1150000    0.1950000   1.091018e-03  2.092768e-06
    942    916   2   0.50000     0.1150000   -0.1150000   2.431434e-04  1.541678e-07
    942    922   2   0.50000     0.1150000    0.1950000   2.262583e-04  1.374848e-07
    916    923   2   0.50000    -0.1150000   -0.5000000   1.401943e-03  2.153106e-06
    916    943   2   0.50000    -0.1150000    0.0600000   2.680627e-04  1.873879e-07
    916    944   2   0.50000    -0.1150000    0.0600000   2.680627e-04  1.873879e-07
    920    923   2   0.50000    -0.1150000   -0.5000000   1.401943e-03  2.153106e-06
    920    943   2   0.50000    -0.1150000    0.0600000   2.680627e-04  1.873879e-07
    920    944   2   0.50000    -0.1150000    0.0600000   2.680627e-04  1.873879e-07
    921    924   2   0.50000    -0.1150000    0.5000000   1.692561e-03  3.993218e-06
    921    945   2   0.50000    -0.1150000    0.3000000   2.144502e-06  1.199282e-11
    943    924   2   0.50000     0.0600000    0.5000000   3.869820e-04  3.188634e-07
    943    945   2   0.50000     0.0600000    0.3000000   4.903125e-07  9.576416e-13
    944    924   2   0.50000     0.0600000    0.5000000   3.869820e-04  3.188634e-07
    944    945   2   0.50000     0.0600000    0.3000000   4.903125e-07  9.576416e-13
    922    925   2   0.50000     0.1950000   -0.5000000   1.095425e-03  1.218041e-06
    922    926   2   0.50000     0.1950000   -0.1200000   1.015252e-03  1.866303e-06
    945    925   2   0.50000     0.3000000   -0.5000000   2.153164e-06  6.980110e-12
    945    926   2   0.50000     0.3000000   -0.1200000   1.995577e-06  1.069504e-11
    923    927   2   0.50000    -0.5000000   -0.1200000   1.304585e-03  1.920112e-06
    923    946   2   0.50000    -0.5000000    0.0600000   3.205360e-04  1.719281e-07
    923    947   2   0.50000    -0.5000000    0.0600000   3.205360e-04  1.719281e-07
    925    927   2   0.50000    -0.5000000   -0.1200000   1.095425e-03  1.218041e-06
    925    946   2   0.50000    -0.5000000    0.0600000   2.691455e-04  1.090642e-07
    925    947   2   0.50000    -0.5000000    0.0600000   2.691455e-04  1.090642e-07
    924    928   2   0.50000     0.5000000   -0.1200000   1.575021e-03  3.561100e-06
    924    948   2   0.50000     0.5000000    0.0600000   3.869820e-04  3.188634e-07
    924    949   2   0.50000     0.5000000    0.0600000   3.869820e-04  3.188634e-07
    946    928   2   0.50000     0.0600000   -0.1200000   2.494471e-04  1.671101e-07
    946    948   2   0.50000     0.0600000    0.0600000   6.128906e-05  1.496315e-08
    946    949   2   0.50000     0.0600000    0.0600000   6.128906e-05  1.496315e-08
    947    928   2   0.50000     0.0600000   -0.1200000   2.494471e-04  1.671101e-07
    947    948   2   0.50000     0.0600000    0.0600000   6.128906e-05  1.496315e-08
    947    949   2   0.50000     0.0600000    0.0600000   6.128906e-05  1.496315e-08
    926    929   2   0.50000    -0.1200000   -0.1200000   1.015252e-03  1.866303e-06
    926    950   2   0.50000    -0.1200000    0.0600000   2.494471e-04  1.671101e-07
    926    951   2   0.50000    -0.1200000    0.0600000   2.494471e-04  1.671101e-07
    948    929   2   0.50000     0.0600000   -0.1200000   2.494471e-04  1.671101e-07
    948    950   2   0.50000     0.0600000    0.0600000   6.128906e-05  1.496315e-08
    948    951   2   0.50000     0.0600000    0.0600000   6.128906e-05  1.496315e-08
    949    929   2   0.50000     0.0600000   -0.1200000   2.494471e-04  1.671101e-07
    949    950   2   0.50000     0.0600000    0.0600000   6.128906e-05  1.496315e-08
    949    951   2   0.50000     0.0600000    0.0600000   6.128906e-05  1.496315e-08
    927    930   2   0.50000    -0.1200000   -0.1200000   1.015252e-03  1.866303e-06
    927    952   2   0.50000    -0.1200000    0.0600000   2.494471e-04  1.671101e-07
    927    953   2   0.50000    -0.1200000    0.0600000   2.494471e-04  1.671101e-07
    950    930   2   0.50000     0.0600000   -0.1200000   2.494471e-04  1.671101e-07
    950    952   2   0.50000     0.0600000    0.0600000   6.128906e-05  1.496315e-08
    950    953   2   0.50000     0.0600000    0.0600000   6.128906e-05  1.496315e-08
    951    930   2   0.50000     0.0600000   -0.1200000   2.494471e-04  1.671101e-07
    951    952   2   0.50000     0.0600000    0.0600000   6.128906e-05  1.496315e-08
    951    953   2   0.50000     0.0600000    0.0600000   6.128906e-05  1.496315e-08
    928    931   2   0.50000    -0.1200000   -0.1200000   1.015252e-03  1.866303e-06
    928    954   2   0.50000    -0.1200000    0.0600000   2.494471e-04  1.671101e-07
    928    955   2   0.50000    -0.1200000    0.0600000   2.494471e-04  1.671101e-07
    952    931   2   0.50000     0.0600000   -0.1200000   2.494471e-04  1.671101e-07
    952    954   2   0.50000     0.0600000    0.0600000   6.128906e-05  1.496315e-08
    952    955   2   0.50000     0.0600000    0.0600000   6.128906e-05  1.496315e-08
    953    931   2   0.50000     0.0600000   -0.1200000   2.494471e-04  1.671101e-07
    953    954   2   0.50000     0.0600000    0.0600000   6.128906e-05  1.496315e-08
    953    955   2   0.50000     0.0600000    0.0600000   6.128906e-05  1.496315e-08
    929    932   2   0.50000    -0.1200000   -0.1200000   1.015252e-03  1.866303e-06
    929    956   2   0.50000    -0.1200000    0.0600000   2.494471e-04  1.671101e-07
    929    957   2   0.50000    -0.1200000    0.0600000   2.494471e-04  1.671101e-07
    954    932   2   0.50000     0.0600000   -0.1200000   2.494471e-04  1.671101e-07
    954    956   2   0.50000     0.0600000    0.0600000   6.128906e-05  1.496315e-08
    954    957   2   0.50000     0.0600000    0.0600000   6.128906e-05  1.496315e-08
    955    932   2   0.50000     0.0600000   -0.1200000   2.494471e-04  1.671101e-07
    955    956   2   0.50000     0.0600000    0.0600000   6.128906e-05  1.496315e-08
    955    957   2   0.50000     0.0600000    0.0600000   6.128906e-05  1.496315e-08
    930    933   2   0.50000    -0.1200000   -0.1200000   1.015252e-03  1.866303e-06
    930    958   2   0.50000    -0.1200000    0.0600000   2.494471e-04  1.671101e-07
    930    959   2   0.50000    -0.1200000    0.0600000   2.494471e-04  1.671101e-07
    956    933   2   0.50000     0.0600000   -0.1200000   2.494471e-04  1.671101e-07
    956    958   2   0.50000     0.0600000    0.0600000   6.128906e-05  1.496315e-08
    956    959   2   0.50000     0.0600000    0.0600000   6.128906e-05  1.496315e-08
    957    933   2   0.50000     0.0600000   -0.1200000   2.494471e-04  1.671101e-07
    957    958   2   0.50000     0.0600000    0.0600000   6.128906e-05  1.496315e-08
    957    959   2   0.50000     0.0600000    0.0600000   6.128906e-05  1.496315e-08
    931    934   2   0.50000    -0.1200000    0.4500000   1.575021e-03  3.561100e-06
    931    960   2   0.50000    -0.1200000    0.0600000   1.599888e-04  9.721644e-08
    931    961   2   0.50000    -0.1200000    0.0600000   1.599888e-04  9.721644e-08
    958    934   2   0.50000     0.0600000    0.4500000   3.869820e-04  3.188634e-07
    958    960   2   0.50000     0.0600000    0.0600000   3.930919e-05  8.704828e-09
    958    961   2   0.50000     0.0600000    0.0600000   3.930919e-05  8.704828e-09
    959    934   2   0.50000     0.0600000    0.4500000   3.869820e-04  3.188634e-07
    959    960   2   0.50000     0.0600000    0.0600000   3.930919e-05  8.704828e-09
    959    961   2   0.50000     0.0600000    0.0600000   3.930919e-05  8.704828e-09
    932    935   2   0.50000    -0.1200000   -0.4500000   1.095425e-03  1.218041e-06
    932    962   2   0.50000    -0.1200000    0.0000000   1.599888e-04  9.721644e-08
    960    935   2   0.50000     0.0600000   -0.4500000   1.726228e-04  6.344822e-08
    960    962   2   0.50000     0.0600000    0.0000000   2.521187e-05  5.064042e-09
    961    935   2   0.50000     0.0600000   -0.4500000   1.726228e-04  6.344822e-08
    961    962   2   0.50000     0.0600000    0.0000000   2.521187e-05  5.064042e-09

[ angles ]
; ai  aj  ak
      2      1     23   1    109.5000    292.8800
      2      1     49   1    109.5000    292.8800
     23      1     49   1    106.4000    364.8448
      1      2      3   1    112.3300    627.6000
      1      2     24   1    109.5000    292.8800
      1      2     25   1    109.5000    292.8800
      3      2     24   1    109.5000    292.8800
      3      2     25   1    109.5000    292.8800
     24      2     25   1    107.8000    276.1440
      2      3      4   1    120.0000    585.7600
      2      3      8   1    120.0000    585.7600
      4      3      8   1    120.0000    527.1840
      3      4      5   1    120.0000    527.1840
      3      4     26   1    120.0000    292.8800
      5      4     26   1    120.0000    292.8800
      4      5      6   1    120.0000    527.1840
      4      5     27   1    120.0000    292.8800
      6      5     27   1    120.0000    292.8800
      5      6      7   1    120.0000    527.1840
      5      6     28   1    120.0000    292.8800
      7      6     28   1    120.0000    292.8800
      6      7      8   1    120.0000    527.1840
      6      7     29   1    120.0000    292.8800
      8      7     29   1    120.0000    292.8800
      3      8      7   1    120.0000    527.1840
      3      8      9   1    120.0000    585.7600
      7      8      9   1    120.0000    585.7600
      8      9     10   1    111.9640    627.6000
      8      9     30   1    109.5000    292.8800
      8      9     31   1    109.5000    292.8800
     10      9     30   1    109.5000    292.8800
     10      9     31   1    109.5000    292.8800
     30      9     31   1    107.8000    276.1440
      9     10     11   1    121.9000    418.4000
      9     10     32   1    118.4000    317.9840
     11     10     32   1    119.8000    292.8800
     10     11     12   1    122.9000    669.4400
     10     11     13   1    116.6000    585.7600
     12     11     13   1    120.4000    669.4400
     11     13     14   1    111.1000    527.1840
     11     13     33   1    109.5000    292.8800
     11     13     34   1    109.5000    292.8800
     14     13     33   1    110.7000    313.8000
     14     13     34   1    110.7000    313.8000
     33     13     34   1    107.8000    276.1440
     13     14     15   1    112.7000    488.2728
     13     14     35   1    110.7000    313.8000
     13     14     36   1    110.7000    313.8000
     15     14     35   1    110.7000    313.8000
     15     14     36   1    110.7000    313.8000
     35     14     36   1    107.8000    276.1440
     14     15     16   1    112.7000    488.2728
     14     15     37   1    110.7000    313.8000
     14     15     38   1    110.7000    313.8000
     16     15     37   1    110.7000    313.8000
     16     15     38   1    110.7000    313.8000
     37     15     38   1    107.8000    276.1440
     15     16     17   1    112.7000    488.2728
     15     16     39   1    110.7000    313.8000
     15     16     40   1    110.7000    313.8000
     17     16     39   1    110.7000    313.8000
     17     16     40   1    110.7000    313.8000
     39     16     40   1    107.8000    276.1440
     16     17     18   1    112.7000    488.2728
     16     17     41   1    110.7000    313.8000
     16     17     42   1    110.7000    313.8000
     18     17     41   1    110.7000    313.8000
     18     17     42   1    110.7000    313.8000
     41     17     42   1    107.8000    276.1440
     17     18     19   1    112.7000    488.2728
     17     18     43   1    110.7000    313.8000
     17     18     44   1    110.7000    313.8000
     19     18     43   1    110.7000    313.8000
     19     18     44   1    110.7000    313.8000
     43     18     44   1    107.8000    276.1440
     18     19     20   1    112.7000    488.2728
     18     19     45   1    110.7000    313.8000
     18     19     46   1    110.7000    313.8000
     20     19     45   1    110.7000    313.8000
     20     19     46   1    110.7000    313.8000
     45     19     46   1    107.8000    276.1440
     19     20     21   1    111.1000    527.1840
     19     20     47   1    110.7000    313.8000
     19     20     48   1    110.7000    313.8000
     21     20     47   1    109.5000    292.8800
     21     20     48   1    109.5000    292.8800
     47     20     48   1    107.8000    276.1440
     20     21     22   1    120.4000    669.4400
     20     21     50   1    116.6000    585.7600
     22     21     50   1    122.9000    669.4400
     21     50     51   1    121.9000    418.4000
     21     50     72   1    119.8000    292.8800
     51     50     72   1    118.4000    317.9840
     50     51     52   1    111.9640    627.6000
     50     51     73   1    109.5000    292.8800
     50     51     74   1    109.5000    292.8800
     52     51     73   1    109.5000    292.8800
     52     51     74   1    109.5000    292.8800
     73     51     74   1    107.8000    276.1440
     51     52     53   1    120.0000    585.7600
     51     52     57   1    120.0000    585.7600
     53     52     57   1    120.0000    527.1840
     52     53     54   1    120.0000    527.1840
     52     53     75   1    120.0000    292.8800
     54     53     75   1    120.0000    292.8800
     53     54     55   1    120.0000    527.1840
     53     54     76   1    120.0000    292.8800
     55     54     76   1    120.0000    292.8800
     54     55     56   1    120.0000    527.1840
     54     55     77   1    120.0000    292.8800
     56     55     77   1    120.0000    292.8800
     55     56     57   1    120.0000    527.1840
     55     56     78   1    120.0000    292.8800
     57     56     78   1    120.0000    292.8800
     52     57     56   1    120.0000    527.1840
     52     57     58   1    120.0000    585.7600
     56     57     58   1    120.0000    585.7600
     57     58     59   1    111.9640    627.6000
     57     58     79   1    109.5000    292.8800
     57     58     80   1    109.5000    292.8800
     59     58     79   1    109.5000    292.8800
     59     58     80   1    109.5000    292.8800
     79     58     80   1    107.8000    276.1440
     58     59     60   1    121.9000    418.4000
     58     59     81   1    118.4000    317.9840
     60     59     81   1    119.8000    292.8800
     59     60     61   1    122.9000    669.4400
     59     60     62   1    116.6000    585.7600
     61     60     62   1    120.4000    669.4400
     60     62     63   1    111.1000    527.1840
     60     62     82   1    109.5000    292.8800
     60     62     83   1    109.5000    292.8800
     63     62     82   1    110.7000    313.8000
     63     62     83   1    110.7000    313.8000
     82     62     83   1    107.8000    276.1440
     62     63     64   1    112.7000    488.2728
     62     63     84   1    110.7000    313.8000
     62     63     85   1    110.7000    313.8000
     64     63     84   1    110.7000    313.8000
     64     63     85   1    110.7000    313.8000
     84     63     85   1    107.8000    276.1440
     63     64     65   1    112.7000    488.2728
     63     64     86   1    110.7000    313.8000
     63     64     87   1    110.7000    313.8000
     65     64     86   1    110.7000    313.8000
     65     64     87   1    110.7000    313.8000
     86     64     87   1    107.8000    276.1440
     64     65     66   1    112.7000    488.2728
     64     65     88   1    110.7000    313.8000
     64     65     89   1    110.7000    313.8000
     66     65     88   1    110.7000    313.8000
     66     65     89   1    110.7000    313.8000
     88     65     89   1    107.8000    276.1440
     65     66     67   1    112.7000    488.2728
     65     66     90   1    110.7000    313.8000
     65     66     91   1    110.7000    313.8000
     67     66     90   1    110.7000    313.8000
     67     66     91   1    110.7000    313.8000
     90     66     91   1    107.8000    276.1440
     66     67     68   1    112.7000    488.2728
     66     67     92   1    110.7000    313.8000
     66     67     93   1    110.7000    313.8000
     68     67     92   1    110.7000    313.8000
     68     67     93   1    110.7000    313.8000
     92     67     93   1    107.8000    276.1440
     67     68     69   1    112.7000    488.2728
     67     68     94   1    110.7000    313.8000
     67     68     95   1    110.7000    313.8000
     69     68     94   1    110.7000    313.8000
     69     68     95   1    110.7000    313.8000
     94     68     95   1    107.8000    276.1440
     68     69     70   1    111.1000    527.1840
     68     69     96   1    110.7000    313.8000
     68     69     97   1    110.7000    313.8000
     70     69     96   1    109.5000    292.8800
     70     69     97   1    109.5000    292.8800
     96     69     97   1    107.8000    276.1440
     69     70     71   1    120.4000    669.4400
     69     70     98   1    116.6000    585.7600
     71     70     98   1    122.9000    669.4400
     70     98     99   1    121.9000    418.4000
     70     98    120   1    119.8000    292.8800
     99     98    120   1    118.4000    317.9840
     98     99    100   1    111.9640    627.6000
     98     99    121   1    109.5000    292.8800
     98     99    122   1    109.5000    292.8800
    100     99    121   1    109.5000    292.8800
    100     99    122   1    109.5000    292.8800
    121     99    122   1    107.8000    276.1440
     99    100    101   1    120.0000    585.7600
     99    100    105   1    120.0000    585.7600
    101    100    105   1    120.0000    527.1840
    100    101    102   1    120.0000    527.1840
    100    101    123   1    120.0000    292.8800
    102    101    123   1    120.0000    292.8800
    101    102    103   1    120.0000    527.1840
    101    102    124   1    120.0000    292.8800
    103    102    124   1    120.0000    292.8800
    102    103    104   1    120.0000    527.1840
    102    103    125   1    120.0000    292.8800
    104    103    125   1    120.0000    292.8800
    103    104    105   1    120.0000    527.1840
    103    104    126   1    120.0000    292.8800
    105    104    126   1    120.0000    292.8800
    100    105    104   1    120.0000    527.1840
    100    105    106   1    120.0000    585.7600
    104    105    106   1    120.0000    585.7600
    105    106    107   1    111.9640    627.6000
    105    106    127   1    109.5000    292.8800
    105    106    128   1    109.5000    292.8800
    107    106    127   1    109.5000    292.8800
    107    106    128   1    109.5000    292.8800
    127    106    128   1    107.8000    276.1440
    106    107    108   1    121.9000    418.4000
    106    107    129   1    118.4000    317.9840
    108    107    129   1    119.8000    292.8800
    107    108    109   1    122.9000    669.4400
    107    108    110   1    116.6000    585.7600
    109    108    110   1    120.4000    669.4400
    108    110    111   1    111.1000    527.1840
    108    110    130   1    109.5000    292.8800
    108    110    131   1    109.5000    292.8800
    111    110    130   1    110.7000    313.8000
    111    110    131   1    110.7000    313.8000
    130    110    131   1    107.8000    276.1440
    110    111    112   1    112.7000    488.2728
    110    111    132   1    110.7000    313.8000
    110    111    133   1    110.7000    313.8000
    112    111    132   1    110.7000    313.8000
    112    111    133   1    110.7000    313.8000
    132    111    133   1    107.8000    276.1440
    111    112    113   1    112.7000    488.2728
    111    112    134   1    110.7000    313.8000
    111    112    135   1    110.7000    313.8000
    113    112    134   1    110.7000    313.8000
    113    112    135   1    110.7000    313.8000
    134    112    135   1    107.8000    276.1440
    112    113    114   1    112.7000    488.2728
    112    113    136   1    110.7000    313.8000
    112    113    137   1    110.7000    313.8000
    114    113    136   1    110.7000    313.8000
    114    113    137   1    110.7000    313.8000
    136    113    137   1    107.8000    276.1440
    113    114    115   1    112.7000    488.2728
    113    114    138   1    110.7000    313.8000
    113    114    139   1    110.7000    313.8000
    115    114    138   1    110.7000    313.8000
    115    114    139   1    110.7000    313.8000
    138    114    139   1    107.8000    276.1440
    114    115    116   1    112.7000    488.2728
    114    115    140   1    110.7000    313.8000
    114    115    141   1    110.7000    313.8000
    116    115    140   1    110.7000    313.8000
    116    115    141   1    110.7000    313.8000
    140    115    141   1    107.8000    276.1440
    115    116    117   1    112.7000    488.2728
    115    116    142   1    110.7000    313.8000
    115    116    143   1    110.7000    313.8000
    117    116    142   1    110.7000    313.8000
    117    116    143   1    110.7000    313.8000
    142    116    143   1    107.8000    276.1440
    116    117    118   1    111.1000    527.1840
    116    117    144   1    110.7000    313.8000
    116    117    145   1    110.7000    313.8000
    118    117    144   1    109.5000    292.8800
    118    117    145   1    109.5000    292.8800
    144    117    145   1    107.8000    276.1440
    117    118    119   1    120.4000    669.4400
    117    118    146   1    116.6000    585.7600
    119    118    146   1    122.9000    669.4400
    118    146    147   1    121.9000    418.4000
    118    146    168   1    119.8000    292.8800
    147    146    168   1    118.4000    317.9840
    146    147    148   1    111.9640    627.6000
    146    147    169   1    109.5000    292.8800
    146    147    170   1    109.5000    292.8800
    148    147    169   1    109.5000    292.8800
    148    147    170   1    109.5000    292.8800
    169    147    170   1    107.8000    276.1440
    147    148    149   1    120.0000    585.7600
    147    148    153   1    120.0000    585.7600
    149    148    153   1    120.0000    527.1840
    148    149    150   1    120.0000    527.1840
    148    149    171   1    120.0000    292.8800
    150    149    171   1    120.0000    292.8800
    149    150    151   1    120.0000    527.1840
    149    150    172   1    120.0000    292.8800
    151    150    172   1    120.0000    292.8800
    150    151    152   1    120.0000    527.1840
    150    151    173   1    120.0000    292.8800
    152    151    173   1    120.0000    292.8800
    151    152    153   1    120.0000    527.1840
    151    152    174   1    120.0000    292.8800
    153    152    174   1    120.0000    292.8800
    148    153    152   1    120.0000    527.1840
    148    153    154   1    120.0000    585.7600
    152    153    154   1    120.0000    585.7600
    153    154    155   1    111.9640    627.6000
    153    154    175   1    109.5000    292.8800
    153    154    176   1    109.5000    292.8800
    155    154    175   1    109.5000    292.8800
    155    154    176   1    109.5000    292.8800
    175    154    176   1    107.8000    276.1440
    154    155    156   1    121.9000    418.4000
    154    155    177   1    118.4000    317.9840
    156    155    177   1    119.8000    292.8800
    155    156    157   1    122.9000    669.4400
    155    156    158   1    116.6000    585.7600
    157    156    158   1    120.4000    669.4400
    156    158    159   1    111.1000    527.1840
    156    158    178   1    109.5000    292.8800
    156    158    179   1    109.5000    292.8800
    159    158    178   1    110.7000    313.8000
    159    158    179   1    110.7000    313.8000
    178    158    179   1    107.8000    276.1440
    158    159    160   1    112.7000    488.2728
    158    159    180   1    110.7000    313.8000
    158    159    181   1    110.7000    313.8000
    160    159    180   1    110.7000    313.8000
    160    159    181   1    110.7000    313.8000
    180    159    181   1    107.8000    276.1440
    159    160    161   1    112.7000    488.2728
    159    160    182   1    110.7000    313.8000
    159    160    183   1    110.7000    313.8000
    161    160    182   1    110.7000    313.8000
    161    160    183   1    110.7000    313.8000
    182    160    183   1    107.8000    276.1440
    160    161    162   1    112.7000    488.2728
    160    161    184   1    110.7000    313.8000
    160    161    185   1    110.7000    313.8000
    162    161    184   1    110.7000    313.8000
    162    161    185   1    110.7000    313.8000
    184    161    185   1    107.8000    276.1440
    161    162    163   1    112.7000    488.2728
    161    162    186   1    110.7000    313.8000
    161    162    187   1    110.7000    313.8000
    163    162    186   1    110.7000    313.8000
    163    162    187   1    110.7000    313.8000
    186    162    187   1    107.8000    276.1440
    162    163    164   1    112.7000    488.2728
    162    163    188   1    110.7000    313.8000
    162    163    189   1    110.7000    313.8000
    164    163    188   1    110.7000    313.8000
    164    163    189   1    110.7000    313.8000
    188    163    189   1    107.8000    276.1440
    163    164    165   1    112.7000    488.2728
    163    164    190   1    110.7000    313.8000
    163    164    191   1    110.7000    313.8000
    165    164    190   1    110.7000    313.8000
    165    164    191   1    110.7000    313.8000
    190    164    191   1    107.8000    276.1440
    164    165    166   1    111.1000    527.1840
    164    165    192   1    110.7000    313.8000
    164    165    193   1    110.7000    313.8000
    166    165    192   1    109.5000    292.8800
    166    165    193   1    109.5000    292.8800
    192    165    193   1    107.8000    276.1440
    165    166    167   1    120.4000    669.4400
    165    166    194   1    116.6000    585.7600
    167    166    194   1    122.9000    669.4400
    166    194    195   1    121.9000    418.4000
    166    194    216   1    119.8000    292.8800
    195    194    216   1    118.4000    317.9840
    194    195    196   1    111.9640    627.6000
    194    195    217   1    109.5000    292.8800
    194    195    218   1    109.5000    292.8800
    196    195    217   1    109.5000    292.8800
    196    195    218   1    109.5000    292.8800
    217    195    218   1    107.8000    276.1440
    195    196    197   1    120.0000    585.7600
    195    196    201   1    120.0000    585.7600
    197    196    201   1    120.0000    527.1840
    196    197    198   1    120.0000    527.1840
    196    197    219   1    120.0000    292.8800
    198    197    219   1    120.0000    292.8800
    197    198    199   1    120.0000    527.1840
    197    198    220   1    120.0000    292.8800
    199    198    220   1    120.0000    292.8800
    198    199    200   1    120.0000    527.1840
    198    199    221   1    120.0000    292.8800
    200    199    221   1    120.0000    292.8800
    199    200    201   1    120.0000    527.1840
    199    200    222   1    120.0000    292.8800
    201    200    222   1    120.0000    292.8800
    196    201    200   1    120.0000    527.1840
    196    201    202   1    120.0000    585.7600
    200    201    202   1    120.0000    585.7600
    201    202    203   1    111.9640    627.6000
    201    202    223   1    109.5000    292.8800
    201    202    224   1    109.5000    292.8800
    203    202    223   1    109.5000    292.8800
    203    202    224   1    109.5000    292.8800
    223    202    224   1    107.8000    276.1440
    202    203    204   1    121.9000    418.4000
    202    203    225   1    118.4000    317.9840
    204    203    225   1    119.8000    292.8800
    203    204    205   1    122.9000    669.4400
    203    204    206   1    116.6000    585.7600
    205    204    206   1    120.4000    669.4400
    204    206    207   1    111.1000    527.1840
    204    206    226   1    109.5000    292.8800
    204    206    227   1    109.5000    292.8800
    207    206    226   1    110.7000    313.8000
    207    206    227   1    110.7000    313.8000
    226    206    227   1    107.8000    276.1440
    206    207    208   1    112.7000    488.2728
    206    207    228   1    110.7000    313.8000
    206    207    229   1    110.7000    313.8000
    208    207    228   1    110.7000    313.8000
    208    207    229   1    110.7000    313.8000
    228    207    229   1    107.8000    276.1440
    207    208    209   1    112.7000    488.2728
    207    208    230   1    110.7000    313.8000
    207    208    231   1    110.7000    313.8000
    209    208    230   1    110.7000    313.8000
    209    208    231   1    110.7000    313.8000
    230    208    231   1    107.8000    276.1440
    208    209    210   1    112.7000    488.2728
    208    209    232   1    110.7000    313.8000
    208    209    233   1    110.7000    313.8000
    210    209    232   1    110.7000    313.8000
    210    209    233   1    110.7000    313.8000
    232    209    233   1    107.8000    276.1440
    209    210    211   1    112.7000    488.2728
    209    210    234   1    110.7000    313.8000
    209    210    235   1    110.7000    313.8000
    211    210    234   1    110.7000    313.8000
    211    210    235   1    110.7000    313.8000
    234    210    235   1    107.8000    276.1440
    210    211    212   1    112.7000    488.2728
    210    211    236   1    110.7000    313.8000
    210    211    237   1    110.7000    313.8000
    212    211    236   1    110.7000    313.8000
    212    211    237   1    110.7000    313.8000
    236    211    237   1    107.8000    276.1440
    211    212    213   1    112.7000    488.2728
    211    212    238   1    110.7000    313.8000
    211    212    239   1    110.7000    313.8000
    213    212    238   1    110.7000    313.8000
    213    212    239   1    110.7000    313.8000
    238    212    239   1    107.8000    276.1440
    212    213    214   1    111.1000    527.1840
    212    213    240   1    110.7000    313.8000
    212    213    241   1    110.7000    313.8000
    214    213    240   1    109.5000    292.8800
    214    213    241   1    109.5000    292.8800
    240    213    241   1    107.8000    276.1440
    213    214    215   1    120.4000    669.4400
    213    214    242   1    116.6000    585.7600
    215    214    242   1    122.9000    669.4400
    214    242    243   1    121.9000    418.4000
    214    242    264   1    119.8000    292.8800
    243    242    264   1    118.4000    317.9840
    242    243    244   1    111.9640    627.6000
    242    243    265   1    109.5000    292.8800
    242    243    266   1    109.5000    292.8800
    244    243    265   1    109.5000    292.8800
    244    243    266   1    109.5000    292.8800
    265    243    266   1    107.8000    276.1440
    243    244    245   1    120.0000    585.7600
    243    244    249   1    120.0000    585.7600
    245    244    249   1    120.0000    527.1840
    244    245    246   1    120.0000    527.1840
    244    245    267   1    120.0000    292.8800
    246    245    267   1    120.0000    292.8800
    245    246    247   1    120.0000    527.1840
    245    246    268   1    120.0000    292.8800
    247    246    268   1    120.0000    292.8800
    246    247    248   1    120.0000    527.1840
    246    247    269   1    120.0000    292.8800
    248    247    269   1    120.0000    292.8800
    247    248    249   1    120.0000    527.1840
    247    248    270   1    120.0000    292.8800
    249    248    270   1    120.0000    292.8800
    244    249    248   1    120.0000    527.1840
    244    249    250   1    120.0000    585.7600
    248    249    250   1    120.0000    585.7600
    249    250    251   1    111.9640    627.6000
    249    250    271   1    109.5000    292.8800
    249    250    272   1    109.5000    292.8800
    251    250    271   1    109.5000    292.8800
    251    250    272   1    109.5000    292.8800
    271    250    272   1    107.8000    276.1440
    250    251    252   1    121.9000    418.4000
    250    251    273   1    118.4000    317.9840
    252    251    273   1    119.8000    292.8800
    251    252    253   1    122.9000    669.4400
    251    252    254   1    116.6000    585.7600
    253    252    254   1    120.4000    669.4400
    252    254    255   1    111.1000    527.1840
    252    254    274   1    109.5000    292.8800
    252    254    275   1    109.5000    292.8800
    255    254    274   1    110.7000    313.8000
    255    254    275   1    110.7000    313.8000
    274    254    275   1    107.8000    276.1440
    254    255    256   1    112.7000    488.2728
    254    255    276   1    110.7000    313.8000
    254    255    277   1    110.7000    313.8000
    256    255    276   1    110.7000    313.8000
    256    255    277   1    110.7000    313.8000
    276    255    277   1    107.8000    276.1440
    255    256    257   1    112.7000    488.2728
    255    256    278   1    110.7000    313.8000
    255    256    279   1    110.7000    313.8000
    257    256    278   1    110.7000    313.8000
    257    256    279   1    110.7000    313.8000
    278    256    279   1    107.8000    276.1440
    256    257    258   1    112.7000    488.2728
    256    257    280   1    110.7000    313.8000
    256    257    281   1    110.7000    313.8000
    258    257    280   1    110.7000    313.8000
    258    257    281   1    110.7000    313.8000
    280    257    281   1    107.8000    276.1440
    257    258    259   1    112.7000    488.2728
    257    258    282   1    110.7000    313.8000
    257    258    283   1    110.7000    313.8000
    259    258    282   1    110.7000    313.8000
    259    258    283   1    110.7000    313.8000
    282    258    283   1    107.8000    276.1440
    258    259    260   1    112.7000    488.2728
    258    259    284   1    110.7000    313.8000
    258    259    285   1    110.7000    313.8000
    260    259    284   1    110.7000    313.8000
    260    259    285   1    110.7000    313.8000
    284    259    285   1    107.8000    276.1440
    259    260    261   1    112.7000    488.2728
    259    260    286   1    110.7000    313.8000
    259    260    287   1    110.7000    313.8000
    261    260    286   1    110.7000    313.8000
    261    260    287   1    110.7000    313.8000
    286    260    287   1    107.8000    276.1440
    260    261    262   1    111.1000    527.1840
    260    261    288   1    110.7000    313.8000
    260    261    289   1    110.7000    313.8000
    262    261    288   1    109.5000    292.8800
    262    261    289   1    109.5000    292.8800
    288    261    289   1    107.8000    276.1440
    261    262    263   1    120.4000    669.4400
    261    262    290   1    116.6000    585.7600
    263    262    290   1    122.9000    669.4400
    262    290    291   1    121.9000    418.4000
    262    290    312   1    119.8000    292.8800
    291    290    312   1    118.4000    317.9840
    290    291    292   1    111.9640    627.6000
    290    291    313   1    109.5000    292.8800
    290    291    314   1    109.5000    292.8800
    292    291    313   1    109.5000    292.8800
    292    291    314   1    109.5000    292.8800
    313    291    314   1    107.8000    276.1440
    291    292    293   1    120.0000    585.7600
    291    292    297   1    120.0000    585.7600
    293    292    297   1    120.0000    527.1840
    292    293    294   1    120.0000    527.1840
    292    293    315   1    120.0000    292.8800
    294    293    315   1    120.0000    292.8800
    293    294    295   1    120.0000    527.1840
    293    294    316   1    120.0000    292.8800
    295    294    316   1    120.0000    292.8800
    294    295    296   1    120.0000    527.1840
    294    295    317   1    120.0000    292.8800
    296    295    317   1    120.0000    292.8800
    295    296    297   1    120.0000    527.1840
    295    296    318   1    120.0000    292.8800
    297    296    318   1    120.0000    292.8800
    292    297    296   1    120.0000    527.1840
    292    297    298   1    120.0000    585.7600
    296    297    298   1    120.0000    585.7600
    297    298    299   1    111.9640    627.6000
    297    298    319   1    109.5000    292.8800
    297    298    320   1    109.5000    292.8800
    299    298    319   1    109.5000    292.8800
    299    298    320   1    109.5000    292.8800
    319    298    320   1    107.8000    276.1440
    298    299    300   1    121.9000    418.4000
    298    299    321   1    118.4000    317.9840
    300    299    321   1    119.8000    292.8800
    299    300    301   1    122.9000    669.4400
    299    300    302   1    116.6000    585.7600
    301    300    302   1    120.4000    669.4400
    300    302    303   1    111.1000    527.1840
    300    302    322   1    109.5000    292.8800
    300    302    323   1    109.5000    292.8800
    303    302    322   1    110.7000    313.8000
    303    302    323   1    110.7000    313.8000
    322    302    323   1    107.8000    276.1440
    302    303    304   1    112.7000    488.2728
    302    303    324   1    110.7000    313.8000
    302    303    325   1    110.7000    313.8000
    304    303    324   1    110.7000    313.8000
    304    303    325   1    110.7000    313.8000
    324    303    325   1    107.8000    276.1440
    303    304    305   1    112.7000    488.2728
    303    304    326   1    110.7000    313.8000
    303    304    327   1    110.7000    313.8000
    305    304    326   1    110.7000    313.8000
    305    304    327   1    110.7000    313.8000
    326    304    327   1    107.8000    276.1440
    304    305    306   1    112.7000    488.2728
    304    305    328   1    110.7000    313.8000
    304    305    329   1    110.7000    313.8000
    306    305    328   1    110.7000    313.8000
    306    305    329   1    110.7000    313.8000
    328    305    329   1    107.8000    276.1440
    305    306    307   1    112.7000    488.2728
    305    306    330   1    110.7000    313.8000
    305    306    331   1    110.7000    313.8000
    307    306    330   1    110.7000    313.8000
    307    306    331   1    110.7000    313.8000
    330    306    331   1    107.8000    276.1440
    306    307    308   1    112.7000    488.2728
    306    307    332   1    110.7000    313.8000
    306    307    333   1    110.7000    313.8000
    308    307    332   1    110.7000    313.8000
    308    307    333   1    110.7000    313.8000
    332    307    333   1    107.8000    276.1440
    307    308    309   1    112.7000    488.2728
    307    308    334   1    110.7000    313.8000
    307    308    335   1    110.7000    313.8000
    309    308    334   1    110.7000    313.8000
    309    308    335   1    110.7000    313.8000
    334    308    335   1    107.8000    276.1440
    308    309    310   1    111.1000    527.1840
    308    309    336   1    110.7000    313.8000
    308    309    337   1    110.7000    313.8000
    310    309    336   1    109.5000    292.8800
    310    309    337   1    109.5000    292.8800
    336    309    337   1    107.8000    276.1440
    309    310    311   1    120.4000    669.4400
    309    310    338   1    116.6000    585.7600
    311    310    338   1    122.9000    669.4400
    310    338    339   1    121.9000    418.4000
    310    338    360   1    119.8000    292.8800
    339    338    360   1    118.4000    317.9840
    338    339    340   1    111.9640    627.6000
    338    339    361   1    109.5000    292.8800
    338    339    362   1    109.5000    292.8800
    340    339    361   1    109.5000    292.8800
    340    339    362   1    109.5000    292.8800
    361    339    362   1    107.8000    276.1440
    339    340    341   1    120.0000    585.7600
    339    340    345   1    120.0000    585.7600
    341    340    345   1    120.0000    527.1840
    340    341    342   1    120.0000    527.1840
    340    341    363   1    120.0000    292.8800
    342    341    363   1    120.0000    292.8800
    341    342    343   1    120.0000    527.1840
    341    342    364   1    120.0000    292.8800
    343    342    364   1    120.0000    292.8800
    342    343    344   1    120.0000    527.1840
    342    343    365   1    120.0000    292.8800
    344    343    365   1    120.0000    292.8800
    343    344    345   1    120.0000    527.1840
    343    344    366   1    120.0000    292.8800
    345    344    366   1    120.0000    292.8800
    340    345    344   1    120.0000    527.1840
    340    345    346   1    120.0000    585.7600
    344    345    346   1    120.0000    585.7600
    345    346    347   1    111.9640    627.6000
    345    346    367   1    109.5000    292.8800
    345    346    368   1    109.5000    292.8800
    347    346    367   1    109.5000    292.8800
    347    346    368   1    109.5000    292.8800
    367    346    368   1    107.8000    276.1440
    346    347    348   1    121.9000    418.4000
    346    347    369   1    118.4000    317.9840
    348    347    369   1    119.8000    292.8800
    347    348    349   1    122.9000    669.4400
    347    348    350   1    116.6000    585.7600
    349    348    350   1    120.4000    669.4400
    348    350    351   1    111.1000    527.1840
    348    350    370   1    109.5000    292.8800
    348    350    371   1    109.5000    292.8800
    351    350    370   1    110.7000    313.8000
    351    350    371   1    110.7000    313.8000
    370    350    371   1    107.8000    276.1440
    350    351    352   1    112.7000    488.2728
    350    351    372   1    110.7000    313.8000
    350    351    373   1    110.7000    313.8000
    352    351    372   1    110.7000    313.8000
    352    351    373   1    110.7000    313.8000
    372    351    373   1    107.8000    276.1440
    351    352    353   1    112.7000    488.2728
    351    352    374   1    110.7000    313.8000
    351    352    375   1    110.7000    313.8000
    353    352    374   1    110.7000    313.8000
    353    352    375   1    110.7000    313.8000
    374    352    375   1    107.8000    276.1440
    352    353    354   1    112.7000    488.2728
    352    353    376   1    110.7000    313.8000
    352    353    377   1    110.7000    313.8000
    354    353    376   1    110.7000    313.8000
    354    353    377   1    110.7000    313.8000
    376    353    377   1    107.8000    276.1440
    353    354    355   1    112.7000    488.2728
    353    354    378   1    110.7000    313.8000
    353    354    379   1    110.7000    313.8000
    355    354    378   1    110.7000    313.8000
    355    354    379   1    110.7000    313.8000
    378    354    379   1    107.8000    276.1440
    354    355    356   1    112.7000    488.2728
    354    355    380   1    110.7000    313.8000
    354    355    381   1    110.7000    313.8000
    356    355    380   1    110.7000    313.8000
    356    355    381   1    110.7000    313.8000
    380    355    381   1    107.8000    276.1440
    355    356    357   1    112.7000    488.2728
    355    356    382   1    110.7000    313.8000
    355    356    383   1    110.7000    313.8000
    357    356    382   1    110.7000    313.8000
    357    356    383   1    110.7000    313.8000
    382    356    383   1    107.8000    276.1440
    356    357    358   1    111.1000    527.1840
    356    357    384   1    110.7000    313.8000
    356    357    385   1    110.7000    313.8000
    358    357    384   1    109.5000    292.8800
    358    357    385   1    109.5000    292.8800
    384    357    385   1    107.8000    276.1440
    357    358    359   1    120.4000    669.4400
    357    358    386   1    116.6000    585.7600
    359    358    386   1    122.9000    669.4400
    358    386    387   1    121.9000    418.4000
    358    386    408   1    119.8000    292.8800
    387    386    408   1    118.4000    317.9840
    386    387    388   1    111.9640    627.6000
    386    387    409   1    109.5000    292.8800
    386    387    410   1    109.5000    292.8800
    388    387    409   1    109.5000    292.8800
    388    387    410   1    109.5000    292.8800
    409    387    410   1    107.8000    276.1440
    387    388    389   1    120.0000    585.7600
    387    388    393   1    120.0000    585.7600
    389    388    393   1    120.0000    527.1840
    388    389    390   1    120.0000    527.1840
    388    389    411   1    120.0000    292.8800
    390    389    411   1    120.0000    292.8800
    389    390    391   1    120.0000    527.1840
    389    390    412   1    120.0000    292.8800
    391    390    412   1    120.0000    292.8800
    390    391    392   1    120.0000    527.1840
    390    391    413   1    120.0000    292.8800
    392    391    413   1    120.0000    292.8800
    391    392    393   1    120.0000    527.1840
    391    392    414   1    120.0000    292.8800
    393    392    414   1    120.0000    292.8800
    388    393    392   1    120.0000    527.1840
    388    393    394   1    120.0000    585.7600
    392    393    394   1    120.0000    585.7600
    393    394    395   1    111.9640    627.6000
    393    394    415   1    109.5000    292.8800
    393    394    416   1    109.5000    292.8800
    395    394    415   1    109.5000    292.8800
    395    394    416   1    109.5000    292.8800
    415    394    416   1    107.8000    276.1440
    394    395    396   1    121.9000    418.4000
    394    395    417   1    118.4000    317.9840
    396    395    417   1    119.8000    292.8800
    395    396    397   1    122.9000    669.4400
    395    396    398   1    116.6000    585.7600
    397    396    398   1    120.4000    669.4400
    396    398    399   1    111.1000    527.1840
    396    398    418   1    109.5000    292.8800
    396    398    419   1    109.5000    292.8800
    399    398    418   1    110.7000    313.8000
    399    398    419   1    110.7000    313.8000
    418    398    419   1    107.8000    276.1440
    398    399    400   1    112.7000    488.2728
    398    399    420   1    110.7000    313.8000
    398    399    421   1    110.7000    313.8000
    400    399    420   1    110.7000    313.8000
    400    399    421   1    110.7000    313.8000
    420    399    421   1    107.8000    276.1440
    399    400    401   1    112.7000    488.2728
    399    400    422   1    110.7000    313.8000
    399    400    423   1    110.7000    313.8000
    401    400    422   1    110.7000    313.8000
    401    400    423   1    110.7000    313.8000
    422    400    423   1    107.8000    276.1440
    400    401    402   1    112.7000    488.2728
    400    401    424   1    110.7000    313.8000
    400    401    425   1    110.7000    313.8000
    402    401    424   1    110.7000    313.8000
    402    401    425   1    110.7000    313.8000
    424    401    425   1    107.8000    276.1440
    401    402    403   1    112.7000    488.2728
    401    402    426   1    110.7000    313.8000
    401    402    427   1    110.7000    313.8000
    403    402    426   1    110.7000    313.8000
    403    402    427   1    110.7000    313.8000
    426    402    427   1    107.8000    276.1440
    402    403    404   1    112.7000    488.2728
    402    403    428   1    110.7000    313.8000
    402    403    429   1    110.7000    313.8000
    404    403    428   1    110.7000    313.8000
    404    403    429   1    110.7000    313.8000
    428    403    429   1    107.8000    276.1440
    403    404    405   1    112.7000    488.2728
    403    404    430   1    110.7000    313.8000
    403    404    431   1    110.7000    313.8000
    405    404    430   1    110.7000    313.8000
    405    404    431   1    110.7000    313.8000
    430    404    431   1    107.8000    276.1440
    404    405    406   1    111.1000    527.1840
    404    405    432   1    110.7000    313.8000
    404    405    433   1    110.7000    313.8000
    406    405    432   1    109.5000    292.8800
    406    405    433   1    109.5000    292.8800
    432    405    433   1    107.8000    276.1440
    405    406    407   1    120.4000    669.4400
    405    406    434   1    116.6000    585.7600
    407    406    434   1    122.9000    669.4400
    406    434    435   1    121.9000    418.4000
    406    434    456   1    119.8000    292.8800
    435    434    456   1    118.4000    317.9840
    434    435    436   1    111.9640    627.6000
    434    435    457   1    109.5000    292.8800
    434    435    458   1    109.5000    292.8800
    436    435    457   1    109.5000    292.8800
    436    435    458   1    109.5000    292.8800
    457    435    458   1    107.8000    276.1440
    435    436    437   1    120.0000    585.7600
    435    436    441   1    120.0000    585.7600
    437    436    441   1    120.0000    527.1840
    436    437    438   1    120.0000    527.1840
    436    437    459   1    120.0000    292.8800
    438    437    459   1    120.0000    292.8800
    437    438    439   1    120.0000    527.1840
    437    438    460   1    120.0000    292.8800
    439    438    460   1    120.0000    292.8800
    438    439    440   1    120.0000    527.1840
    438    439    461   1    120.0000    292.8800
    440    439    461   1    120.0000    292.8800
    439    440    441   1    120.0000    527.1840
    439    440    462   1    120.0000    292.8800
    441    440    462   1    120.0000    292.8800
    436    441    440   1    120.0000    527.1840
    436    441    442   1    120.0000    585.7600
    440    441    442   1    120.0000    585.7600
    441    442    443   1    111.9640    627.6000
    441    442    463   1    109.5000    292.8800
    441    442    464   1    109.5000    292.8800
    443    442    463   1    109.5000    292.8800
    443    442    464   1    109.5000    292.8800
    463    442    464   1    107.8000    276.1440
    442    443    444   1    121.9000    418.4000
    442    443    465   1    118.4000    317.9840
    444    443    465   1    119.8000    292.8800
    443    444    445   1    122.9000    669.4400
    443    444    446   1    116.6000    585.7600
    445    444    446   1    120.4000    669.4400
    444    446    447   1    111.1000    527.1840
    444    446    466   1    109.5000    292.8800
    444    446    467   1    109.5000    292.8800
    447    446    466   1    110.7000    313.8000
    447    446    467   1    110.7000    313.8000
    466    446    467   1    107.8000    276.1440
    446    447    448   1    112.7000    488.2728
    446    447    468   1    110.7000    313.8000
    446    447    469   1    110.7000    313.8000
    448    447    468   1    110.7000    313.8000
    448    447    469   1    110.7000    313.8000
    468    447    469   1    107.8000    276.1440
    447    448    449   1    112.7000    488.2728
    447    448    470   1    110.7000    313.8000
    447    448    471   1    110.7000    313.8000
    449    448    470   1    110.7000    313.8000
    449    448    471   1    110.7000    313.8000
    470    448    471   1    107.8000    276.1440
    448    449    450   1    112.7000    488.2728
    448    449    472   1    110.7000    313.8000
    448    449    473   1    110.7000    313.8000
    450    449    472   1    110.7000    313.8000
    450    449    473   1    110.7000    313.8000
    472    449    473   1    107.8000    276.1440
    449    450    451   1    112.7000    488.2728
    449    450    474   1    110.7000    313.8000
    449    450    475   1    110.7000    313.8000
    451    450    474   1    110.7000    313.8000
    451    450    475   1    110.7000    313.8000
    474    450    475   1    107.8000    276.1440
    450    451    452   1    112.7000    488.2728
    450    451    476   1    110.7000    313.8000
    450    451    477   1    110.7000    313.8000
    452    451    476   1    110.7000    313.8000
    452    451    477   1    110.7000    313.8000
    476    451    477   1    107.8000    276.1440
    451    452    453   1    112.7000    488.2728
    451    452    478   1    110.7000    313.8000
    451    452    479   1    110.7000    313.8000
    453    452    478   1    110.7000    313.8000
    453    452    479   1    110.7000    313.8000
    478    452    479   1    107.8000    276.1440
    452    453    454   1    111.1000    527.1840
    452    453    480   1    110.7000    313.8000
    452    453    481   1    110.7000    313.8000
    454    453    480   1    109.5000    292.8800
    454    453    481   1    109.5000    292.8800
    480    453    481   1    107.8000    276.1440
    453    454    455   1    120.4000    669.4400
    453    454    482   1    116.6000    585.7600
    455    454    482   1    122.9000    669.4400
    454    482    483   1    121.9000    418.4000
    454    482    504   1    119.8000    292.8800
    483    482    504   1    118.4000    317.9840
    482    483    484   1    111.9640    627.6000
    482    483    505   1    109.5000    292.8800
    482    483    506   1    109.5000    292.8800
    484    483    505   1    109.5000    292.8800
    484    483    506   1    109.5000    292.8800
    505    483    506   1    107.8000    276.1440
    483    484    485   1    120.0000    585.7600
    483    484    489   1    120.0000    585.7600
    485    484    489   1    120.0000    527.1840
    484    485    486   1    120.0000    527.1840
    484    485    507   1    120.0000    292.8800
    486    485    507   1    120.0000    292.8800
    485    486    487   1    120.0000    527.1840
    485    486    508   1    120.0000    292.8800
    487    486    508   1    120.0000    292.8800
    486    487    488   1    120.0000    527.1840
    486    487    509   1    120.0000    292.8800
    488    487    509   1    120.0000    292.8800
    487    488    489   1    120.0000    527.1840
    487    488    510   1    120.0000    292.8800
    489    488    510   1    120.0000    292.8800
    484    489    488   1    120.0000    527.1840
    484    489    490   1    120.0000    585.7600
    488    489    490   1    120.0000    585.7600
    489    490    491   1    111.9640    627.6000
    489    490    511   1    109.5000    292.8800
    489    490    512   1    109.5000    292.8800
    491    490    511   1    109.5000    292.8800
    491    490    512   1    109.5000    292.8800
    511    490    512   1    107.8000    276.1440
    490    491    492   1    121.9000    418.4000
    490    491    513   1    118.4000    317.9840
    492    491    513   1    119.8000    292.8800
    491    492    493   1    122.9000    669.4400
    491    492    494   1    116.6000    585.7600
    493    492    494   1    120.4000    669.4400
    492    494    495   1    111.1000    527.1840
    492    494    514   1    109.5000    292.8800
    492    494    515   1    109.5000    292.8800
    495    494    514   1    110.7000    313.8000
    495    494    515   1    110.7000    313.8000
    514    494    515   1    107.8000    276.1440
    494    495    496   1    112.7000    488.2728
    494    495    516   1    110.7000    313.8000
    494    495    517   1    110.7000    313.8000
    496    495    516   1    110.7000    313.8000
    496    495    517   1    110.7000    313.8000
    516    495    517   1    107.8000    276.1440
    495    496    497   1    112.7000    488.2728
    495    496    518   1    110.7000    313.8000
    495    496    519   1    110.7000    313.8000
    497    496    518   1    110.7000    313.8000
    497    496    519   1    110.7000    313.8000
    518    496    519   1    107.8000    276.1440
    496    497    498   1    112.7000    488.2728
    496    497    520   1    110.7000    313.8000
    496    497    521   1    110.7000    313.8000
    498    497    520   1    110.7000    313.8000
    498    497    521   1    110.7000    313.8000
    520    497    521   1    107.8000    276.1440
    497    498    499   1    112.7000    488.2728
    497    498    522   1    110.7000    313.8000
    497    498    523   1    110.7000    313.8000
    499    498    522   1    110.7000    313.8000
    499    498    523   1    110.7000    313.8000
    522    498    523   1    107.8000    276.1440
    498    499    500   1    112.7000    488.2728
    498    499    524   1    110.7000    313.8000
    498    499    525   1    110.7000    313.8000
    500    499    524   1    110.7000    313.8000
    500    499    525   1    110.7000    313.8000
    524    499    525   1    107.8000    276.1440
    499    500    501   1    112.7000    488.2728
    499    500    526   1    110.7000    313.8000
    499    500    527   1    110.7000    313.8000
    501    500    526   1    110.7000    313.8000
    501    500    527   1    110.7000    313.8000
    526    500    527   1    107.8000    276.1440
    500    501    502   1    111.1000    527.1840
    500    501    528   1    110.7000    313.8000
    500    501    529   1    110.7000    313.8000
    502    501    528   1    109.5000    292.8800
    502    501    529   1    109.5000    292.8800
    528    501    529   1    107.8000    276.1440
    501    502    503   1    120.4000    669.4400
    501    502    530   1    116.6000    585.7600
    503    502    530   1    122.9000    669.4400
    502    530    531   1    121.9000    418.4000
    502    530    552   1    119.8000    292.8800
    531    530    552   1    118.4000    317.9840
    530    531    532   1    111.9640    627.6000
    530    531    553   1    109.5000    292.8800
    530    531    554   1    109.5000    292.8800
    532    531    553   1    109.5000    292.8800
    532    531    554   1    109.5000    292.8800
    553    531    554   1    107.8000    276.1440
    531    532    533   1    120.0000    585.7600
    531    532    537   1    120.0000    585.7600
    533    532    537   1    120.0000    527.1840
    532    533    534   1    120.0000    527.1840
    532    533    555   1    120.0000    292.8800
    534    533    555   1    120.0000    292.8800
    533    534    535   1    120.0000    527.1840
    533    534    556   1    120.0000    292.8800
    535    534    556   1    120.0000    292.8800
    534    535    536   1    120.0000    527.1840
    534    535    557   1    120.0000    292.8800
    536    535    557   1    120.0000    292.8800
    535    536    537   1    120.0000    527.1840
    535    536    558   1    120.0000    292.8800
    537    536    558   1    120.0000    292.8800
    532    537    536   1    120.0000    527.1840
    532    537    538   1    120.0000    585.7600
    536    537    538   1    120.0000    585.7600
    537    538    539   1    111.9640    627.6000
    537    538    559   1    109.5000    292.8800
    537    538    560   1    109.5000    292.8800
    539    538    559   1    109.5000    292.8800
    539    538    560   1    109.5000    292.8800
    559    538    560   1    107.8000    276.1440
    538    539    540   1    121.9000    418.4000
    538    539    561   1    118.4000    317.9840
    540    539    561   1    119.8000    292.8800
    539    540    541   1    122.9000    669.4400
    539    540    542   1    116.6000    585.7600
    541    540    542   1    120.4000    669.4400
    540    542    543   1    111.1000    527.1840
    540    542    562   1    109.5000    292.8800
    540    542    563   1    109.5000    292.8800
    543    542    562   1    110.7000    313.8000
    543    542    563   1    110.7000    313.8000
    562    542    563   1    107.8000    276.1440
    542    543    544   1    112.7000    488.2728
    542    543    564   1    110.7000    313.8000
    542    543    565   1    110.7000    313.8000
    544    543    564   1    110.7000    313.8000
    544    543    565   1    110.7000    313.8000
    564    543    565   1    107.8000    276.1440
    543    544    545   1    112.7000    488.2728
    543    544    566   1    110.7000    313.8000
    543    544    567   1    110.7000    313.8000
    545    544    566   1    110.7000    313.8000
    545    544    567   1    110.7000    313.8000
    566    544    567   1    107.8000    276.1440
    544    545    546   1    112.7000    488.2728
    544    545    568   1    110.7000    313.8000
    544    545    569   1    110.7000    313.8000
    546    545    568   1    110.7000    313.8000
    546    545    569   1    110.7000    313.8000
    568    545    569   1    107.8000    276.1440
    545    546    547   1    112.7000    488.2728
    545    546    570   1    110.7000    313.8000
    545    546    571   1    110.7000    313.8000
    547    546    570   1    110.7000    313.8000
    547    546    571   1    110.7000    313.8000
    570    546    571   1    107.8000    276.1440
    546    547    548   1    112.7000    488.2728
    546    547    572   1    110.7000    313.8000
    546    547    573   1    110.7000    313.8000
    548    547    572   1    110.7000    313.8000
    548    547    573   1    110.7000    313.8000
    572    547    573   1    107.8000    276.1440
    547    548    549   1    112.7000    488.2728
    547    548    574   1    110.7000    313.8000
    547    548    575   1    110.7000    313.8000
    549    548    574   1    110.7000    313.8000
    549    548    575   1    110.7000    313.8000
    574    548    575   1    107.8000    276.1440
    548    549    550   1    111.1000    527.1840
    548    549    576   1    110.7000    313.8000
    548    549    577   1    110.7000    313.8000
    550    549    576   1    109.5000    292.8800
    550    549    577   1    109.5000    292.8800
    576    549    577   1    107.8000    276.1440
    549    550    551   1    120.4000    669.4400
    549    550    578   1    116.6000    585.7600
    551    550    578   1    122.9000    669.4400
    550    578    579   1    121.9000    418.4000
    550    578    600   1    119.8000    292.8800
    579    578    600   1    118.4000    317.9840
    578    579    580   1    111.9640    627.6000
    578    579    601   1    109.5000    292.8800
    578    579    602   1    109.5000    292.8800
    580    579    601   1    109.5000    292.8800
    580    579    602   1    109.5000    292.8800
    601    579    602   1    107.8000    276.1440
    579    580    581   1    120.0000    585.7600
    579    580    585   1    120.0000    585.7600
    581    580    585   1    120.0000    527.1840
    580    581    582   1    120.0000    527.1840
    580    581    603   1    120.0000    292.8800
    582    581    603   1    120.0000    292.8800
    581    582    583   1    120.0000    527.1840
    581    582    604   1    120.0000    292.8800
    583    582    604   1    120.0000    292.8800
    582    583    584   1    120.0000    527.1840
    582    583    605   1    120.0000    292.8800
    584    583    605   1    120.0000    292.8800
    583    584    585   1    120.0000    527.1840
    583    584    606   1    120.0000    292.8800
    585    584    606   1    120.0000    292.8800
    580    585    584   1    120.0000    527.1840
    580    585    586   1    120.0000    585.7600
    584    585    586   1    120.0000    585.7600
    585    586    587   1    111.9640    627.6000
    585    586    607   1    109.5000    292.8800
    585    586    608   1    109.5000    292.8800
    587    586    607   1    109.5000    292.8800
    587    586    608   1    109.5000    292.8800
    607    586    608   1    107.8000    276.1440
    586    587    588   1    121.9000    418.4000
    586    587    609   1    118.4000    317.9840
    588    587    609   1    119.8000    292.8800
    587    588    589   1    122.9000    669.4400
    587    588    590   1    116.6000    585.7600
    589    588    590   1    120.4000    669.4400
    588    590    591   1    111.1000    527.1840
    588    590    610   1    109.5000    292.8800
    588    590    611   1    109.5000    292.8800
    591    590    610   1    110.7000    313.8000
    591    590    611   1    110.7000    313.8000
    610    590    611   1    107.8000    276.1440
    590    591    592   1    112.7000    488.2728
    590    591    612   1    110.7000    313.8000
    590    591    613   1    110.7000    313.8000
    592    591    612   1    110.7000    313.8000
    592    591    613   1    110.7000    313.8000
    612    591    613   1    107.8000    276.1440
    591    592    593   1    112.7000    488.2728
    591    592    614   1    110.7000    313.8000
    591    592    615   1    110.7000    313.8000
    593    592    614   1    110.7000    313.8000
    593    592    615   1    110.7000    313.8000
    614    592    615   1    107.8000    276.1440
    592    593    594   1    112.7000    488.2728
    592    593    616   1    110.7000    313.8000
    592    593    617   1    110.7000    313.8000
    594    593    616   1    110.7000    313.8000
    594    593    617   1    110.7000    313.8000
    616    593    617   1    107.8000    276.1440
    593    594    595   1    112.7000    488.2728
    593    594    618   1    110.7000    313.8000
    593    594    619   1    110.7000    313.8000
    595    594    618   1    110.7000    313.8000
    595    594    619   1    110.7000    313.8000
    618    594    619   1    107.8000    276.1440
    594    595    596   1    112.7000    488.2728
    594    595    620   1    110.7000    313.8000
    594    595    621   1    110.7000    313.8000
    596    595    620   1    110.7000    313.8000
    596    595    621   1    110.7000    313.8000
    620    595    621   1    107.8000    276.1440
    595    596    597   1    112.7000    488.2728
    595    596    622   1    110.7000    313.8000
    595    596    623   1    110.7000    313.8000
    597    596    622   1    110.7000    313.8000
    597    596    623   1    110.7000    313.8000
    622    596    623   1    107.8000    276.1440
    596    597    598   1    111.1000    527.1840
    596    597    624   1    110.7000    313.8000
    596    597    625   1    110.7000    313.8000
    598    597    624   1    109.5000    292.8800
    598    597    625   1    109.5000    292.8800
    624    597    625   1    107.8000    276.1440
    597    598    599   1    120.4000    669.4400
    597    598    626   1    116.6000    585.7600
    599    598    626   1    122.9000    669.4400
    598    626    627   1    121.9000    418.4000
    598    626    648   1    119.8000    292.8800
    627    626    648   1    118.4000    317.9840
    626    627    628   1    111.9640    627.6000
    626    627    649   1    109.5000    292.8800
    626    627    650   1    109.5000    292.8800
    628    627    649   1    109.5000    292.8800
    628    627    650   1    109.5000    292.8800
    649    627    650   1    107.8000    276.1440
    627    628    629   1    120.0000    585.7600
    627    628    633   1    120.0000    585.7600
    629    628    633   1    120.0000    527.1840
    628    629    630   1    120.0000    527.1840
    628    629    651   1    120.0000    292.8800
    630    629    651   1    120.0000    292.8800
    629    630    631   1    120.0000    527.1840
    629    630    652   1    120.0000    292.8800
    631    630    652   1    120.0000    292.8800
    630    631    632   1    120.0000    527.1840
    630    631    653   1    120.0000    292.8800
    632    631    653   1    120.0000    292.8800
    631    632    633   1    120.0000    527.1840
    631    632    654   1    120.0000    292.8800
    633    632    654   1    120.0000    292.8800
    628    633    632   1    120.0000    527.1840
    628    633    634   1    120.0000    585.7600
    632    633    634   1    120.0000    585.7600
    633    634    635   1    111.9640    627.6000
    633    634    655   1    109.5000    292.8800
    633    634    656   1    109.5000    292.8800
    635    634    655   1    109.5000    292.8800
    635    634    656   1    109.5000    292.8800
    655    634    656   1    107.8000    276.1440
    634    635    636   1    121.9000    418.4000
    634    635    657   1    118.4000    317.9840
    636    635    657   1    119.8000    292.8800
    635    636    637   1    122.9000    669.4400
    635    636    638   1    116.6000    585.7600
    637    636    638   1    120.4000    669.4400
    636    638    639   1    111.1000    527.1840
    636    638    658   1    109.5000    292.8800
    636    638    659   1    109.5000    292.8800
    639    638    658   1    110.7000    313.8000
    639    638    659   1    110.7000    313.8000
    658    638    659   1    107.8000    276.1440
    638    639    640   1    112.7000    488.2728
    638    639    660   1    110.7000    313.8000
    638    639    661   1    110.7000    313.8000
    640    639    660   1    110.7000    313.8000
    640    639    661   1    110.7000    313.8000
    660    639    661   1    107.8000    276.1440
    639    640    641   1    112.7000    488.2728
    639    640    662   1    110.7000    313.8000
    639    640    663   1    110.7000    313.8000
    641    640    662   1    110.7000    313.8000
    641    640    663   1    110.7000    313.8000
    662    640    663   1    107.8000    276.1440
    640    641    642   1    112.7000    488.2728
    640    641    664   1    110.7000    313.8000
    640    641    665   1    110.7000    313.8000
    642    641    664   1    110.7000    313.8000
    642    641    665   1    110.7000    313.8000
    664    641    665   1    107.8000    276.1440
    641    642    643   1    112.7000    488.2728
    641    642    666   1    110.7000    313.8000
    641    642    667   1    110.7000    313.8000
    643    642    666   1    110.7000    313.8000
    643    642    667   1    110.7000    313.8000
    666    642    667   1    107.8000    276.1440
    642    643    644   1    112.7000    488.2728
    642    643    668   1    110.7000    313.8000
    642    643    669   1    110.7000    313.8000
    644    643    668   1    110.7000    313.8000
    644    643    669   1    110.7000    313.8000
    668    643    669   1    107.8000    276.1440
    643    644    645   1    112.7000    488.2728
    643    644    670   1    110.7000    313.8000
    643    644    671   1    110.7000    313.8000
    645    644    670   1    110.7000    313.8000
    645    644    671   1    110.7000    313.8000
    670    644    671   1    107.8000    276.1440
    644    645    646   1    111.1000    527.1840
    644    645    672   1    110.7000    313.8000
    644    645    673   1    110.7000    313.8000
    646    645    672   1    109.5000    292.8800
    646    645    673   1    109.5000    292.8800
    672    645    673   1    107.8000    276.1440
    645    646    647   1    120.4000    669.4400
    645    646    674   1    116.6000    585.7600
    647    646    674   1    122.9000    669.4400
    646    674    675   1    121.9000    418.4000
    646    674    696   1    119.8000    292.8800
    675    674    696   1    118.4000    317.9840
    674    675    676   1    111.9640    627.6000
    674    675    697   1    109.5000    292.8800
    674    675    698   1    109.5000    292.8800
    676    675    697   1    109.5000    292.8800
    676    675    698   1    109.5000    292.8800
    697    675    698   1    107.8000    276.1440
    675    676    677   1    120.0000    585.7600
    675    676    681   1    120.0000    585.7600
    677    676    681   1    120.0000    527.1840
    676    677    678   1    120.0000    527.1840
    676    677    699   1    120.0000    292.8800
    678    677    699   1    120.0000    292.8800
    677    678    679   1    120.0000    527.1840
    677    678    700   1    120.0000    292.8800
    679    678    700   1    120.0000    292.8800
    678    679    680   1    120.0000    527.1840
    678    679    701   1    120.0000    292.8800
    680    679    701   1    120.0000    292.8800
    679    680    681   1    120.0000    527.1840
    679    680    702   1    120.0000    292.8800
    681    680    702   1    120.0000    292.8800
    676    681    680   1    120.0000    527.1840
    676    681    682   1    120.0000    585.7600
    680    681    682   1    120.0000    585.7600
    681    682    683   1    111.9640    627.6000
    681    682    703   1    109.5000    292.8800
    681    682    704   1    109.5000    292.8800
    683    682    703   1    109.5000    292.8800
    683    682    704   1    109.5000    292.8800
    703    682    704   1    107.8000    276.1440
    682    683    684   1    121.9000    418.4000
    682    683    705   1    118.4000    317.9840
    684    683    705   1    119.8000    292.8800
    683    684    685   1    122.9000    669.4400
    683    684    686   1    116.6000    585.7600
    685    684    686   1    120.4000    669.4400
    684    686    687   1    111.1000    527.1840
    684    686    706   1    109.5000    292.8800
    684    686    707   1    109.5000    292.8800
    687    686    706   1    110.7000    313.8000
    687    686    707   1    110.7000    313.8000
    706    686    707   1    107.8000    276.1440
    686    687    688   1    112.7000    488.2728
    686    687    708   1    110.7000    313.8000
    686    687    709   1    110.7000    313.8000
    688    687    708   1    110.7000    313.8000
    688    687    709   1    110.7000    313.8000
    708    687    709   1    107.8000    276.1440
    687    688    689   1    112.7000    488.2728
    687    688    710   1    110.7000    313.8000
    687    688    711   1    110.7000    313.8000
    689    688    710   1    110.7000    313.8000
    689    688    711   1    110.7000    313.8000
    710    688    711   1    107.8000    276.1440
    688    689    690   1    112.7000    488.2728
    688    689    712   1    110.7000    313.8000
    688    689    713   1    110.7000    313.8000
    690    689    712   1    110.7000    313.8000
    690    689    713   1    110.7000    313.8000
    712    689    713   1    107.8000    276.1440
    689    690    691   1    112.7000    488.2728
    689    690    714   1    110.7000    313.8000
    689    690    715   1    110.7000    313.8000
    691    690    714   1    110.7000    313.8000
    691    690    715   1    110.7000    313.8000
    714    690    715   1    107.8000    276.1440
    690    691    692   1    112.7000    488.2728
    690    691    716   1    110.7000    313.8000
    690    691    717   1    110.7000    313.8000
    692    691    716   1    110.7000    313.8000
    692    691    717   1    110.7000    313.8000
    716    691    717   1    107.8000    276.1440
    691    692    693   1    112.7000    488.2728
    691    692    718   1    110.7000    313.8000
    691    692    719   1    110.7000    313.8000
    693    692    718   1    110.7000    313.8000
    693    692    719   1    110.7000    313.8000
    718    692    719   1    107.8000    276.1440
    692    693    694   1    111.1000    527.1840
    692    693    720   1    110.7000    313.8000
    692    693    721   1    110.7000    313.8000
    694    693    720   1    109.5000    292.8800
    694    693    721   1    109.5000    292.8800
    720    693    721   1    107.8000    276.1440
    693    694    695   1    120.4000    669.4400
    693    694    722   1    116.6000    585.7600
    695    694    722   1    122.9000    669.4400
    694    722    723   1    121.9000    418.4000
    694    722    744   1    119.8000    292.8800
    723    722    744   1    118.4000    317.9840
    722    723    724   1    111.9640    627.6000
    722    723    745   1    109.5000    292.8800
    722    723    746   1    109.5000    292.8800
    724    723    745   1    109.5000    292.8800
    724    723    746   1    109.5000    292.8800
    745    723    746   1    107.8000    276.1440
    723    724    725   1    120.0000    585.7600
    723    724    729   1    120.0000    585.7600
    725    724    729   1    120.0000    527.1840
    724    725    726   1    120.0000    527.1840
    724    725    747   1    120.0000    292.8800
    726    725    747   1    120.0000    292.8800
    725    726    727   1    120.0000    527.1840
    725    726    748   1    120.0000    292.8800
    727    726    748   1    120.0000    292.8800
    726    727    728   1    120.0000    527.1840
    726    727    749   1    120.0000    292.8800
    728    727    749   1    120.0000    292.8800
    727    728    729   1    120.0000    527.1840
    727    728    750   1    120.0000    292.8800
    729    728    750   1    120.0000    292.8800
    724    729    728   1    120.0000    527.1840
    724    729    730   1    120.0000    585.7600
    728    729    730   1    120.0000    585.7600
    729    730    731   1    111.9640    627.6000
    729    730    751   1    109.5000    292.8800
    729    730    752   1    109.5000    292.8800
    731    730    751   1    109.5000    292.8800
    731    730    752   1    109.5000    292.8800
    751    730    752   1    107.8000    276.1440
    730    731    732   1    121.9000    418.4000
    730    731    753   1    118.4000    317.9840
    732    731    753   1    119.8000    292.8800
    731    732    733   1    122.9000    669.4400
    731    732    734   1    116.6000    585.7600
    733    732    734   1    120.4000    669.4400
    732    734    735   1    111.1000    527.1840
    732    734    754   1    109.5000    292.8800
    732    734    755   1    109.5000    292.8800
    735    734    754   1    110.7000    313.8000
    735    734    755   1    110.7000    313.8000
    754    734    755   1    107.8000    276.1440
    734    735    736   1    112.7000    488.2728
    734    735    756   1    110.7000    313.8000
    734    735    757   1    110.7000    313.8000
    736    735    756   1    110.7000    313.8000
    736    735    757   1    110.7000    313.8000
    756    735    757   1    107.8000    276.1440
    735    736    737   1    112.7000    488.2728
    735    736    758   1    110.7000    313.8000
    735    736    759   1    110.7000    313.8000
    737    736    758   1    110.7000    313.8000
    737    736    759   1    110.7000    313.8000
    758    736    759   1    107.8000    276.1440
    736    737    738   1    112.7000    488.2728
    736    737    760   1    110.7000    313.8000
    736    737    761   1    110.7000    313.8000
    738    737    760   1    110.7000    313.8000
    738    737    761   1    110.7000    313.8000
    760    737    761   1    107.8000    276.1440
    737    738    739   1    112.7000    488.2728
    737    738    762   1    110.7000    313.8000
    737    738    763   1    110.7000    313.8000
    739    738    762   1    110.7000    313.8000
    739    738    763   1    110.7000    313.8000
    762    738    763   1    107.8000    276.1440
    738    739    740   1    112.7000    488.2728
    738    739    764   1    110.7000    313.8000
    738    739    765   1    110.7000    313.8000
    740    739    764   1    110.7000    313.8000
    740    739    765   1    110.7000    313.8000
    764    739    765   1    107.8000    276.1440
    739    740    741   1    112.7000    488.2728
    739    740    766   1    110.7000    313.8000
    739    740    767   1    110.7000    313.8000
    741    740    766   1    110.7000    313.8000
    741    740    767   1    110.7000    313.8000
    766    740    767   1    107.8000    276.1440
    740    741    742   1    111.1000    527.1840
    740    741    768   1    110.7000    313.8000
    740    741    769   1    110.7000    313.8000
    742    741    768   1    109.5000    292.8800
    742    741    769   1    109.5000    292.8800
    768    741    769   1    107.8000    276.1440
    741    742    743   1    120.4000    669.4400
    741    742    770   1    116.6000    585.7600
    743    742    770   1    122.9000    669.4400
    742    770    771   1    121.9000    418.4000
    742    770    792   1    119.8000    292.8800
    771    770    792   1    118.4000    317.9840
    770    771    772   1    111.9640    627.6000
    770    771    793   1    109.5000    292.8800
    770    771    794   1    109.5000    292.8800
    772    771    793   1    109.5000    292.8800
    772    771    794   1    109.5000    292.8800
    793    771    794   1    107.8000    276.1440
    771    772    773   1    120.0000    585.7600
    771    772    777   1    120.0000    585.7600
    773    772    777   1    120.0000    527.1840
    772    773    774   1    120.0000    527.1840
    772    773    795   1    120.0000    292.8800
    774    773    795   1    120.0000    292.8800
    773    774    775   1    120.0000    527.1840
    773    774    796   1    120.0000    292.8800
    775    774    796   1    120.0000    292.8800
    774    775    776   1    120.0000    527.1840
    774    775    797   1    120.0000    292.8800
    776    775    797   1    120.0000    292.8800
    775    776    777   1    120.0000    527.1840
    775    776    798   1    120.0000    292.8800
    777    776    798   1    120.0000    292.8800
    772    777    776   1    120.0000    527.1840
    772    777    778   1    120.0000    585.7600
    776    777    778   1    120.0000    585.7600
    777    778    779   1    111.9640    627.6000
    777    778    799   1    109.5000    292.8800
    777    778    800   1    109.5000    292.8800
    779    778    799   1    109.5000    292.8800
    779    778    800   1    109.5000    292.8800
    799    778    800   1    107.8000    276.1440
    778    779    780   1    121.9000    418.4000
    778    779    801   1    118.4000    317.9840
    780    779    801   1    119.8000    292.8800
    779    780    781   1    122.9000    669.4400
    779    780    782   1    116.6000    585.7600
    781    780    782   1    120.4000    669.4400
    780    782    783   1    111.1000    527.1840
    780    782    802   1    109.5000    292.8800
    780    782    803   1    109.5000    292.8800
    783    782    802   1    110.7000    313.8000
    783    782    803   1    110.7000    313.8000
    802    782    803   1    107.8000    276.1440
    782    783    784   1    112.7000    488.2728
    782    783    804   1    110.7000    313.8000
    782    783    805   1    110.7000    313.8000
    784    783    804   1    110.7000    313.8000
    784    783    805   1    110.7000    313.8000
    804    783    805   1    107.8000    276.1440
    783    784    785   1    112.7000    488.2728
    783    784    806   1    110.7000    313.8000
    783    784    807   1    110.7000    313.8000
    785    784    806   1    110.7000    313.8000
    785    784    807   1    110.7000    313.8000
    806    784    807   1    107.8000    276.1440
    784    785    786   1    112.7000    488.2728
    784    785    808   1    110.7000    313.8000
    784    785    809   1    110.7000    313.8000
    786    785    808   1    110.7000    313.8000
    786    785    809   1    110.7000    313.8000
    808    785    809   1    107.8000    276.1440
    785    786    787   1    112.7000    488.2728
    785    786    810   1    110.7000    313.8000
    785    786    811   1    110.7000    313.8000
    787    786    810   1    110.7000    313.8000
    787    786    811   1    110.7000    313.8000
    810    786    811   1    107.8000    276.1440
    786    787    788   1    112.7000    488.2728
    786    787    812   1    110.7000    313.8000
    786    787    813   1    110.7000    313.8000
    788    787    812   1    110.7000    313.8000
    788    787    813   1    110.7000    313.8000
    812    787    813   1    107.8000    276.1440
    787    788    789   1    112.7000    488.2728
    787    788    814   1    110.7000    313.8000
    787    788    815   1    110.7000    313.8000
    789    788    814   1    110.7000    313.8000
    789    788    815   1    110.7000    313.8000
    814    788    815   1    107.8000    276.1440
    788    789    790   1    111.1000    527.1840
    788    789    816   1    110.7000    313.8000
    788    789    817   1    110.7000    313.8000
    790    789    816   1    109.5000    292.8800
    790    789    817   1    109.5000    292.8800
    816    789    817   1    107.8000    276.1440
    789    790    791   1    120.4000    669.4400
    789    790    818   1    116.6000    585.7600
    791    790    818   1    122.9000    669.4400
    790    818    819   1    121.9000    418.4000
    790    818    840   1    119.8000    292.8800
    819    818    840   1    118.4000    317.9840
    818    819    820   1    111.9640    627.6000
    818    819    841   1    109.5000    292.8800
    818    819    842   1    109.5000    292.8800
    820    819    841   1    109.5000    292.8800
    820    819    842   1    109.5000    292.8800
    841    819    842   1    107.8000    276.1440
    819    820    821   1    120.0000    585.7600
    819    820    825   1    120.0000    585.7600
    821    820    825   1    120.0000    527.1840
    820    821    822   1    120.0000    527.1840
    820    821    843   1    120.0000    292.8800
    822    821    843   1    120.0000    292.8800
    821    822    823   1    120.0000    527.1840
    821    822    844   1    120.0000    292.8800
    823    822    844   1    120.0000    292.8800
    822    823    824   1    120.0000    527.1840
    822    823    845   1    120.0000    292.8800
    824    823    845   1    120.0000    292.8800
    823    824    825   1    120.0000    527.1840
    823    824    846   1    120.0000    292.8800
    825    824    846   1    120.0000    292.8800
    820    825    824   1    120.0000    527.1840
    820    825    826   1    120.0000    585.7600
    824    825    826   1    120.0000    585.7600
    825    826    827   1    111.9640    627.6000
    825    826    847   1    109.5000    292.8800
    825    826    848   1    109.5000    292.8800
    827    826    847   1    109.5000    292.8800
    827    826    848   1    109.5000    292.8800
    847    826    848   1    107.8000    276.1440
    826    827    828   1    121.9000    418.4000
    826    827    849   1    118.4000    317.9840
    828    827    849   1    119.8000    292.8800
    827    828    829   1    122.9000    669.4400
    827    828    830   1    116.6000    585.7600
    829    828    830   1    120.4000    669.4400
    828    830    831   1    111.1000    527.1840
    828    830    850   1    109.5000    292.8800
    828    830    851   1    109.5000    292.8800
    831    830    850   1    110.7000    313.8000
    831    830    851   1    110.7000    313.8000
    850    830    851   1    107.8000    276.1440
    830    831    832   1    112.7000    488.2728
    830    831    852   1    110.7000    313.8000
    830    831    853   1    110.7000    313.8000
    832    831    852   1    110.7000    313.8000
    832    831    853   1    110.7000    313.8000
    852    831    853   1    107.8000    276.1440
    831    832    833   1    112.7000    488.2728
    831    832    854   1    110.7000    313.8000
    831    832    855   1    110.7000    313.8000
    833    832    854   1    110.7000    313.8000
    833    832    855   1    110.7000    313.8000
    854    832    855   1    107.8000    276.1440
    832    833    834   1    112.7000    488.2728
    832    833    856   1    110.7000    313.8000
    832    833    857   1    110.7000    313.8000
    834    833    856   1    110.7000    313.8000
    834    833    857   1    110.7000    313.8000
    856    833    857   1    107.8000    276.1440
    833    834    835   1    112.7000    488.2728
    833    834    858   1    110.7000    313.8000
    833    834    859   1    110.7000    313.8000
    835    834    858   1    110.7000    313.8000
    835    834    859   1    110.7000    313.8000
    858    834    859   1    107.8000    276.1440
    834    835    836   1    112.7000    488.2728
    834    835    860   1    110.7000    313.8000
    834    835    861   1    110.7000    313.8000
    836    835    860   1    110.7000    313.8000
    836    835    861   1    110.7000    313.8000
    860    835    861   1    107.8000    276.1440
    835    836    837   1    112.7000    488.2728
    835    836    862   1    110.7000    313.8000
    835    836    863   1    110.7000    313.8000
    837    836    862   1    110.7000    313.8000
    837    836    863   1    110.7000    313.8000
    862    836    863   1    107.8000    276.1440
    836    837    838   1    111.1000    527.1840
    836    837    864   1    110.7000    313.8000
    836    837    865   1    110.7000    313.8000
    838    837    864   1    109.5000    292.8800
    838    837    865   1    109.5000    292.8800
    864    837    865   1    107.8000    276.1440
    837    838    839   1    120.4000    669.4400
    837    838    866   1    116.6000    585.7600
    839    838    866   1    122.9000    669.4400
    838    866    867   1    121.9000    418.4000
    838    866    888   1    119.8000    292.8800
    867    866    888   1    118.4000    317.9840
    866    867    868   1    111.9640    627.6000
    866    867    889   1    109.5000    292.8800
    866    867    890   1    109.5000    292.8800
    868    867    889   1    109.5000    292.8800
    868    867    890   1    109.5000    292.8800
    889    867    890   1    107.8000    276.1440
    867    868    869   1    120.0000    585.7600
    867    868    873   1    120.0000    585.7600
    869    868    873   1    120.0000    527.1840
    868    869    870   1    120.0000    527.1840
    868    869    891   1    120.0000    292.8800
    870    869    891   1    120.0000    292.8800
    869    870    871   1    120.0000    527.1840
    869    870    892   1    120.0000    292.8800
    871    870    892   1    120.0000    292.8800
    870    871    872   1    120.0000    527.1840
    870    871    893   1    120.0000    292.8800
    872    871    893   1    120.0000    292.8800
    871    872    873   1    120.0000    527.1840
    871    872    894   1    120.0000    292.8800
    873    872    894   1    120.0000    292.8800
    868    873    872   1    120.0000    527.1840
    868    873    874   1    120.0000    585.7600
    872    873    874   1    120.0000    585.7600
    873    874    875   1    111.9640    627.6000
    873    874    895   1    109.5000    292.8800
    873    874    896   1    109.5000    292.8800
    875    874    895   1    109.5000    292.8800
    875    874    896   1    109.5000    292.8800
    895    874    896   1    107.8000    276.1440
    874    875    876   1    121.9000    418.4000
    874    875    897   1    118.4000    317.9840
    876    875    897   1    119.8000    292.8800
    875    876    877   1    122.9000    669.4400
    875    876    878   1    116.6000    585.7600
    877    876    878   1    120.4000    669.4400
    876    878    879   1    111.1000    527.1840
    876    878    898   1    109.5000    292.8800
    876    878    899   1    109.5000    292.8800
    879    878    898   1    110.7000    313.8000
    879    878    899   1    110.7000    313.8000
    898    878    899   1    107.8000    276.1440
    878    879    880   1    112.7000    488.2728
    878    879    900   1    110.7000    313.8000
    878    879    901   1    110.7000    313.8000
    880    879    900   1    110.7000    313.8000
    880    879    901   1    110.7000    313.8000
    900    879    901   1    107.8000    276.1440
    879    880    881   1    112.7000    488.2728
    879    880    902   1    110.7000    313.8000
    879    880    903   1    110.7000    313.8000
    881    880    902   1    110.7000    313.8000
    881    880    903   1    110.7000    313.8000
    902    880    903   1    107.8000    276.1440
    880    881    882   1    112.7000    488.2728
    880    881    904   1    110.7000    313.8000
    880    881    905   1    110.7000    313.8000
    882    881    904   1    110.7000    313.8000
    882    881    905   1    110.7000    313.8000
    904    881    905   1    107.8000    276.1440
    881    882    883   1    112.7000    488.2728
    881    882    906   1    110.7000    313.8000
    881    882    907   1    110.7000    313.8000
    883    882    906   1    110.7000    313.8000
    883    882    907   1    110.7000    313.8000
    906    882    907   1    107.8000    276.1440
    882    883    884   1    112.7000    488.2728
    882    883    908   1    110.7000    313.8000
    882    883    909   1    110.7000    313.8000
    884    883    908   1    110.7000    313.8000
    884    883    909   1    110.7000    313.8000
    908    883    909   1    107.8000    276.1440
    883    884    885   1    112.7000    488.2728
    883    884    910   1    110.7000    313.8000
    883    884    911   1    110.7000    313.8000
    885    884    910   1    110.7000    313.8000
    885    884    911   1    110.7000    313.8000
    910    884    911   1    107.8000    276.1440
    884    885    886   1    111.1000    527.1840
    884    885    912   1    110.7000    313.8000
    884    885    913   1    110.7000    313.8000
    886    885    912   1    109.5000    292.8800
    886    885    913   1    109.5000    292.8800
    912    885    913   1    107.8000    276.1440
    885    886    887   1    120.4000    669.4400
    885    886    914   1    116.6000    585.7600
    887    886    914   1    122.9000    669.4400
    886    914    915   1    121.9000    418.4000
    886    914    936   1    119.8000    292.8800
    915    914    936   1    118.4000    317.9840
    914    915    916   1    111.9640    627.6000
    914    915    937   1    109.5000    292.8800
    914    915    938   1    109.5000    292.8800
    916    915    937   1    109.5000    292.8800
    916    915    938   1    109.5000    292.8800
    937    915    938   1    107.8000    276.1440
    915    916    917   1    120.0000    585.7600
    915    916    921   1    120.0000    585.7600
    917    916    921   1    120.0000    527.1840
    916    917    918   1    120.0000    527.1840
    916    917    939   1    120.0000    292.8800
    918    917    939   1    120.0000    292.8800
    917    918    919   1    120.0000    527.1840
    917    918    940   1    120.0000    292.8800
    919    918    940   1    120.0000    292.8800
    918    919    920   1    120.0000    527.1840
    918    919    941   1    120.0000    292.8800
    920    919    941   1    120.0000    292.8800
    919    920    921   1    120.0000    527.1840
    919    920    942   1    120.0000    292.8800
    921    920    942   1    120.0000    292.8800
    916    921    920   1    120.0000    527.1840
    916    921    922   1    120.0000    585.7600
    920    921    922   1    120.0000    585.7600
    921    922    923   1    111.9640    627.6000
    921    922    943   1    109.5000    292.8800
    921    922    944   1    109.5000    292.8800
    923    922    943   1    109.5000    292.8800
    923    922    944   1    109.5000    292.8800
    943    922    944   1    107.8000    276.1440
    922    923    924   1    121.9000    418.4000
    922    923    945   1    118.4000    317.9840
    924    923    945   1    119.8000    292.8800
    923    924    925   1    122.9000    669.4400
    923    924    926   1    116.6000    585.7600
    925    924    926   1    120.4000    669.4400
    924    926    927   1    111.1000    527.1840
    924    926    946   1    109.5000    292.8800
    924    926    947   1    109.5000    292.8800
    927    926    946   1    110.7000    313.8000
    927    926    947   1    110.7000    313.8000
    946    926    947   1    107.8000    276.1440
    926    927    928   1    112.7000    488.2728
    926    927    948   1    110.7000    313.8000
    926    927    949   1    110.7000    313.8000
    928    927    948   1    110.7000    313.8000
    928    927    949   1    110.7000    313.8000
    948    927    949   1    107.8000    276.1440
    927    928    929   1    112.7000    488.2728
    927    928    950   1    110.7000    313.8000
    927    928    951   1    110.7000    313.8000
    929    928    950   1    110.7000    313.8000
    929    928    951   1    110.7000    313.8000
    950    928    951   1    107.8000    276.1440
    928    929    930   1    112.7000    488.2728
    928    929    952   1    110.7000    313.8000
    928    929    953   1    110.7000    313.8000
    930    929    952   1    110.7000    313.8000
    930    929    953   1    110.7000    313.8000
    952    929    953   1    107.8000    276.1440
    929    930    931   1    112.7000    488.2728
    929    930    954   1    110.7000    313.8000
    929    930    955   1    110.7000    313.8000
    931    930    954   1    110.7000    313.8000
    931    930    955   1    110.7000    313.8000
    954    930    955   1    107.8000    276.1440
    930    931    932   1    112.7000    488.2728
    930    931    956   1    110.7000    313.8000
    930    931    957   1    110.7000    313.8000
    932    931    956   1    110.7000    313.8000
    932    931    957   1    110.7000    313.8000
    956    931    957   1    107.8000    276.1440
    931    932    933   1    112.7000    488.2728
    931    932    958   1    110.7000    313.8000
    931    932    959   1    110.7000    313.8000
    933    932    958   1    110.7000    313.8000
    933    932    959   1    110.7000    313.8000
    958    932    959   1    107.8000    276.1440
    932    933    934   1    111.1000    527.1840
    932    933    960   1    110.7000    313.8000
    932    933    961   1    110.7000    313.8000
    934    933    960   1    109.5000    292.8800
    934    933    961   1    109.5000    292.8800
    960    933    961   1    107.8000    276.1440
    933    934    935   1    120.4000    669.4400
    933    934    962   1    115.0000    292.8800
    935    934    962   1    123.0000    292.8800

[ dihedrals ]
; Proper dihedrals
     23      1      2      3   5     6.40152     0.47698    -7.60651  0.0
     23      1      2     24   5     0.00000     0.00000     1.67360  0.0
     23      1      2     25   5     0.00000     0.00000     1.67360  0.0
     49      1      2      3   5     6.40152     0.47698    -7.60651  0.0
     49      1      2     24   5     0.00000     0.00000     1.67360  0.0
     49      1      2     25   5     0.00000     0.00000     1.67360  0.0
      1      2      3      4   5     0.00000     1.55226     1.17152  0.0
      1      2      3      8   5     0.00000     1.55226     1.17152  0.0
     24      2      3      4   5     0.00000     0.00000     0.00000  0.0
     24      2      3      8   5     0.00000     0.00000     0.00000  0.0
     25      2      3      4   5     0.00000     0.00000     0.00000  0.0
     25      2      3      8   5     0.00000     0.00000     0.00000  0.0
      2      3      4      5   5     0.00000    30.33400     0.00000  0.0
      2      3      4     26   5     0.00000    30.33400     0.00000  0.0
      8      3      4      5   5     0.00000    30.33400     0.00000  0.0
      8      3      4     26   5     0.00000    30.33400     0.00000  0.0
      2      3      8      7   5     0.00000    30.33400     0.00000  0.0
      2      3      8      9   5     0.00000    30.33400     0.00000  0.0
      4      3      8      7   5     0.00000    30.33400     0.00000  0.0
      4      3      8      9   5     0.00000    30.33400     0.00000  0.0
      3      4      5      6   5     0.00000    30.33400     0.00000  0.0
      3      4      5     27   5     0.00000    30.33400     0.00000  0.0
     26      4      5      6   5     0.00000    30.33400     0.00000  0.0
     26      4      5     27   5     0.00000    30.33400     0.00000  0.0
      4      5      6      7   5     0.00000    30.33400     0.00000  0.0
      4      5      6     28   5     0.00000    30.33400     0.00000  0.0
     27      5      6      7   5     0.00000    30.33400     0.00000  0.0
     27      5      6     28   5     0.00000    30.33400     0.00000  0.0
      5      6      7      8   5     0.00000    30.33400     0.00000  0.0
      5      6      7     29   5     0.00000    30.33400     0.00000  0.0
     28      6      7      8   5     0.00000    30.33400     0.00000  0.0
     28      6      7     29   5     0.00000    30.33400     0.00000  0.0
      6      7      8      3   5     0.00000    30.33400     0.00000  0.0
      6      7      8      9   5     0.00000    30.33400     0.00000  0.0
     29      7      8      3   5     0.00000    30.33400     0.00000  0.0
     29      7      8      9   5     0.00000    30.33400     0.00000  0.0
      3      8      9     10   5    -2.05016     4.04174     0.74475  0.0
      3      8      9     30   5     0.00000     0.00000     0.00000  0.0
      3      8      9     31   5     0.00000     0.00000     0.00000  0.0
      7      8      9     10   5    -2.05016     4.04174     0.74475  0.0
      7      8      9     30   5     0.00000     0.00000     0.00000  0.0
      7      8      9     31   5     0.00000     0.00000     0.00000  0.0
      8      9     10     11   5    -5.84086    -1.78657     0.00000  0.0
      8      9     10     32   5     0.00000     0.00000     0.00000  0.0
     30      9     10     11   5     0.00000     0.00000     0.00000  0.0
     30      9     10     32   5     0.00000     0.00000     0.00000  0.0
     31      9     10     11   5     0.00000     0.00000     0.00000  0.0
     31      9     10     32   5     0.00000     0.00000     0.00000  0.0
      9     10     11     12   5     0.00000    25.47638     0.00000  0.0
      9     10     11     13   5    12.53945    12.88254     0.00000  0.0
     32     10     11     12   5     0.00000    20.50160     0.00000  0.0
     32     10     11     13   5     0.00000    20.50160     0.00000  0.0
     10     11     13     14   5    11.69428    -0.66526    -1.56900  0.0
     10     11     13     33   5     0.00000     0.00000     0.00000  0.0
     10     11     13     34   5     0.00000     0.00000     0.00000  0.0
     12     11     13     14   5     0.00000     2.52295     0.00000  0.0
     12     11     13     33   5     0.00000     0.00000     0.00000  0.0
     12     11     13     34   5     0.00000     0.00000     0.00000  0.0
     11     13     14     15   5    -8.00818    -1.52298     2.46438  0.0
     11     13     14     35   5     0.00000     0.00000    -0.94140  0.0
     11     13     14     36   5     0.00000     0.00000    -0.94140  0.0
     33     13     14     15   5     0.00000     0.00000     1.25520  0.0
     33     13     14     35   5     0.00000     0.00000     1.25520  0.0
     33     13     14     36   5     0.00000     0.00000     1.25520  0.0
     34     13     14     15   5     0.00000     0.00000     1.25520  0.0
     34     13     14     35   5     0.00000     0.00000     1.25520  0.0
     34     13     14     36   5     0.00000     0.00000     1.25520  0.0
     13     14     15     16   5     4.74884    -0.63178     1.67360  0.0
     13     14     15     37   5     0.00000     0.00000     1.25520  0.0
     13     14     15     38   5     0.00000     0.00000     1.25520  0.0
     35     14     15     16   5     0.00000     0.00000     1.25520  0.0
     35     14     15     37   5     0.00000     0.00000     1.25520  0.0
     35     14     15     38   5     0.00000     0.00000     1.25520  0.0
     36     14     15     16   5     0.00000     0.00000     1.25520  0.0
     36     14     15     37   5     0.00000     0.00000     1.25520  0.0
     36     14     15     38   5     0.00000     0.00000     1.25520  0.0
     14     15     16     17   5     4.74884    -0.63178     1.67360  0.0
     14     15     16     39   5     0.00000     0.00000     1.25520  0.0
     14     15     16     40   5     0.00000     0.00000     1.25520  0.0
     37     15     16     17   5     0.00000     0.00000     1.25520  0.0
     37     15     16     39   5     0.00000     0.00000     1.25520  0.0
     37     15     16     40   5     0.00000     0.00000     1.25520  0.0
     38     15     16     17   5     0.00000     0.00000     1.25520  0.0
     38     15     16     39   5     0.00000     0.00000     1.25520  0.0
     38     15     16     40   5     0.00000     0.00000     1.25520  0.0
     15     16     17     18   5     4.74884    -0.63178     1.67360  0.0
     15     16     17     41   5     0.00000     0.00000     1.25520  0.0
     15     16     17     42   5     0.00000     0.00000     1.25520  0.0
     39     16     17     18   5     0.00000     0.00000     1.25520  0.0
     39     16     17     41   5     0.00000     0.00000     1.25520  0.0
     39     16     17     42   5     0.00000     0.00000     1.25520  0.0
     40     16     17     18   5     0.00000     0.00000     1.25520  0.0
     40     16     17     41   5     0.00000     0.00000     1.25520  0.0
     40     16     17     42   5     0.00000     0.00000     1.25520  0.0
     16     17     18     19   5     4.74884    -0.63178     1.67360  0.0
     16     17     18     43   5     0.00000     0.00000     1.25520  0.0
     16     17     18     44   5     0.00000     0.00000     1.25520  0.0
     41     17     18     19   5     0.00000     0.00000     1.25520  0.0
     41     17     18     43   5     0.00000     0.00000     1.25520  0.0
     41     17     18     44   5     0.00000     0.00000     1.25520  0.0
     42     17     18     19   5     0.00000     0.00000     1.25520  0.0
     42     17     18     43   5     0.00000     0.00000     1.25520  0.0
     42     17     18     44   5     0.00000     0.00000     1.25520  0.0
     17     18     19     20   5     4.74884    -0.63178     1.67360  0.0
     17     18     19     45   5     0.00000     0.00000     1.25520  0.0
     17     18     19     46   5     0.00000     0.00000     1.25520  0.0
     43     18     19     20   5     0.00000     0.00000     1.25520  0.0
     43     18     19     45   5     0.00000     0.00000     1.25520  0.0
     43     18     19     46   5     0.00000     0.00000     1.25520  0.0
     44     18     19     20   5     0.00000     0.00000     1.25520  0.0
     44     18     19     45   5     0.00000     0.00000     1.25520  0.0
     44     18     19     46   5     0.00000     0.00000     1.25520  0.0
     18     19     20     21   5    -8.00818    -1.52298     2.46438  0.0
     18     19     20     47   5     0.00000     0.00000     1.25520  0.0
     18     19     20     48   5     0.00000     0.00000     1.25520  0.0
     45     19     20     21   5     0.00000     0.00000    -0.94140  0.0
     45     19     20     47   5     0.00000     0.00000     1.25520  0.0
     45     19     20     48   5     0.00000     0.00000     1.25520  0.0
     46     19     20     21   5     0.00000     0.00000    -0.94140  0.0
     46     19     20     47   5     0.00000     0.00000     1.25520  0.0
     46     19     20     48   5     0.00000     0.00000     1.25520  0.0
     19     20     21     22   5     0.00000     2.52295     0.00000  0.0
     19     20     21     50   5    11.69428    -0.66526    -1.56900  0.0
     47     20     21     22   5     0.00000     0.00000     0.00000  0.0
     47     20     21     50   5     0.00000     0.00000     0.00000  0.0
     48     20     21     22   5     0.00000     0.00000     0.00000  0.0
     48     20     21     50   5     0.00000     0.00000     0.00000  0.0
     20     21     50     51   5    12.53945    12.88254     0.00000  0.0
     20     21     50     72   5     0.00000    20.50160     0.00000  0.0
     22     21     50     51   5     0.00000    25.47638     0.00000  0.0
     22     21     50     72   5     0.00000    20.50160     0.00000  0.0
     21     50     51     52   5    -5.84086    -1.78657     0.00000  0.0
     21     50     51     73   5     0.00000     0.00000     0.00000  0.0
     21     50     51     74   5     0.00000     0.00000     0.00000  0.0
     72     50     51     52   5     0.00000     0.00000     0.00000  0.0
     72     50     51     73   5     0.00000     0.00000     0.00000  0.0
     72     50     51     74   5     0.00000     0.00000     0.00000  0.0
     50     51     52     53   5    -2.05016     4.04174     0.74475  0.0
     50     51     52     57   5    -2.05016     4.04174     0.74475  0.0
     73     51     52     53   5     0.00000     0.00000     0.00000  0.0
     73     51     52     57   5     0.00000     0.00000     0.00000  0.0
     74     51     52     53   5     0.00000     0.00000     0.00000  0.0
     74     51     52     57   5     0.00000     0.00000     0.00000  0.0
     51     52     53     54   5     0.00000    30.33400     0.00000  0.0
     51     52     53     75   5     0.00000    30.33400     0.00000  0.0
     57     52     53     54   5     0.00000    30.33400     0.00000  0.0
     57     52     53     75   5     0.00000    30.33400     0.00000  0.0
     51     52     57     56   5     0.00000    30.33400     0.00000  0.0
     51     52     57     58   5     0.00000    30.33400     0.00000  0.0
     53     52     57     56   5     0.00000    30.33400     0.00000  0.0
     53     52     57     58   5     0.00000    30.33400     0.00000  0.0
     52     53     54     55   5     0.00000    30.33400     0.00000  0.0
     52     53     54     76   5     0.00000    30.33400     0.00000  0.0
     75     53     54     55   5     0.00000    30.33400     0.00000  0.0
     75     53     54     76   5     0.00000    30.33400     0.00000  0.0
     53     54     55     56   5     0.00000    30.33400     0.00000  0.0
     53     54     55     77   5     0.00000    30.33400     0.00000  0.0
     76     54     55     56   5     0.00000    30.33400     0.00000  0.0
     76     54     55     77   5     0.00000    30.33400     0.00000  0.0
     54     55     56     57   5     0.00000    30.33400     0.00000  0.0
     54     55     56     78   5     0.00000    30.33400     0.00000  0.0
     77     55     56     57   5     0.00000    30.33400     0.00000  0.0
     77     55     56     78   5     0.00000    30.33400     0.00000  0.0
     55     56     57     52   5     0.00000    30.33400     0.00000  0.0
     55     56     57     58   5     0.00000    30.33400     0.00000  0.0
     78     56     57     52   5     0.00000    30.33400     0.00000  0.0
     78     56     57     58   5     0.00000    30.33400     0.00000  0.0
     52     57     58     59   5    -2.05016     4.04174     0.74475  0.0
     52     57     58     79   5     0.00000     0.00000     0.00000  0.0
     52     57     58     80   5     0.00000     0.00000     0.00000  0.0
     56     57     58     59   5    -2.05016     4.04174     0.74475  0.0
     56     57     58     79   5     0.00000     0.00000     0.00000  0.0
     56     57     58     80   5     0.00000     0.00000     0.00000  0.0
     57     58     59     60   5    -5.84086    -1.78657     0.00000  0.0
     57     58     59     81   5     0.00000     0.00000     0.00000  0.0
     79     58     59     60   5     0.00000     0.00000     0.00000  0.0
     79     58     59     81   5     0.00000     0.00000     0.00000  0.0
     80     58     59     60   5     0.00000     0.00000     0.00000  0.0
     80     58     59     81   5     0.00000     0.00000     0.00000  0.0
     58     59     60     61   5     0.00000    25.47638     0.00000  0.0
     58     59     60     62   5    12.53945    12.88254     0.00000  0.0
     81     59     60     61   5     0.00000    20.50160     0.00000  0.0
     81     59     60     62   5     0.00000    20.50160     0.00000  0.0
     59     60     62     63   5    11.69428    -0.66526    -1.56900  0.0
     59     60     62     82   5     0.00000     0.00000     0.00000  0.0
     59     60     62     83   5     0.00000     0.00000     0.00000  0.0
     61     60     62     63   5     0.00000     2.52295     0.00000  0.0
     61     60     62     82   5     0.00000     0.00000     0.00000  0.0
     61     60     62     83   5     0.00000     0.00000     0.00000  0.0
     60     62     63     64   5    -8.00818    -1.52298     2.46438  0.0
     60     62     63     84   5     0.00000     0.00000    -0.94140  0.0
     60     62     63     85   5     0.00000     0.00000    -0.94140  0.0
     82     62     63     64   5     0.00000     0.00000     1.25520  0.0
     82     62     63     84   5     0.00000     0.00000     1.25520  0.0
     82     62     63     85   5     0.00000     0.00000     1.25520  0.0
     83     62     63     64   5     0.00000     0.00000     1.25520  0.0
     83     62     63     84   5     0.00000     0.00000     1.25520  0.0
     83     62     63     85   5     0.00000     0.00000     1.25520  0.0
     62     63     64     65   5     4.74884    -0.63178     1.67360  0.0
     62     63     64     86   5     0.00000     0.00000     1.25520  0.0
     62     63     64     87   5     0.00000     0.00000     1.25520  0.0
     84     63     64     65   5     0.00000     0.00000     1.25520  0.0
     84     63     64     86   5     0.00000     0.00000     1.25520  0.0
     84     63     64     87   5     0.00000     0.00000     1.25520  0.0
     85     63     64     65   5     0.00000     0.00000     1.25520  0.0
     85     63     64     86   5     0.00000     0.00000     1.25520  0.0
     85     63     64     87   5     0.00000     0.00000     1.25520  0.0
     63     64     65     66   5     4.74884    -0.63178     1.67360  0.0
     63     64     65     88   5     0.00000     0.00000     1.25520  0.0
     63     64     65     89   5     0.00000     0.00000     1.25520  0.0
     86     64     65     66   5     0.00000     0.00000     1.25520  0.0
     86     64     65     88   5     0.00000     0.00000     1.25520  0.0
     86     64     65     89   5     0.00000     0.00000     1.25520  0.0
     87     64     65     66   5     0.00000     0.00000     1.25520  0.0
     87     64     65     88   5     0.00000     0.00000     1.25520  0.0
     87     64     65     89   5     0.00000     0.00000     1.25520  0.0
     64     65     66     67   5     4.74884    -0.63178     1.67360  0.0
     64     65     66     90   5     0.00000     0.00000     1.25520  0.0
     64     65     66     91   5     0.00000     0.00000     1.25520  0.0
     88     65     66     67   5     0.00000     0.00000     1.25520  0.0
     88     65     66     90   5     0.00000     0.00000     1.25520  0.0
     88     65     66     91   5     0.00000     0.00000     1.25520  0.0
     89     65     66     67   5     0.00000     0.00000     1.25520  0.0
     89     65     66     90   5     0.00000     0.00000     1.25520  0.0
     89     65     66     91   5     0.00000     0.00000     1.25520  0.0
     65     66     67     68   5     4.74884    -0.63178     1.67360  0.0
     65     66     67     92   5     0.00000     0.00000     1.25520  0.0
     65     66     67     93   5     0.00000     0.00000     1.25520  0.0
     90     66     67     68   5     0.00000     0.00000     1.25520  0.0
     90     66     67     92   5     0.00000     0.00000     1.25520  0.0
     90     66     67     93   5     0.00000     0.00000     1.25520  0.0
     91     66     67     68   5     0.00000     0.00000     1.25520  0.0
     91     66     67     92   5     0.00000     0.00000     1.25520  0.0
     91     66     67     93   5     0.00000     0.00000     1.25520  0.0
     66     67     68     69   5     4.74884    -0.63178     1.67360  0.0
     66     67     68     94   5     0.00000     0.00000     1.25520  0.0
     66     67     68     95   5     0.00000     0.00000     1.25520  0.0
     92     67     68     69   5     0.00000     0.00000     1.25520  0.0
     92     67     68     94   5     0.00000     0.00000     1.25520  0.0
     92     67     68     95   5     0.00000     0.00000     1.25520  0.0
     93     67     68     69   5     0.00000     0.00000     1.25520  0.0
     93     67     68     94   5     0.00000     0.00000     1.25520  0.0
     93     67     68     95   5     0.00000     0.00000     1.25520  0.0
     67     68     69     70   5    -8.00818    -1.52298     2.46438  0.0
     67     68     69     96   5     0.00000     0.00000     1.25520  0.0
     67     68     69     97   5     0.00000     0.00000     1.25520  0.0
     94     68     69     70   5     0.00000     0.00000    -0.94140  0.0
     94     68     69     96   5     0.00000     0.00000     1.25520  0.0
     94     68     69     97   5     0.00000     0.00000     1.25520  0.0
     95     68     69     70   5     0.00000     0.00000    -0.94140  0.0
     95     68     69     96   5     0.00000     0.00000     1.25520  0.0
     95     68     69     97   5     0.00000     0.00000     1.25520  0.0
     68     69     70     71   5     0.00000     2.52295     0.00000  0.0
     68     69     70     98   5    11.69428    -0.66526    -1.56900  0.0
     96     69     70     71   5     0.00000     0.00000     0.00000  0.0
     96     69     70     98   5     0.00000     0.00000     0.00000  0.0
     97     69     70     71   5     0.00000     0.00000     0.00000  0.0
     97     69     70     98   5     0.00000     0.00000     0.00000  0.0
     69     70     98     99   5    12.53945    12.88254     0.00000  0.0
     69     70     98    120   5     0.00000    20.50160     0.00000  0.0
     71     70     98     99   5     0.00000    25.47638     0.00000  0.0
     71     70     98    120   5     0.00000    20.50160     0.00000  0.0
     70     98     99    100   5    -5.84086    -1.78657     0.00000  0.0
     70     98     99    121   5     0.00000     0.00000     0.00000  0.0
     70     98     99    122   5     0.00000     0.00000     0.00000  0.0
    120     98     99    100   5     0.00000     0.00000     0.00000  0.0
    120     98     99    121   5     0.00000     0.00000     0.00000  0.0
    120     98     99    122   5     0.00000     0.00000     0.00000  0.0
     98     99    100    101   5    -2.05016     4.04174     0.74475  0.0
     98     99    100    105   5    -2.05016     4.04174     0.74475  0.0
    121     99    100    101   5     0.00000     0.00000     0.00000  0.0
    121     99    100    105   5     0.00000     0.00000     0.00000  0.0
    122     99    100    101   5     0.00000     0.00000     0.00000  0.0
    122     99    100    105   5     0.00000     0.00000     0.00000  0.0
     99    100    101    102   5     0.00000    30.33400     0.00000  0.0
     99    100    101    123   5     0.00000    30.33400     0.00000  0.0
    105    100    101    102   5     0.00000    30.33400     0.00000  0.0
    105    100    101    123   5     0.00000    30.33400     0.00000  0.0
     99    100    105    104   5     0.00000    30.33400     0.00000  0.0
     99    100    105    106   5     0.00000    30.33400     0.00000  0.0
    101    100    105    104   5     0.00000    30.33400     0.00000  0.0
    101    100    105    106   5     0.00000    30.33400     0.00000  0.0
    100    101    102    103   5     0.00000    30.33400     0.00000  0.0
    100    101    102    124   5     0.00000    30.33400     0.00000  0.0
    123    101    102    103   5     0.00000    30.33400     0.00000  0.0
    123    101    102    124   5     0.00000    30.33400     0.00000  0.0
    101    102    103    104   5     0.00000    30.33400     0.00000  0.0
    101    102    103    125   5     0.00000    30.33400     0.00000  0.0
    124    102    103    104   5     0.00000    30.33400     0.00000  0.0
    124    102    103    125   5     0.00000    30.33400     0.00000  0.0
    102    103    104    105   5     0.00000    30.33400     0.00000  0.0
    102    103    104    126   5     0.00000    30.33400     0.00000  0.0
    125    103    104    105   5     0.00000    30.33400     0.00000  0.0
    125    103    104    126   5     0.00000    30.33400     0.00000  0.0
    103    104    105    100   5     0.00000    30.33400     0.00000  0.0
    103    104    105    106   5     0.00000    30.33400     0.00000  0.0
    126    104    105    100   5     0.00000    30.33400     0.00000  0.0
    126    104    105    106   5     0.00000    30.33400     0.00000  0.0
    100    105    106    107   5    -2.05016     4.04174     0.74475  0.0
    100    105    106    127   5     0.00000     0.00000     0.00000  0.0
    100    105    106    128   5     0.00000     0.00000     0.00000  0.0
    104    105    106    107   5    -2.05016     4.04174     0.74475  0.0
    104    105    106    127   5     0.00000     0.00000     0.00000  0.0
    104    105    106    128   5     0.00000     0.00000     0.00000  0.0
    105    106    107    108   5    -5.84086    -1.78657     0.00000  0.0
    105    106    107    129   5     0.00000     0.00000     0.00000  0.0
    127    106    107    108   5     0.00000     0.00000     0.00000  0.0
    127    106    107    129   5     0.00000     0.00000     0.00000  0.0
    128    106    107    108   5     0.00000     0.00000     0.00000  0.0
    128    106    107    129   5     0.00000     0.00000     0.00000  0.0
    106    107    108    109   5     0.00000    25.47638     0.00000  0.0
    106    107    108    110   5    12.53945    12.88254     0.00000  0.0
    129    107    108    109   5     0.00000    20.50160     0.00000  0.0
    129    107    108    110   5     0.00000    20.50160     0.00000  0.0
    107    108    110    111   5    11.69428    -0.66526    -1.56900  0.0
    107    108    110    130   5     0.00000     0.00000     0.00000  0.0
    107    108    110    131   5     0.00000     0.00000     0.00000  0.0
    109    108    110    111   5     0.00000     2.52295     0.00000  0.0
    109    108    110    130   5     0.00000     0.00000     0.00000  0.0
    109    108    110    131   5     0.00000     0.00000     0.00000  0.0
    108    110    111    112   5    -8.00818    -1.52298     2.46438  0.0
    108    110    111    132   5     0.00000     0.00000    -0.94140  0.0
    108    110    111    133   5     0.00000     0.00000    -0.94140  0.0
    130    110    111    112   5     0.00000     0.00000     1.25520  0.0
    130    110    111    132   5     0.00000     0.00000     1.25520  0.0
    130    110    111    133   5     0.00000     0.00000     1.25520  0.0
    131    110    111    112   5     0.00000     0.00000     1.25520  0.0
    131    110    111    132   5     0.00000     0.00000     1.25520  0.0
    131    110    111    133   5     0.00000     0.00000     1.25520  0.0
    110    111    112    113   5     4.74884    -0.63178     1.67360  0.0
    110    111    112    134   5     0.00000     0.00000     1.25520  0.0
    110    111    112    135   5     0.00000     0.00000     1.25520  0.0
    132    111    112    113   5     0.00000     0.00000     1.25520  0.0
    132    111    112    134   5     0.00000     0.00000     1.25520  0.0
    132    111    112    135   5     0.00000     0.00000     1.25520  0.0
    133    111    112    113   5     0.00000     0.00000     1.25520  0.0
    133    111    112    134   5     0.00000     0.00000     1.25520  0.0
    133    111    112    135   5     0.00000     0.00000     1.25520  0.0
    111    112    113    114   5     4.74884    -0.63178     1.67360  0.0
    111    112    113    136   5     0.00000     0.00000     1.25520  0.0
    111    112    113    137   5     0.00000     0.00000     1.25520  0.0
    134    112    113    114   5     0.00000     0.00000     1.25520  0.0
    134    112    113    136   5     0.00000     0.00000     1.25520  0.0
    134    112    113    137   5     0.00000     0.00000     1.25520  0.0
    135    112    113    114   5     0.00000     0.00000     1.25520  0.0
    135    112    113    136   5     0.00000     0.00000     1.25520  0.0
    135    112    113    137   5     0.00000     0.00000     1.25520  0.0
    112    113    114    115   5     4.74884    -0.63178     1.67360  0.0
    112    113    114    138   5     0.00000     0.00000     1.25520  0.0
    112    113    114    139   5     0.00000     0.00000     1.25520  0.0
    136    113    114    115   5     0.00000     0.00000     1.25520  0.0
    136    113    114    138   5     0.00000     0.00000     1.25520  0.0
    136    113    114    139   5     0.00000     0.00000     1.25520  0.0
    137    113    114    115   5     0.00000     0.00000     1.25520  0.0
    137    113    114    138   5     0.00000     0.00000     1.25520  0.0
    137    113    114    139   5     0.00000     0.00000     1.25520  0.0
    113    114    115    116   5     4.74884    -0.63178     1.67360  0.0
    113    114    115    140   5     0.00000     0.00000     1.25520  0.0
    113    114    115    141   5     0.00000     0.00000     1.25520  0.0
    138    114    115    116   5     0.00000     0.00000     1.25520  0.0
    138    114    115    140   5     0.00000     0.00000     1.25520  0.0
    138    114    115    141   5     0.00000     0.00000     1.25520  0.0
    139    114    115    116   5     0.00000     0.00000     1.25520  0.0
    139    114    115    140   5     0.00000     0.00000     1.25520  0.0
    139    114    115    141   5     0.00000     0.00000     1.25520  0.0
    114    115    116    117   5     4.74884    -0.63178     1.67360  0.0
    114    115    116    142   5     0.00000     0.00000     1.25520  0.0
    114    115    116    143   5     0.00000     0.00000     1.25520  0.0
    140    115    116    117   5     0.00000     0.00000     1.25520  0.0
    140    115    116    142   5     0.00000     0.00000     1.25520  0.0
    140    115    116    143   5     0.00000     0.00000     1.25520  0.0
    141    115    116    117   5     0.00000     0.00000     1.25520  0.0
    141    115    116    142   5     0.00000     0.00000     1.25520  0.0
    141    115    116    143   5     0.00000     0.00000     1.25520  0.0
    115    116    117    118   5    -8.00818    -1.52298     2.46438  0.0
    115    116    117    144   5     0.00000     0.00000     1.25520  0.0
    115    116    117    145   5     0.00000     0.00000     1.25520  0.0
    142    116    117    118   5     0.00000     0.00000    -0.94140  0.0
    142    116    117    144   5     0.00000     0.00000     1.25520  0.0
    142    116    117    145   5     0.00000     0.00000     1.25520  0.0
    143    116    117    118   5     0.00000     0.00000    -0.94140  0.0
    143    116    117    144   5     0.00000     0.00000     1.25520  0.0
    143    116    117    145   5     0.00000     0.00000     1.25520  0.0
    116    117    118    119   5     0.00000     2.52295     0.00000  0.0
    116    117    118    146   5    11.69428    -0.66526    -1.56900  0.0
    144    117    118    119   5     0.00000     0.00000     0.00000  0.0
    144    117    118    146   5     0.00000     0.00000     0.00000  0.0
    145    117    118    119   5     0.00000     0.00000     0.00000  0.0
    145    117    118    146   5     0.00000     0.00000     0.00000  0.0
    117    118    146    147   5    12.53945    12.88254     0.00000  0.0
    117    118    146    168   5     0.00000    20.50160     0.00000  0.0
    119    118    146    147   5     0.00000    25.47638     0.00000  0.0
    119    118    146    168   5     0.00000    20.50160     0.00000  0.0
    118    146    147    148   5    -5.84086    -1.78657     0.00000  0.0
    118    146    147    169   5     0.00000     0.00000     0.00000  0.0
    118    146    147    170   5     0.00000     0.00000     0.00000  0.0
    168    146    147    148   5     0.00000     0.00000     0.00000  0.0
    168    146    147    169   5     0.00000     0.00000     0.00000  0.0
    168    146    147    170   5     0.00000     0.00000     0.00000  0.0
    146    147    148    149   5    -2.05016     4.04174     0.74475  0.0
    146    147    148    153   5    -2.05016     4.04174     0.74475  0.0
    169    147    148    149   5     0.00000     0.00000     0.00000  0.0
    169    147    148    153   5     0.00000     0.00000     0.00000  0.0
    170    147    148    149   5     0.00000     0.00000     0.00000  0.0
    170    147    148    153   5     0.00000     0.00000     0.00000  0.0
    147    148    149    150   5     0.00000    30.33400     0.00000  0.0
    147    148    149    171   5     0.00000    30.33400     0.00000  0.0
    153    148    149    150   5     0.00000    30.33400     0.00000  0.0
    153    148    149    171   5     0.00000    30.33400     0.00000  0.0
    147    148    153    152   5     0.00000    30.33400     0.00000  0.0
    147    148    153    154   5     0.00000    30.33400     0.00000  0.0
    149    148    153    152   5     0.00000    30.33400     0.00000  0.0
    149    148    153    154   5     0.00000    30.33400     0.00000  0.0
    148    149    150    151   5     0.00000    30.33400     0.00000  0.0
    148    149    150    172   5     0.00000    30.33400     0.00000  0.0
    171    149    150    151   5     0.00000    30.33400     0.00000  0.0
    171    149    150    172   5     0.00000    30.33400     0.00000  0.0
    149    150    151    152   5     0.00000    30.33400     0.00000  0.0
    149    150    151    173   5     0.00000    30.33400     0.00000  0.0
    172    150    151    152   5     0.00000    30.33400     0.00000  0.0
    172    150    151    173   5     0.00000    30.33400     0.00000  0.0
    150    151    152    153   5     0.00000    30.33400     0.00000  0.0
    150    151    152    174   5     0.00000    30.33400     0.00000  0.0
    173    151    152    153   5     0.00000    30.33400     0.00000  0.0
    173    151    152    174   5     0.00000    30.33400     0.00000  0.0
    151    152    153    148   5     0.00000    30.33400     0.00000  0.0
    151    152    153    154   5     0.00000    30.33400     0.00000  0.0
    174    152    153    148   5     0.00000    30.33400     0.00000  0.0
    174    152    153    154   5     0.00000    30.33400     0.00000  0.0
    148    153    154    155   5    -2.05016     4.04174     0.74475  0.0
    148    153    154    175   5     0.00000     0.00000     0.00000  0.0
    148    153    154    176   5     0.00000     0.00000     0.00000  0.0
    152    153    154    155   5    -2.05016     4.04174     0.74475  0.0
    152    153    154    175   5     0.00000     0.00000     0.00000  0.0
    152    153    154    176   5     0.00000     0.00000     0.00000  0.0
    153    154    155    156   5    -5.84086    -1.78657     0.00000  0.0
    153    154    155    177   5     0.00000     0.00000     0.00000  0.0
    175    154    155    156   5     0.00000     0.00000     0.00000  0.0
    175    154    155    177   5     0.00000     0.00000     0.00000  0.0
    176    154    155    156   5     0.00000     0.00000     0.00000  0.0
    176    154    155    177   5     0.00000     0.00000     0.00000  0.0
    154    155    156    157   5     0.00000    25.47638     0.00000  0.0
    154    155    156    158   5    12.53945    12.88254     0.00000  0.0
    177    155    156    157   5     0.00000    20.50160     0.00000  0.0
    177    155    156    158   5     0.00000    20.50160     0.00000  0.0
    155    156    158    159   5    11.69428    -0.66526    -1.56900  0.0
    155    156    158    178   5     0.00000     0.00000     0.00000  0.0
    155    156    158    179   5     0.00000     0.00000     0.00000  0.0
    157    156    158    159   5     0.00000     2.52295     0.00000  0.0
    157    156    158    178   5     0.00000     0.00000     0.00000  0.0
    157    156    158    179   5     0.00000     0.00000     0.00000  0.0
    156    158    159    160   5    -8.00818    -1.52298     2.46438  0.0
    156    158    159    180   5     0.00000     0.00000    -0.94140  0.0
    156    158    159    181   5     0.00000     0.00000    -0.94140  0.0
    178    158    159    160   5     0.00000     0.00000     1.25520  0.0
    178    158    159    180   5     0.00000     0.00000     1.25520  0.0
    178    158    159    181   5     0.00000     0.00000     1.25520  0.0
    179    158    159    160   5     0.00000     0.00000     1.25520  0.0
    179    158    159    180   5     0.00000     0.00000     1.25520  0.0
    179    158    159    181   5     0.00000     0.00000     1.25520  0.0
    158    159    160    161   5     4.74884    -0.63178     1.67360  0.0
    158    159    160    182   5     0.00000     0.00000     1.25520  0.0
    158    159    160    183   5     0.00000     0.00000     1.25520  0.0
    180    159    160    161   5     0.00000     0.00000     1.25520  0.0
    180    159    160    182   5     0.00000     0.00000     1.25520  0.0
    180    159    160    183   5     0.00000     0.00000     1.25520  0.0
    181    159    160    161   5     0.00000     0.00000     1.25520  0.0
    181    159    160    182   5     0.00000     0.00000     1.25520  0.0
    181    159    160    183   5     0.00000     0.00000     1.25520  0.0
    159    160    161    162   5     4.74884    -0.63178     1.67360  0.0
    159    160    161    184   5     0.00000     0.00000     1.25520  0.0
    159    160    161    185   5     0.00000     0.00000     1.25520  0.0
    182    160    161    162   5     0.00000     0.00000     1.25520  0.0
    182    160    161    184   5     0.00000     0.00000     1.25520  0.0
    182    160    161    185   5     0.00000     0.00000     1.25520  0.0
    183    160    161    162   5     0.00000     0.00000     1.25520  0.0
    183    160    161    184   5     0.00000     0.00000     1.25520  0.0
    183    160    161    185   5     0.00000     0.00000     1.25520  0.0
    160    161    162    163   5     4.74884    -0.63178     1.67360  0.0
    160    161    162    186   5     0.00000     0.00000     1.25520  0.0
    160    161    162    187   5     0.00000     0.00000     1.25520  0.0
    184    161    162    163   5     0.00000     0.00000     1.25520  0.0
    184    161    162    186   5     0.00000     0.00000     1.25520  0.0
    184    161    162    187   5     0.00000     0.00000     1.25520  0.0
    185    161    162    163   5     0.00000     0.00000     1.25520  0.0
    185    161    162    186   5     0.00000     0.00000     1.25520  0.0
    185    161    162    187   5     0.00000     0.00000     1.25520  0.0
    161    162    163    164   5     4.74884    -0.63178     1.67360  0.0
    161    162    163    188   5     0.00000     0.00000     1.25520  0.0
    161    162    163    189   5     0.00000     0.00000     1.25520  0.0
    186    162    163    164   5     0.00000     0.00000     1.25520  0.0
    186    162    163    188   5     0.00000     0.00000     1.25520  0.0
    186    162    163    189   5     0.00000     0.00000     1.25520  0.0
    187    162    163    164   5     0.00000     0.00000     1.25520  0.0
    187    162    163    188   5     0.00000     0.00000     1.25520  0.0
    187    162    163    189   5     0.00000     0.00000     1.25520  0.0
    162    163    164    165   5     4.74884    -0.63178     1.67360  0.0
    162    163    164    190   5     0.00000     0.00000     1.25520  0.0
    162    163    164    191   5     0.00000     0.00000     1.25520  0.0
    188    163    164    165   5     0.00000     0.00000     1.25520  0.0
    188    163    164    190   5     0.00000     0.00000     1.25520  0.0
    188    163    164    191   5     0.00000     0.00000     1.25520  0.0
    189    163    164    165   5     0.00000     0.00000     1.25520  0.0
    189    163    164    190   5     0.00000     0.00000     1.25520  0.0
    189    163    164    191   5     0.00000     0.00000     1.25520  0.0
    163    164    165    166   5    -8.00818    -1.52298     2.46438  0.0
    163    164    165    192   5     0.00000     0.00000     1.25520  0.0
    163    164    165    193   5     0.00000     0.00000     1.25520  0.0
    190    164    165    166   5     0.00000     0.00000    -0.94140  0.0
    190    164    165    192   5     0.00000     0.00000     1.25520  0.0
    190    164    165    193   5     0.00000     0.00000     1.25520  0.0
    191    164    165    166   5     0.00000     0.00000    -0.94140  0.0
    191    164    165    192   5     0.00000     0.00000     1.25520  0.0
    191    164    165    193   5     0.00000     0.00000     1.25520  0.0
    164    165    166    167   5     0.00000     2.52295     0.00000  0.0
    164    165    166    194   5    11.69428    -0.66526    -1.56900  0.0
    192    165    166    167   5     0.00000     0.00000     0.00000  0.0
    192    165    166    194   5     0.00000     0.00000     0.00000  0.0
    193    165    166    167   5     0.00000     0.00000     0.00000  0.0
    193    165    166    194   5     0.00000     0.00000     0.00000  0.0
    165    166    194    195   5    12.53945    12.88254     0.00000  0.0
    165    166    194    216   5     0.00000    20.50160     0.00000  0.0
    167    166    194    195   5     0.00000    25.47638     0.00000  0.0
    167    166    194    216   5     0.00000    20.50160     0.00000  0.0
    166    194    195    196   5    -5.84086    -1.78657     0.00000  0.0
    166    194    195    217   5     0.00000     0.00000     0.00000  0.0
    166    194    195    218   5     0.00000     0.00000     0.00000  0.0
    216    194    195    196   5     0.00000     0.00000     0.00000  0.0
    216    194    195    217   5     0.00000     0.00000     0.00000  0.0
    216    194    195    218   5     0.00000     0.00000     0.00000  0.0
    194    195    196    197   5    -2.05016     4.04174     0.74475  0.0
    194    195    196    201   5    -2.05016     4.04174     0.74475  0.0
    217    195    196    197   5     0.00000     0.00000     0.00000  0.0
    217    195    196    201   5     0.00000     0.00000     0.00000  0.0
    218    195    196    197   5     0.00000     0.00000     0.00000  0.0
    218    195    196    201   5     0.00000     0.00000     0.00000  0.0
    195    196    197    198   5     0.00000    30.33400     0.00000  0.0
    195    196    197    219   5     0.00000    30.33400     0.00000  0.0
    201    196    197    198   5     0.00000    30.33400     0.00000  0.0
    201    196    197    219   5     0.00000    30.33400     0.00000  0.0
    195    196    201    200   5     0.00000    30.33400     0.00000  0.0
    195    196    201    202   5     0.00000    30.33400     0.00000  0.0
    197    196    201    200   5     0.00000    30.33400     0.00000  0.0
    197    196    201    202   5     0.00000    30.33400     0.00000  0.0
    196    197    198    199   5     0.00000    30.33400     0.00000  0.0
    196    197    198    220   5     0.00000    30.33400     0.00000  0.0
    219    197    198    199   5     0.00000    30.33400     0.00000  0.0
    219    197    198    220   5     0.00000    30.33400     0.00000  0.0
    197    198    199    200   5     0.00000    30.33400     0.00000  0.0
    197    198    199    221   5     0.00000    30.33400     0.00000  0.0
    220    198    199    200   5     0.00000    30.33400     0.00000  0.0
    220    198    199    221   5     0.00000    30.33400     0.00000  0.0
    198    199    200    201   5     0.00000    30.33400     0.00000  0.0
    198    199    200    222   5     0.00000    30.33400     0.00000  0.0
    221    199    200    201   5     0.00000    30.33400     0.00000  0.0
    221    199    200    222   5     0.00000    30.33400     0.00000  0.0
    199    200    201    196   5     0.00000    30.33400     0.00000  0.0
    199    200    201    202   5     0.00000    30.33400     0.00000  0.0
    222    200    201    196   5     0.00000    30.33400     0.00000  0.0
    222    200    201    202   5     0.00000    30.33400     0.00000  0.0
    196    201    202    203   5    -2.05016     4.04174     0.74475  0.0
    196    201    202    223   5     0.00000     0.00000     0.00000  0.0
    196    201    202    224   5     0.00000     0.00000     0.00000  0.0
    200    201    202    203   5    -2.05016     4.04174     0.74475  0.0
    200    201    202    223   5     0.00000     0.00000     0.00000  0.0
    200    201    202    224   5     0.00000     0.00000     0.00000  0.0
    201    202    203    204   5    -5.84086    -1.78657     0.00000  0.0
    201    202    203    225   5     0.00000     0.00000     0.00000  0.0
    223    202    203    204   5     0.00000     0.00000     0.00000  0.0
    223    202    203    225   5     0.00000     0.00000     0.00000  0.0
    224    202    203    204   5     0.00000     0.00000     0.00000  0.0
    224    202    203    225   5     0.00000     0.00000     0.00000  0.0
    202    203    204    205   5     0.00000    25.47638     0.00000  0.0
    202    203    204    206   5    12.53945    12.88254     0.00000  0.0
    225    203    204    205   5     0.00000    20.50160     0.00000  0.0
    225    203    204    206   5     0.00000    20.50160     0.00000  0.0
    203    204    206    207   5    11.69428    -0.66526    -1.56900  0.0
    203    204    206    226   5     0.00000     0.00000     0.00000  0.0
    203    204    206    227   5     0.00000     0.00000     0.00000  0.0
    205    204    206    207   5     0.00000     2.52295     0.00000  0.0
    205    204    206    226   5     0.00000     0.00000     0.00000  0.0
    205    204    206    227   5     0.00000     0.00000     0.00000  0.0
    204    206    207    208   5    -8.00818    -1.52298     2.46438  0.0
    204    206    207    228   5     0.00000     0.00000    -0.94140  0.0
    204    206    207    229   5     0.00000     0.00000    -0.94140  0.0
    226    206    207    208   5     0.00000     0.00000     1.25520  0.0
    226    206    207    228   5     0.00000     0.00000     1.25520  0.0
    226    206    207    229   5     0.00000     0.00000     1.25520  0.0
    227    206    207    208   5     0.00000     0.00000     1.25520  0.0
    227    206    207    228   5     0.00000     0.00000     1.25520  0.0
    227    206    207    229   5     0.00000     0.00000     1.25520  0.0
    206    207    208    209   5     4.74884    -0.63178     1.67360  0.0
    206    207    208    230   5     0.00000     0.00000     1.25520  0.0
    206    207    208    231   5     0.00000     0.00000     1.25520  0.0
    228    207    208    209   5     0.00000     0.00000     1.25520  0.0
    228    207    208    230   5     0.00000     0.00000     1.25520  0.0
    228    207    208    231   5     0.00000     0.00000     1.25520  0.0
    229    207    208    209   5     0.00000     0.00000     1.25520  0.0
    229    207    208    230   5     0.00000     0.00000     1.25520  0.0
    229    207    208    231   5     0.00000     0.00000     1.25520  0.0
    207    208    209    210   5     4.74884    -0.63178     1.67360  0.0
    207    208    209    232   5     0.00000     0.00000     1.25520  0.0
    207    208    209    233   5     0.00000     0.00000     1.25520  0.0
    230    208    209    210   5     0.00000     0.00000     1.25520  0.0
    230    208    209    232   5     0.00000     0.00000     1.25520  0.0
    230    208    209    233   5     0.00000     0.00000     1.25520  0.0
    231    208    209    210   5     0.00000     0.00000     1.25520  0.0
    231    208    209    232   5     0.00000     0.00000     1.25520  0.0
    231    208    209    233   5     0.00000     0.00000     1.25520  0.0
    208    209    210    211   5     4.74884    -0.63178     1.67360  0.0
    208    209    210    234   5     0.00000     0.00000     1.25520  0.0
    208    209    210    235   5     0.00000     0.00000     1.25520  0.0
    232    209    210    211   5     0.00000     0.00000     1.25520  0.0
    232    209    210    234   5     0.00000     0.00000     1.25520  0.0
    232    209    210    235   5     0.00000     0.00000     1.25520  0.0
    233    209    210    211   5     0.00000     0.00000     1.25520  0.0
    233    209    210    234   5     0.00000     0.00000     1.25520  0.0
    233    209    210    235   5     0.00000     0.00000     1.25520  0.0
    209    210    211    212   5     4.74884    -0.63178     1.67360  0.0
    209    210    211    236   5     0.00000     0.00000     1.25520  0.0
    209    210    211    237   5     0.00000     0.00000     1.25520  0.0
    234    210    211    212   5     0.00000     0.00000     1.25520  0.0
    234    210    211    236   5     0.00000     0.00000     1.25520  0.0
    234    210    211    237   5     0.00000     0.00000     1.25520  0.0
    235    210    211    212   5     0.00000     0.00000     1.25520  0.0
    235    210    211    236   5     0.00000     0.00000     1.25520  0.0
    235    210    211    237   5     0.00000     0.00000     1.25520  0.0
    210    211    212    213   5     4.74884    -0.63178     1.67360  0.0
    210    211    212    238   5     0.00000     0.00000     1.25520  0.0
    210    211    212    239   5     0.00000     0.00000     1.25520  0.0
    236    211    212    213   5     0.00000     0.00000     1.25520  0.0
    236    211    212    238   5     0.00000     0.00000     1.25520  0.0
    236    211    212    239   5     0.00000     0.00000     1.25520  0.0
    237    211    212    213   5     0.00000     0.00000     1.25520  0.0
    237    211    212    238   5     0.00000     0.00000     1.25520  0.0
    237    211    212    239   5     0.00000     0.00000     1.25520  0.0
    211    212    213    214   5    -8.00818    -1.52298     2.46438  0.0
    211    212    213    240   5     0.00000     0.00000     1.25520  0.0
    211    212    213    241   5     0.00000     0.00000     1.25520  0.0
    238    212    213    214   5     0.00000     0.00000    -0.94140  0.0
    238    212    213    240   5     0.00000     0.00000     1.25520  0.0
    238    212    213    241   5     0.00000     0.00000     1.25520  0.0
    239    212    213    214   5     0.00000     0.00000    -0.94140  0.0
    239    212    213    240   5     0.00000     0.00000     1.25520  0.0
    239    212    213    241   5     0.00000     0.00000     1.25520  0.0
    212    213    214    215   5     0.00000     2.52295     0.00000  0.0
    212    213    214    242   5    11.69428    -0.66526    -1.56900  0.0
    240    213    214    215   5     0.00000     0.00000     0.00000  0.0
    240    213    214    242   5     0.00000     0.00000     0.00000  0.0
    241    213    214    215   5     0.00000     0.00000     0.00000  0.0
    241    213    214    242   5     0.00000     0.00000     0.00000  0.0
    213    214    242    243   5    12.53945    12.88254     0.00000  0.0
    213    214    242    264   5     0.00000    20.50160     0.00000  0.0
    215    214    242    243   5     0.00000    25.47638     0.00000  0.0
    215    214    242    264   5     0.00000    20.50160     0.00000  0.0
    214    242    243    244   5    -5.84086    -1.78657     0.00000  0.0
    214    242    243    265   5     0.00000     0.00000     0.00000  0.0
    214    242    243    266   5     0.00000     0.00000     0.00000  0.0
    264    242    243    244   5     0.00000     0.00000     0.00000  0.0
    264    242    243    265   5     0.00000     0.00000     0.00000  0.0
    264    242    243    266   5     0.00000     0.00000     0.00000  0.0
    242    243    244    245   5    -2.05016     4.04174     0.74475  0.0
    242    243    244    249   5    -2.05016     4.04174     0.74475  0.0
    265    243    244    245   5     0.00000     0.00000     0.00000  0.0
    265    243    244    249   5     0.00000     0.00000     0.00000  0.0
    266    243    244    245   5     0.00000     0.00000     0.00000  0.0
    266    243    244    249   5     0.00000     0.00000     0.00000  0.0
    243    244    245    246   5     0.00000    30.33400     0.00000  0.0
    243    244    245    267   5     0.00000    30.33400     0.00000  0.0
    249    244    245    246   5     0.00000    30.33400     0.00000  0.0
    249    244    245    267   5     0.00000    30.33400     0.00000  0.0
    243    244    249    248   5     0.00000    30.33400     0.00000  0.0
    243    244    249    250   5     0.00000    30.33400     0.00000  0.0
    245    244    249    248   5     0.00000    30.33400     0.00000  0.0
    245    244    249    250   5     0.00000    30.33400     0.00000  0.0
    244    245    246    247   5     0.00000    30.33400     0.00000  0.0
    244    245    246    268   5     0.00000    30.33400     0.00000  0.0
    267    245    246    247   5     0.00000    30.33400     0.00000  0.0
    267    245    246    268   5     0.00000    30.33400     0.00000  0.0
    245    246    247    248   5     0.00000    30.33400     0.00000  0.0
    245    246    247    269   5     0.00000    30.33400     0.00000  0.0
    268    246    247    248   5     0.00000    30.33400     0.00000  0.0
    268    246    247    269   5     0.00000    30.33400     0.00000  0.0
    246    247    248    249   5     0.00000    30.33400     0.00000  0.0
    246    247    248    270   5     0.00000    30.33400     0.00000  0.0
    269    247    248    249   5     0.00000    30.33400     0.00000  0.0
    269    247    248    270   5     0.00000    30.33400     0.00000  0.0
    247    248    249    244   5     0.00000    30.33400     0.00000  0.0
    247    248    249    250   5     0.00000    30.33400     0.00000  0.0
    270    248    249    244   5     0.00000    30.33400     0.00000  0.0
    270    248    249    250   5     0.00000    30.33400     0.00000  0.0
    244    249    250    251   5    -2.05016     4.04174     0.74475  0.0
    244    249    250    271   5     0.00000     0.00000     0.00000  0.0
    244    249    250    272   5     0.00000     0.00000     0.00000  0.0
    248    249    250    251   5    -2.05016     4.04174     0.74475  0.0
    248    249    250    271   5     0.00000     0.00000     0.00000  0.0
    248    249    250    272   5     0.00000     0.00000     0.00000  0.0
    249    250    251    252   5    -5.84086    -1.78657     0.00000  0.0
    249    250    251    273   5     0.00000     0.00000     0.00000  0.0
    271    250    251    252   5     0.00000     0.00000     0.00000  0.0
    271    250    251    273   5     0.00000     0.00000     0.00000  0.0
    272    250    251    252   5     0.00000     0.00000     0.00000  0.0
    272    250    251    273   5     0.00000     0.00000     0.00000  0.0
    250    251    252    253   5     0.00000    25.47638     0.00000  0.0
    250    251    252    254   5    12.53945    12.88254     0.00000  0.0
    273    251    252    253   5     0.00000    20.50160     0.00000  0.0
    273    251    252    254   5     0.00000    20.50160     0.00000  0.0
    251    252    254    255   5    11.69428    -0.66526    -1.56900  0.0
    251    252    254    274   5     0.00000     0.00000     0.00000  0.0
    251    252    254    275   5     0.00000     0.00000     0.00000  0.0
    253    252    254    255   5     0.00000     2.52295     0.00000  0.0
    253    252    254    274   5     0.00000     0.00000     0.00000  0.0
    253    252    254    275   5     0.00000     0.00000     0.00000  0.0
    252    254    255    256   5    -8.00818    -1.52298     2.46438  0.0
    252    254    255    276   5     0.00000     0.00000    -0.94140  0.0
    252    254    255    277   5     0.00000     0.00000    -0.94140  0.0
    274    254    255    256   5     0.00000     0.00000     1.25520  0.0
    274    254    255    276   5     0.00000     0.00000     1.25520  0.0
    274    254    255    277   5     0.00000     0.00000     1.25520  0.0
    275    254    255    256   5     0.00000     0.00000     1.25520  0.0
    275    254    255    276   5     0.00000     0.00000     1.25520  0.0
    275    254    255    277   5     0.00000     0.00000     1.25520  0.0
    254    255    256    257   5     4.74884    -0.63178     1.67360  0.0
    254    255    256    278   5     0.00000     0.00000     1.25520  0.0
    254    255    256    279   5     0.00000     0.00000     1.25520  0.0
    276    255    256    257   5     0.00000     0.00000     1.25520  0.0
    276    255    256    278   5     0.00000     0.00000     1.25520  0.0
    276    255    256    279   5     0.00000     0.00000     1.25520  0.0
    277    255    256    257   5     0.00000     0.00000     1.25520  0.0
    277    255    256    278   5     0.00000     0.00000     1.25520  0.0
    277    255    256    279   5     0.00000     0.00000     1.25520  0.0
    255    256    257    258   5     4.74884    -0.63178     1.67360  0.0
    255    256    257    280   5     0.00000     0.00000     1.25520  0.0
    255    256    257    281   5     0.00000     0.00000     1.25520  0.0
    278    256    257    258   5     0.00000     0.00000     1.25520  0.0
    278    256    257    280   5     0.00000     0.00000     1.25520  0.0
    278    256    257    281   5     0.00000     0.00000     1.25520  0.0
    279    256    257    258   5     0.00000     0.00000     1.25520  0.0
    279    256    257    280   5     0.00000     0.00000     1.25520  0.0
    279    256    257    281   5     0.00000     0.00000     1.25520  0.0
    256    257    258    259   5     4.74884    -0.63178     1.67360  0.0
    256    257    258    282   5     0.00000     0.00000     1.25520  0.0
    256    257    258    283   5     0.00000     0.00000     1.25520  0.0
    280    257    258    259   5     0.00000     0.00000     1.25520  0.0
    280    257    258    282   5     0.00000     0.00000     1.25520  0.0
    280    257    258    283   5     0.00000     0.00000     1.25520  0.0
    281    257    258    259   5     0.00000     0.00000     1.25520  0.0
    281    257    258    282   5     0.00000     0.00000     1.25520  0.0
    281    257    258    283   5     0.00000     0.00000     1.25520  0.0
    257    258    259    260   5     4.74884    -0.63178     1.67360  0.0
    257    258    259    284   5     0.00000     0.00000     1.25520  0.0
    257    258    259    285   5     0.00000     0.00000     1.25520  0.0
    282    258    259    260   5     0.00000     0.00000     1.25520  0.0
    282    258    259    284   5     0.00000     0.00000     1.25520  0.0
    282    258    259    285   5     0.00000     0.00000     1.25520  0.0
    283    258    259    260   5     0.00000     0.00000     1.25520  0.0
    283    258    259    284   5     0.00000     0.00000     1.25520  0.0
    283    258    259    285   5     0.00000     0.00000     1.25520  0.0
    258    259    260    261   5     4.74884    -0.63178     1.67360  0.0
    258    259    260    286   5     0.00000     0.00000     1.25520  0.0
    258    259    260    287   5     0.00000     0.00000     1.25520  0.0
    284    259    260    261   5     0.00000     0.00000     1.25520  0.0
    284    259    260    286   5     0.00000     0.00000     1.25520  0.0
    284    259    260    287   5     0.00000     0.00000     1.25520  0.0
    285    259    260    261   5     0.00000     0.00000     1.25520  0.0
    285    259    260    286   5     0.00000     0.00000     1.25520  0.0
    285    259    260    287   5     0.00000     0.00000     1.25520  0.0
    259    260    261    262   5    -8.00818    -1.52298     2.46438  0.0
    259    260    261    288   5     0.00000     0.00000     1.25520  0.0
    259    260    261    289   5     0.00000     0.00000     1.25520  0.0
    286    260    261    262   5     0.00000     0.00000    -0.94140  0.0
    286    260    261    288   5     0.00000     0.00000     1.25520  0.0
    286    260    261    289   5     0.00000     0.00000     1.25520  0.0
    287    260    261    262   5     0.00000     0.00000    -0.94140  0.0
    287    260    261    288   5     0.00000     0.00000     1.25520  0.0
    287    260    261    289   5     0.00000     0.00000     1.25520  0.0
    260    261    262    263   5     0.00000     2.52295     0.00000  0.0
    260    261    262    290   5    11.69428    -0.66526    -1.56900  0.0
    288    261    262    263   5     0.00000     0.00000     0.00000  0.0
    288    261    262    290   5     0.00000     0.00000     0.00000  0.0
    289    261    262    263   5     0.00000     0.00000     0.00000  0.0
    289    261    262    290   5     0.00000     0.00000     0.00000  0.0
    261    262    290    291   5    12.53945    12.88254     0.00000  0.0
    261    262    290    312   5     0.00000    20.50160     0.00000  0.0
    263    262    290    291   5     0.00000    25.47638     0.00000  0.0
    263    262    290    312   5     0.00000    20.50160     0.00000  0.0
    262    290    291    292   5    -5.84086    -1.78657     0.00000  0.0
    262    290    291    313   5     0.00000     0.00000     0.00000  0.0
    262    290    291    314   5     0.00000     0.00000     0.00000  0.0
    312    290    291    292   5     0.00000     0.00000     0.00000  0.0
    312    290    291    313   5     0.00000     0.00000     0.00000  0.0
    312    290    291    314   5     0.00000     0.00000     0.00000  0.0
    290    291    292    293   5    -2.05016     4.04174     0.74475  0.0
    290    291    292    297   5    -2.05016     4.04174     0.74475  0.0
    313    291    292    293   5     0.00000     0.00000     0.00000  0.0
    313    291    292    297   5     0.00000     0.00000     0.00000  0.0
    314    291    292    293   5     0.00000     0.00000     0.00000  0.0
    314    291    292    297   5     0.00000     0.00000     0.00000  0.0
    291    292    293    294   5     0.00000    30.33400     0.00000  0.0
    291    292    293    315   5     0.00000    30.33400     0.00000  0.0
    297    292    293    294   5     0.00000    30.33400     0.00000  0.0
    297    292    293    315   5     0.00000    30.33400     0.00000  0.0
    291    292    297    296   5     0.00000    30.33400     0.00000  0.0
    291    292    297    298   5     0.00000    30.33400     0.00000  0.0
    293    292    297    296   5     0.00000    30.33400     0.00000  0.0
    293    292    297    298   5     0.00000    30.33400     0.00000  0.0
    292    293    294    295   5     0.00000    30.33400     0.00000  0.0
    292    293    294    316   5     0.00000    30.33400     0.00000  0.0
    315    293    294    295   5     0.00000    30.33400     0.00000  0.0
    315    293    294    316   5     0.00000    30.33400     0.00000  0.0
    293    294    295    296   5     0.00000    30.33400     0.00000  0.0
    293    294    295    317   5     0.00000    30.33400     0.00000  0.0
    316    294    295    296   5     0.00000    30.33400     0.00000  0.0
    316    294    295    317   5     0.00000    30.33400     0.00000  0.0
    294    295    296    297   5     0.00000    30.33400     0.00000  0.0
    294    295    296    318   5     0.00000    30.33400     0.00000  0.0
    317    295    296    297   5     0.00000    30.33400     0.00000  0.0
    317    295    296    318   5     0.00000    30.33400     0.00000  0.0
    295    296    297    292   5     0.00000    30.33400     0.00000  0.0
    295    296    297    298   5     0.00000    30.33400     0.00000  0.0
    318    296    297    292   5     0.00000    30.33400     0.00000  0.0
    318    296    297    298   5     0.00000    30.33400     0.00000  0.0
    292    297    298    299   5    -2.05016     4.04174     0.74475  0.0
    292    297    298    319   5     0.00000     0.00000     0.00000  0.0
    292    297    298    320   5     0.00000     0.00000     0.00000  0.0
    296    297    298    299   5    -2.05016     4.04174     0.74475  0.0
    296    297    298    319   5     0.00000     0.00000     0.00000  0.0
    296    297    298    320   5     0.00000     0.00000     0.00000  0.0
    297    298    299    300   5    -5.84086    -1.78657     0.00000  0.0
    297    298    299    321   5     0.00000     0.00000     0.00000  0.0
    319    298    299    300   5     0.00000     0.00000     0.00000  0.0
    319    298    299    321   5     0.00000     0.00000     0.00000  0.0
    320    298    299    300   5     0.00000     0.00000     0.00000  0.0
    320    298    299    321   5     0.00000     0.00000     0.00000  0.0
    298    299    300    301   5     0.00000    25.47638     0.00000  0.0
    298    299    300    302   5    12.53945    12.88254     0.00000  0.0
    321    299    300    301   5     0.00000    20.50160     0.00000  0.0
    321    299    300    302   5     0.00000    20.50160     0.00000  0.0
    299    300    302    303   5    11.69428    -0.66526    -1.56900  0.0
    299    300    302    322   5     0.00000     0.00000     0.00000  0.0
    299    300    302    323   5     0.00000     0.00000     0.00000  0.0
    301    300    302    303   5     0.00000     2.52295     0.00000  0.0
    301    300    302    322   5     0.00000     0.00000     0.00000  0.0
    301    300    302    323   5     0.00000     0.00000     0.00000  0.0
    300    302    303    304   5    -8.00818    -1.52298     2.46438  0.0
    300    302    303    324   5     0.00000     0.00000    -0.94140  0.0
    300    302    303    325   5     0.00000     0.00000    -0.94140  0.0
    322    302    303    304   5     0.00000     0.00000     1.25520  0.0
    322    302    303    324   5     0.00000     0.00000     1.25520  0.0
    322    302    303    325   5     0.00000     0.00000     1.25520  0.0
    323    302    303    304   5     0.00000     0.00000     1.25520  0.0
    323    302    303    324   5     0.00000     0.00000     1.25520  0.0
    323    302    303    325   5     0.00000     0.00000     1.25520  0.0
    302    303    304    305   5     4.74884    -0.63178     1.67360  0.0
    302    303    304    326   5     0.00000     0.00000     1.25520  0.0
    302    303    304    327   5     0.00000     0.00000     1.25520  0.0
    324    303    304    305   5     0.00000     0.00000     1.25520  0.0
    324    303    304    326   5     0.00000     0.00000     1.25520  0.0
    324    303    304    327   5     0.00000     0.00000     1.25520  0.0
    325    303    304    305   5     0.00000     0.00000     1.25520  0.0
    325    303    304    326   5     0.00000     0.00000     1.25520  0.0
    325    303    304    327   5     0.00000     0.00000     1.25520  0.0
    303    304    305    306   5     4.74884    -0.63178     1.67360  0.0
    303    304    305    328   5     0.00000     0.00000     1.25520  0.0
    303    304    305    329   5     0.00000     0.00000     1.25520  0.0
    326    304    305    306   5     0.00000     0.00000     1.25520  0.0
    326    304    305    328   5     0.00000     0.00000     1.25520  0.0
    326    304    305    329   5     0.00000     0.00000     1.25520  0.0
    327    304    305    306   5     0.00000     0.00000     1.25520  0.0
    327    304    305    328   5     0.00000     0.00000     1.25520  0.0
    327    304    305    329   5     0.00000     0.00000     1.25520  0.0
    304    305    306    307   5     4.74884    -0.63178     1.67360  0.0
    304    305    306    330   5     0.00000     0.00000     1.25520  0.0
    304    305    306    331   5     0.00000     0.00000     1.25520  0.0
    328    305    306    307   5     0.00000     0.00000     1.25520  0.0
    328    305    306    330   5     0.00000     0.00000     1.25520  0.0
    328    305    306    331   5     0.00000     0.00000     1.25520  0.0
    329    305    306    307   5     0.00000     0.00000     1.25520  0.0
    329    305    306    330   5     0.00000     0.00000     1.25520  0.0
    329    305    306    331   5     0.00000     0.00000     1.25520  0.0
    305    306    307    308   5     4.74884    -0.63178     1.67360  0.0
    305    306    307    332   5     0.00000     0.00000     1.25520  0.0
    305    306    307    333   5     0.00000     0.00000     1.25520  0.0
    330    306    307    308   5     0.00000     0.00000     1.25520  0.0
    330    306    307    332   5     0.00000     0.00000     1.25520  0.0
    330    306    307    333   5     0.00000     0.00000     1.25520  0.0
    331    306    307    308   5     0.00000     0.00000     1.25520  0.0
    331    306    307    332   5     0.00000     0.00000     1.25520  0.0
    331    306    307    333   5     0.00000     0.00000     1.25520  0.0
    306    307    308    309   5     4.74884    -0.63178     1.67360  0.0
    306    307    308    334   5     0.00000     0.00000     1.25520  0.0
    306    307    308    335   5     0.00000     0.00000     1.25520  0.0
    332    307    308    309   5     0.00000     0.00000     1.25520  0.0
    332    307    308    334   5     0.00000     0.00000     1.25520  0.0
    332    307    308    335   5     0.00000     0.00000     1.25520  0.0
    333    307    308    309   5     0.00000     0.00000     1.25520  0.0
    333    307    308    334   5     0.00000     0.00000     1.25520  0.0
    333    307    308    335   5     0.00000     0.00000     1.25520  0.0
    307    308    309    310   5    -8.00818    -1.52298     2.46438  0.0
    307    308    309    336   5     0.00000     0.00000     1.25520  0.0
    307    308    309    337   5     0.00000     0.00000     1.25520  0.0
    334    308    309    310   5     0.00000     0.00000    -0.94140  0.0
    334    308    309    336   5     0.00000     0.00000     1.25520  0.0
    334    308    309    337   5     0.00000     0.00000     1.25520  0.0
    335    308    309    310   5     0.00000     0.00000    -0.94140  0.0
    335    308    309    336   5     0.00000     0.00000     1.25520  0.0
    335    308    309    337   5     0.00000     0.00000     1.25520  0.0
    308    309    310    311   5     0.00000     2.52295     0.00000  0.0
    308    309    310    338   5    11.69428    -0.66526    -1.56900  0.0
    336    309    310    311   5     0.00000     0.00000     0.00000  0.0
    336    309    310    338   5     0.00000     0.00000     0.00000  0.0
    337    309    310    311   5     0.00000     0.00000     0.00000  0.0
    337    309    310    338   5     0.00000     0.00000     0.00000  0.0
    309    310    338    339   5    12.53945    12.88254     0.00000  0.0
    309    310    338    360   5     0.00000    20.50160     0.00000  0.0
    311    310    338    339   5     0.00000    25.47638     0.00000  0.0
    311    310    338    360   5     0.00000    20.50160     0.00000  0.0
    310    338    339    340   5    -5.84086    -1.78657     0.00000  0.0
    310    338    339    361   5     0.00000     0.00000     0.00000  0.0
    310    338    339    362   5     0.00000     0.00000     0.00000  0.0
    360    338    339    340   5     0.00000     0.00000     0.00000  0.0
    360    338    339    361   5     0.00000     0.00000     0.00000  0.0
    360    338    339    362   5     0.00000     0.00000     0.00000  0.0
    338    339    340    341   5    -2.05016     4.04174     0.74475  0.0
    338    339    340    345   5    -2.05016     4.04174     0.74475  0.0
    361    339    340    341   5     0.00000     0.00000     0.00000  0.0
    361    339    340    345   5     0.00000     0.00000     0.00000  0.0
    362    339    340    341   5     0.00000     0.00000     0.00000  0.0
    362    339    340    345   5     0.00000     0.00000     0.00000  0.0
    339    340    341    342   5     0.00000    30.33400     0.00000  0.0
    339    340    341    363   5     0.00000    30.33400     0.00000  0.0
    345    340    341    342   5     0.00000    30.33400     0.00000  0.0
    345    340    341    363   5     0.00000    30.33400     0.00000  0.0
    339    340    345    344   5     0.00000    30.33400     0.00000  0.0
    339    340    345    346   5     0.00000    30.33400     0.00000  0.0
    341    340    345    344   5     0.00000    30.33400     0.00000  0.0
    341    340    345    346   5     0.00000    30.33400     0.00000  0.0
    340    341    342    343   5     0.00000    30.33400     0.00000  0.0
    340    341    342    364   5     0.00000    30.33400     0.00000  0.0
    363    341    342    343   5     0.00000    30.33400     0.00000  0.0
    363    341    342    364   5     0.00000    30.33400     0.00000  0.0
    341    342    343    344   5     0.00000    30.33400     0.00000  0.0
    341    342    343    365   5     0.00000    30.33400     0.00000  0.0
    364    342    343    344   5     0.00000    30.33400     0.00000  0.0
    364    342    343    365   5     0.00000    30.33400     0.00000  0.0
    342    343    344    345   5     0.00000    30.33400     0.00000  0.0
    342    343    344    366   5     0.00000    30.33400     0.00000  0.0
    365    343    344    345   5     0.00000    30.33400     0.00000  0.0
    365    343    344    366   5     0.00000    30.33400     0.00000  0.0
    343    344    345    340   5     0.00000    30.33400     0.00000  0.0
    343    344    345    346   5     0.00000    30.33400     0.00000  0.0
    366    344    345    340   5     0.00000    30.33400     0.00000  0.0
    366    344    345    346   5     0.00000    30.33400     0.00000  0.0
    340    345    346    347   5    -2.05016     4.04174     0.74475  0.0
    340    345    346    367   5     0.00000     0.00000     0.00000  0.0
    340    345    346    368   5     0.00000     0.00000     0.00000  0.0
    344    345    346    347   5    -2.05016     4.04174     0.74475  0.0
    344    345    346    367   5     0.00000     0.00000     0.00000  0.0
    344    345    346    368   5     0.00000     0.00000     0.00000  0.0
    345    346    347    348   5    -5.84086    -1.78657     0.00000  0.0
    345    346    347    369   5     0.00000     0.00000     0.00000  0.0
    367    346    347    348   5     0.00000     0.00000     0.00000  0.0
    367    346    347    369   5     0.00000     0.00000     0.00000  0.0
    368    346    347    348   5     0.00000     0.00000     0.00000  0.0
    368    346    347    369   5     0.00000     0.00000     0.00000  0.0
    346    347    348    349   5     0.00000    25.47638     0.00000  0.0
    346    347    348    350   5    12.53945    12.88254     0.00000  0.0
    369    347    348    349   5     0.00000    20.50160     0.00000  0.0
    369    347    348    350   5     0.00000    20.50160     0.00000  0.0
    347    348    350    351   5    11.69428    -0.66526    -1.56900  0.0
    347    348    350    370   5     0.00000     0.00000     0.00000  0.0
    347    348    350    371   5     0.00000     0.00000     0.00000  0.0
    349    348    350    351   5     0.00000     2.52295     0.00000  0.0
    349    348    350    370   5     0.00000     0.00000     0.00000  0.0
    349    348    350    371   5     0.00000     0.00000     0.00000  0.0
    348    350    351    352   5    -8.00818    -1.52298     2.46438  0.0
    348    350    351    372   5     0.00000     0.00000    -0.94140  0.0
    348    350    351    373   5     0.00000     0.00000    -0.94140  0.0
    370    350    351    352   5     0.00000     0.00000     1.25520  0.0
    370    350    351    372   5     0.00000     0.00000     1.25520  0.0
    370    350    351    373   5     0.00000     0.00000     1.25520  0.0
    371    350    351    352   5     0.00000     0.00000     1.25520  0.0
    371    350    351    372   5     0.00000     0.00000     1.25520  0.0
    371    350    351    373   5     0.00000     0.00000     1.25520  0.0
    350    351    352    353   5     4.74884    -0.63178     1.67360  0.0
    350    351    352    374   5     0.00000     0.00000     1.25520  0.0
    350    351    352    375   5     0.00000     0.00000     1.25520  0.0
    372    351    352    353   5     0.00000     0.00000     1.25520  0.0
    372    351    352    374   5     0.00000     0.00000     1.25520  0.0
    372    351    352    375   5     0.00000     0.00000     1.25520  0.0
    373    351    352    353   5     0.00000     0.00000     1.25520  0.0
    373    351    352    374   5     0.00000     0.00000     1.25520  0.0
    373    351    352    375   5     0.00000     0.00000     1.25520  0.0
    351    352    353    354   5     4.74884    -0.63178     1.67360  0.0
    351    352    353    376   5     0.00000     0.00000     1.25520  0.0
    351    352    353    377   5     0.00000     0.00000     1.25520  0.0
    374    352    353    354   5     0.00000     0.00000     1.25520  0.0
    374    352    353    376   5     0.00000     0.00000     1.25520  0.0
    374    352    353    377   5     0.00000     0.00000     1.25520  0.0
    375    352    353    354   5     0.00000     0.00000     1.25520  0.0
    375    352    353    376   5     0.00000     0.00000     1.25520  0.0
    375    352    353    377   5     0.00000     0.00000     1.25520  0.0
    352    353    354    355   5     4.74884    -0.63178     1.67360  0.0
    352    353    354    378   5     0.00000     0.00000     1.25520  0.0
    352    353    354    379   5     0.00000     0.00000     1.25520  0.0
    376    353    354    355   5     0.00000     0.00000     1.25520  0.0
    376    353    354    378   5     0.00000     0.00000     1.25520  0.0
    376    353    354    379   5     0.00000     0.00000     1.25520  0.0
    377    353    354    355   5     0.00000     0.00000     1.25520  0.0
    377    353    354    378   5     0.00000     0.00000     1.25520  0.0
    377    353    354    379   5     0.00000     0.00000     1.25520  0.0
    353    354    355    356   5     4.74884    -0.63178     1.67360  0.0
    353    354    355    380   5     0.00000     0.00000     1.25520  0.0
    353    354    355    381   5     0.00000     0.00000     1.25520  0.0
    378    354    355    356   5     0.00000     0.00000     1.25520  0.0
    378    354    355    380   5     0.00000     0.00000     1.25520  0.0
    378    354    355    381   5     0.00000     0.00000     1.25520  0.0
    379    354    355    356   5     0.00000     0.00000     1.25520  0.0
    379    354    355    380   5     0.00000     0.00000     1.25520  0.0
    379    354    355    381   5     0.00000     0.00000     1.25520  0.0
    354    355    356    357   5     4.74884    -0.63178     1.67360  0.0
    354    355    356    382   5     0.00000     0.00000     1.25520  0.0
    354    355    356    383   5     0.00000     0.00000     1.25520  0.0
    380    355    356    357   5     0.00000     0.00000     1.25520  0.0
    380    355    356    382   5     0.00000     0.00000     1.25520  0.0
    380    355    356    383   5     0.00000     0.00000     1.25520  0.0
    381    355    356    357   5     0.00000     0.00000     1.25520  0.0
    381    355    356    382   5     0.00000     0.00000     1.25520  0.0
    381    355    356    383   5     0.00000     0.00000     1.25520  0.0
    355    356    357    358   5    -8.00818    -1.52298     2.46438  0.0
    355    356    357    384   5     0.00000     0.00000     1.25520  0.0
    355    356    357    385   5     0.00000     0.00000     1.25520  0.0
    382    356    357    358   5     0.00000     0.00000    -0.94140  0.0
    382    356    357    384   5     0.00000     0.00000     1.25520  0.0
    382    356    357    385   5     0.00000     0.00000     1.25520  0.0
    383    356    357    358   5     0.00000     0.00000    -0.94140  0.0
    383    356    357    384   5     0.00000     0.00000     1.25520  0.0
    383    356    357    385   5     0.00000     0.00000     1.25520  0.0
    356    357    358    359   5     0.00000     2.52295     0.00000  0.0
    356    357    358    386   5    11.69428    -0.66526    -1.56900  0.0
    384    357    358    359   5     0.00000     0.00000     0.00000  0.0
    384    357    358    386   5     0.00000     0.00000     0.00000  0.0
    385    357    358    359   5     0.00000     0.00000     0.00000  0.0
    385    357    358    386   5     0.00000     0.00000     0.00000  0.0
    357    358    386    387   5    12.53945    12.88254     0.00000  0.0
    357    358    386    408   5     0.00000    20.50160     0.00000  0.0
    359    358    386    387   5     0.00000    25.47638     0.00000  0.0
    359    358    386    408   5     0.00000    20.50160     0.00000  0.0
    358    386    387    388   5    -5.84086    -1.78657     0.00000  0.0
    358    386    387    409   5     0.00000     0.00000     0.00000  0.0
    358    386    387    410   5     0.00000     0.00000     0.00000  0.0
    408    386    387    388   5     0.00000     0.00000     0.00000  0.0
    408    386    387    409   5     0.00000     0.00000     0.00000  0.0
    408    386    387    410   5     0.00000     0.00000     0.00000  0.0
    386    387    388    389   5    -2.05016     4.04174     0.74475  0.0
    386    387    388    393   5    -2.05016     4.04174     0.74475  0.0
    409    387    388    389   5     0.00000     0.00000     0.00000  0.0
    409    387    388    393   5     0.00000     0.00000     0.00000  0.0
    410    387    388    389   5     0.00000     0.00000     0.00000  0.0
    410    387    388    393   5     0.00000     0.00000     0.00000  0.0
    387    388    389    390   5     0.00000    30.33400     0.00000  0.0
    387    388    389    411   5     0.00000    30.33400     0.00000  0.0
    393    388    389    390   5     0.00000    30.33400     0.00000  0.0
    393    388    389    411   5     0.00000    30.33400     0.00000  0.0
    387    388    393    392   5     0.00000    30.33400     0.00000  0.0
    387    388    393    394   5     0.00000    30.33400     0.00000  0.0
    389    388    393    392   5     0.00000    30.33400     0.00000  0.0
    389    388    393    394   5     0.00000    30.33400     0.00000  0.0
    388    389    390    391   5     0.00000    30.33400     0.00000  0.0
    388    389    390    412   5     0.00000    30.33400     0.00000  0.0
    411    389    390    391   5     0.00000    30.33400     0.00000  0.0
    411    389    390    412   5     0.00000    30.33400     0.00000  0.0
    389    390    391    392   5     0.00000    30.33400     0.00000  0.0
    389    390    391    413   5     0.00000    30.33400     0.00000  0.0
    412    390    391    392   5     0.00000    30.33400     0.00000  0.0
    412    390    391    413   5     0.00000    30.33400     0.00000  0.0
    390    391    392    393   5     0.00000    30.33400     0.00000  0.0
    390    391    392    414   5     0.00000    30.33400     0.00000  0.0
    413    391    392    393   5     0.00000    30.33400     0.00000  0.0
    413    391    392    414   5     0.00000    30.33400     0.00000  0.0
    391    392    393    388   5     0.00000    30.33400     0.00000  0.0
    391    392    393    394   5     0.00000    30.33400     0.00000  0.0
    414    392    393    388   5     0.00000    30.33400     0.00000  0.0
    414    392    393    394   5     0.00000    30.33400     0.00000  0.0
    388    393    394    395   5    -2.05016     4.04174     0.74475  0.0
    388    393    394    415   5     0.00000     0.00000     0.00000  0.0
    388    393    394    416   5     0.00000     0.00000     0.00000  0.0
    392    393    394    395   5    -2.05016     4.04174     0.74475  0.0
    392    393    394    415   5     0.00000     0.00000     0.00000  0.0
    392    393    394    416   5     0.00000     0.00000     0.00000  0.0
    393    394    395    396   5    -5.84086    -1.78657     0.00000  0.0
    393    394    395    417   5     0.00000     0.00000     0.00000  0.0
    415    394    395    396   5     0.00000     0.00000     0.00000  0.0
    415    394    395    417   5     0.00000     0.00000     0.00000  0.0
    416    394    395    396   5     0.00000     0.00000     0.00000  0.0
    416    394    395    417   5     0.00000     0.00000     0.00000  0.0
    394    395    396    397   5     0.00000    25.47638     0.00000  0.0
    394    395    396    398   5    12.53945    12.88254     0.00000  0.0
    417    395    396    397   5     0.00000    20.50160     0.00000  0.0
    417    395    396    398   5     0.00000    20.50160     0.00000  0.0
    395    396    398    399   5    11.69428    -0.66526    -1.56900  0.0
    395    396    398    418   5     0.00000     0.00000     0.00000  0.0
    395    396    398    419   5     0.00000     0.00000     0.00000  0.0
    397    396    398    399   5     0.00000     2.52295     0.00000  0.0
    397    396    398    418   5     0.00000     0.00000     0.00000  0.0
    397    396    398    419   5     0.00000     0.00000     0.00000  0.0
    396    398    399    400   5    -8.00818    -1.52298     2.46438  0.0
    396    398    399    420   5     0.00000     0.00000    -0.94140  0.0
    396    398    399    421   5     0.00000     0.00000    -0.94140  0.0
    418    398    399    400   5     0.00000     0.00000     1.25520  0.0
    418    398    399    420   5     0.00000     0.00000     1.25520  0.0
    418    398    399    421   5     0.00000     0.00000     1.25520  0.0
    419    398    399    400   5     0.00000     0.00000     1.25520  0.0
    419    398    399    420   5     0.00000     0.00000     1.25520  0.0
    419    398    399    421   5     0.00000     0.00000     1.25520  0.0
    398    399    400    401   5     4.74884    -0.63178     1.67360  0.0
    398    399    400    422   5     0.00000     0.00000     1.25520  0.0
    398    399    400    423   5     0.00000     0.00000     1.25520  0.0
    420    399    400    401   5     0.00000     0.00000     1.25520  0.0
    420    399    400    422   5     0.00000     0.00000     1.25520  0.0
    420    399    400    423   5     0.00000     0.00000     1.25520  0.0
    421    399    400    401   5     0.00000     0.00000     1.25520  0.0
    421    399    400    422   5     0.00000     0.00000     1.25520  0.0
    421    399    400    423   5     0.00000     0.00000     1.25520  0.0
    399    400    401    402   5     4.74884    -0.63178     1.67360  0.0
    399    400    401    424   5     0.00000     0.00000     1.25520  0.0
    399    400    401    425   5     0.00000     0.00000     1.25520  0.0
    422    400    401    402   5     0.00000     0.00000     1.25520  0.0
    422    400    401    424   5     0.00000     0.00000     1.25520  0.0
    422    400    401    425   5     0.00000     0.00000     1.25520  0.0
    423    400    401    402   5     0.00000     0.00000     1.25520  0.0
    423    400    401    424   5     0.00000     0.00000     1.25520  0.0
    423    400    401    425   5     0.00000     0.00000     1.25520  0.0
    400    401    402    403   5     4.74884    -0.63178     1.67360  0.0
    400    401    402    426   5     0.00000     0.00000     1.25520  0.0
    400    401    402    427   5     0.00000     0.00000     1.25520  0.0
    424    401    402    403   5     0.00000     0.00000     1.25520  0.0
    424    401    402    426   5     0.00000     0.00000     1.25520  0.0
    424    401    402    427   5     0.00000     0.00000     1.25520  0.0
    425    401    402    403   5     0.00000     0.00000     1.25520  0.0
    425    401    402    426   5     0.00000     0.00000     1.25520  0.0
    425    401    402    427   5     0.00000     0.00000     1.25520  0.0
    401    402    403    404   5     4.74884    -0.63178     1.67360  0.0
    401    402    403    428   5     0.00000     0.00000     1.25520  0.0
    401    402    403    429   5     0.00000     0.00000     1.25520  0.0
    426    402    403    404   5     0.00000     0.00000     1.25520  0.0
    426    402    403    428   5     0.00000     0.00000     1.25520  0.0
    426    402    403    429   5     0.00000     0.00000     1.25520  0.0
    427    402    403    404   5     0.00000     0.00000     1.25520  0.0
    427    402    403    428   5     0.00000     0.00000     1.25520  0.0
    427    402    403    429   5     0.00000     0.00000     1.25520  0.0
    402    403    404    405   5     4.74884    -0.63178     1.67360  0.0
    402    403    404    430   5     0.00000     0.00000     1.25520  0.0
    402    403    404    431   5     0.00000     0.00000     1.25520  0.0
    428    403    404    405   5     0.00000     0.00000     1.25520  0.0
    428    403    404    430   5     0.00000     0.00000     1.25520  0.0
    428    403    404    431   5     0.00000     0.00000     1.25520  0.0
    429    403    404    405   5     0.00000     0.00000     1.25520  0.0
    429    403    404    430   5     0.00000     0.00000     1.25520  0.0
    429    403    404    431   5     0.00000     0.00000     1.25520  0.0
    403    404    405    406   5    -8.00818    -1.52298     2.46438  0.0
    403    404    405    432   5     0.00000     0.00000     1.25520  0.0
    403    404    405    433   5     0.00000     0.00000     1.25520  0.0
    430    404    405    406   5     0.00000     0.00000    -0.94140  0.0
    430    404    405    432   5     0.00000     0.00000     1.25520  0.0
    430    404    405    433   5     0.00000     0.00000     1.25520  0.0
    431    404    405    406   5     0.00000     0.00000    -0.94140  0.0
    431    404    405    432   5     0.00000     0.00000     1.25520  0.0
    431    404    405    433   5     0.00000     0.00000     1.25520  0.0
    404    405    406    407   5     0.00000     2.52295     0.00000  0.0
    404    405    406    434   5    11.69428    -0.66526    -1.56900  0.0
    432    405    406    407   5     0.00000     0.00000     0.00000  0.0
    432    405    406    434   5     0.00000     0.00000     0.00000  0.0
    433    405    406    407   5     0.00000     0.00000     0.00000  0.0
    433    405    406    434   5     0.00000     0.00000     0.00000  0.0
    405    406    434    435   5    12.53945    12.88254     0.00000  0.0
    405    406    434    456   5     0.00000    20.50160     0.00000  0.0
    407    406    434    435   5     0.00000    25.47638     0.00000  0.0
    407    406    434    456   5     0.00000    20.50160     0.00000  0.0
    406    434    435    436   5    -5.84086    -1.78657     0.00000  0.0
    406    434    435    457   5     0.00000     0.00000     0.00000  0.0
    406    434    435    458   5     0.00000     0.00000     0.00000  0.0
    456    434    435    436   5     0.00000     0.00000     0.00000  0.0
    456    434    435    457   5     0.00000     0.00000     0.00000  0.0
    456    434    435    458   5     0.00000     0.00000     0.00000  0.0
    434    435    436    437   5    -2.05016     4.04174     0.74475  0.0
    434    435    436    441   5    -2.05016     4.04174     0.74475  0.0
    457    435    436    437   5     0.00000     0.00000     0.00000  0.0
    457    435    436    441   5     0.00000     0.00000     0.00000  0.0
    458    435    436    437   5     0.00000     0.00000     0.00000  0.0
    458    435    436    441   5     0.00000     0.00000     0.00000  0.0
    435    436    437    438   5     0.00000    30.33400     0.00000  0.0
    435    436    437    459   5     0.00000    30.33400     0.00000  0.0
    441    436    437    438   5     0.00000    30.33400     0.00000  0.0
    441    436    437    459   5     0.00000    30.33400     0.00000  0.0
    435    436    441    440   5     0.00000    30.33400     0.00000  0.0
    435    436    441    442   5     0.00000    30.33400     0.00000  0.0
    437    436    441    440   5     0.00000    30.33400     0.00000  0.0
    437    436    441    442   5     0.00000    30.33400     0.00000  0.0
    436    437    438    439   5     0.00000    30.33400     0.00000  0.0
    436    437    438    460   5     0.00000    30.33400     0.00000  0.0
    459    437    438    439   5     0.00000    30.33400     0.00000  0.0
    459    437    438    460   5     0.00000    30.33400     0.00000  0.0
    437    438    439    440   5     0.00000    30.33400     0.00000  0.0
    437    438    439    461   5     0.00000    30.33400     0.00000  0.0
    460    438    439    440   5     0.00000    30.33400     0.00000  0.0
    460    438    439    461   5     0.00000    30.33400     0.00000  0.0
    438    439    440    441   5     0.00000    30.33400     0.00000  0.0
    438    439    440    462   5     0.00000    30.33400     0.00000  0.0
    461    439    440    441   5     0.00000    30.33400     0.00000  0.0
    461    439    440    462   5     0.00000    30.33400     0.00000  0.0
    439    440    441    436   5     0.00000    30.33400     0.00000  0.0
    439    440    441    442   5     0.00000    30.33400     0.00000  0.0
    462    440    441    436   5     0.00000    30.33400     0.00000  0.0
    462    440    441    442   5     0.00000    30.33400     0.00000  0.0
    436    441    442    443   5    -2.05016     4.04174     0.74475  0.0
    436    441    442    463   5     0.00000     0.00000     0.00000  0.0
    436    441    442    464   5     0.00000     0.00000     0.00000  0.0
    440    441    442    443   5    -2.05016     4.04174     0.74475  0.0
    440    441    442    463   5     0.00000     0.00000     0.00000  0.0
    440    441    442    464   5     0.00000     0.00000     0.00000  0.0
    441    442    443    444   5    -5.84086    -1.78657     0.00000  0.0
    441    442    443    465   5     0.00000     0.00000     0.00000  0.0
    463    442    443    444   5     0.00000     0.00000     0.00000  0.0
    463    442    443    465   5     0.00000     0.00000     0.00000  0.0
    464    442    443    444   5     0.00000     0.00000     0.00000  0.0
    464    442    443    465   5     0.00000     0.00000     0.00000  0.0
    442    443    444    445   5     0.00000    25.47638     0.00000  0.0
    442    443    444    446   5    12.53945    12.88254     0.00000  0.0
    465    443    444    445   5     0.00000    20.50160     0.00000  0.0
    465    443    444    446   5     0.00000    20.50160     0.00000  0.0
    443    444    446    447   5    11.69428    -0.66526    -1.56900  0.0
    443    444    446    466   5     0.00000     0.00000     0.00000  0.0
    443    444    446    467   5     0.00000     0.00000     0.00000  0.0
    445    444    446    447   5     0.00000     2.52295     0.00000  0.0
    445    444    446    466   5     0.00000     0.00000     0.00000  0.0
    445    444    446    467   5     0.00000     0.00000     0.00000  0.0
    444    446    447    448   5    -8.00818    -1.52298     2.46438  0.0
    444    446    447    468   5     0.00000     0.00000    -0.94140  0.0
    444    446    447    469   5     0.00000     0.00000    -0.94140  0.0
    466    446    447    448   5     0.00000     0.00000     1.25520  0.0
    466    446    447    468   5     0.00000     0.00000     1.25520  0.0
    466    446    447    469   5     0.00000     0.00000     1.25520  0.0
    467    446    447    448   5     0.00000     0.00000     1.25520  0.0
    467    446    447    468   5     0.00000     0.00000     1.25520  0.0
    467    446    447    469   5     0.00000     0.00000     1.25520  0.0
    446    447    448    449   5     4.74884    -0.63178     1.67360  0.0
    446    447    448    470   5     0.00000     0.00000     1.25520  0.0
    446    447    448    471   5     0.00000     0.00000     1.25520  0.0
    468    447    448    449   5     0.00000     0.00000     1.25520  0.0
    468    447    448    470   5     0.00000     0.00000     1.25520  0.0
    468    447    448    471   5     0.00000     0.00000     1.25520  0.0
    469    447    448    449   5     0.00000     0.00000     1.25520  0.0
    469    447    448    470   5     0.00000     0.00000     1.25520  0.0
    469    447    448    471   5     0.00000     0.00000     1.25520  0.0
    447    448    449    450   5     4.74884    -0.63178     1.67360  0.0
    447    448    449    472   5     0.00000     0.00000     1.25520  0.0
    447    448    449    473   5     0.00000     0.00000     1.25520  0.0
    470    448    449    450   5     0.00000     0.00000     1.25520  0.0
    470    448    449    472   5     0.00000     0.00000     1.25520  0.0
    470    448    449    473   5     0.00000     0.00000     1.25520  0.0
    471    448    449    450   5     0.00000     0.00000     1.25520  0.0
    471    448    449    472   5     0.00000     0.00000     1.25520  0.0
    471    448    449    473   5     0.00000     0.00000     1.25520  0.0
    448    449    450    451   5     4.74884    -0.63178     1.67360  0.0
    448    449    450    474   5     0.00000     0.00000     1.25520  0.0
    448    449    450    475   5     0.00000     0.00000     1.25520  0.0
    472    449    450    451   5     0.00000     0.00000     1.25520  0.0
    472    449    450    474   5     0.00000     0.00000     1.25520  0.0
    472    449    450    475   5     0.00000     0.00000     1.25520  0.0
    473    449    450    451   5     0.00000     0.00000     1.25520  0.0
    473    449    450    474   5     0.00000     0.00000     1.25520  0.0
    473    449    450    475   5     0.00000     0.00000     1.25520  0.0
    449    450    451    452   5     4.74884    -0.63178     1.67360  0.0
    449    450    451    476   5     0.00000     0.00000     1.25520  0.0
    449    450    451    477   5     0.00000     0.00000     1.25520  0.0
    474    450    451    452   5     0.00000     0.00000     1.25520  0.0
    474    450    451    476   5     0.00000     0.00000     1.25520  0.0
    474    450    451    477   5     0.00000     0.00000     1.25520  0.0
    475    450    451    452   5     0.00000     0.00000     1.25520  0.0
    475    450    451    476   5     0.00000     0.00000     1.25520  0.0
    475    450    451    477   5     0.00000     0.00000     1.25520  0.0
    450    451    452    453   5     4.74884    -0.63178     1.67360  0.0
    450    451    452    478   5     0.00000     0.00000     1.25520  0.0
    450    451    452    479   5     0.00000     0.00000     1.25520  0.0
    476    451    452    453   5     0.00000     0.00000     1.25520  0.0
    476    451    452    478   5     0.00000     0.00000     1.25520  0.0
    476    451    452    479   5     0.00000     0.00000     1.25520  0.0
    477    451    452    453   5     0.00000     0.00000     1.25520  0.0
    477    451    452    478   5     0.00000     0.00000     1.25520  0.0
    477    451    452    479   5     0.00000     0.00000     1.25520  0.0
    451    452    453    454   5    -8.00818    -1.52298     2.46438  0.0
    451    452    453    480   5     0.00000     0.00000     1.25520  0.0
    451    452    453    481   5     0.00000     0.00000     1.25520  0.0
    478    452    453    454   5     0.00000     0.00000    -0.94140  0.0
    478    452    453    480   5     0.00000     0.00000     1.25520  0.0
    478    452    453    481   5     0.00000     0.00000     1.25520  0.0
    479    452    453    454   5     0.00000     0.00000    -0.94140  0.0
    479    452    453    480   5     0.00000     0.00000     1.25520  0.0
    479    452    453    481   5     0.00000     0.00000     1.25520  0.0
    452    453    454    455   5     0.00000     2.52295     0.00000  0.0
    452    453    454    482   5    11.69428    -0.66526    -1.56900  0.0
    480    453    454    455   5     0.00000     0.00000     0.00000  0.0
    480    453    454    482   5     0.00000     0.00000     0.00000  0.0
    481    453    454    455   5     0.00000     0.00000     0.00000  0.0
    481    453    454    482   5     0.00000     0.00000     0.00000  0.0
    453    454    482    483   5    12.53945    12.88254     0.00000  0.0
    453    454    482    504   5     0.00000    20.50160     0.00000  0.0
    455    454    482    483   5     0.00000    25.47638     0.00000  0.0
    455    454    482    504   5     0.00000    20.50160     0.00000  0.0
    454    482    483    484   5    -5.84086    -1.78657     0.00000  0.0
    454    482    483    505   5     0.00000     0.00000     0.00000  0.0
    454    482    483    506   5     0.00000     0.00000     0.00000  0.0
    504    482    483    484   5     0.00000     0.00000     0.00000  0.0
    504    482    483    505   5     0.00000     0.00000     0.00000  0.0
    504    482    483    506   5     0.00000     0.00000     0.00000  0.0
    482    483    484    485   5    -2.05016     4.04174     0.74475  0.0
    482    483    484    489   5    -2.05016     4.04174     0.74475  0.0
    505    483    484    485   5     0.00000     0.00000     0.00000  0.0
    505    483    484    489   5     0.00000     0.00000     0.00000  0.0
    506    483    484    485   5     0.00000     0.00000     0.00000  0.0
    506    483    484    489   5     0.00000     0.00000     0.00000  0.0
    483    484    485    486   5     0.00000    30.33400     0.00000  0.0
    483    484    485    507   5     0.00000    30.33400     0.00000  0.0
    489    484    485    486   5     0.00000    30.33400     0.00000  0.0
    489    484    485    507   5     0.00000    30.33400     0.00000  0.0
    483    484    489    488   5     0.00000    30.33400     0.00000  0.0
    483    484    489    490   5     0.00000    30.33400     0.00000  0.0
    485    484    489    488   5     0.00000    30.33400     0.00000  0.0
    485    484    489    490   5     0.00000    30.33400     0.00000  0.0
    484    485    486    487   5     0.00000    30.33400     0.00000  0.0
    484    485    486    508   5     0.00000    30.33400     0.00000  0.0
    507    485    486    487   5     0.00000    30.33400     0.00000  0.0
    507    485    486    508   5     0.00000    30.33400     0.00000  0.0
    485    486    487    488   5     0.00000    30.33400     0.00000  0.0
    485    486    487    509   5     0.00000    30.33400     0.00000  0.0
    508    486    487    488   5     0.00000    30.33400     0.00000  0.0
    508    486    487    509   5     0.00000    30.33400     0.00000  0.0
    486    487    488    489   5     0.00000    30.33400     0.00000  0.0
    486    487    488    510   5     0.00000    30.33400     0.00000  0.0
    509    487    488    489   5     0.00000    30.33400     0.00000  0.0
    509    487    488    510   5     0.00000    30.33400     0.00000  0.0
    487    488    489    484   5     0.00000    30.33400     0.00000  0.0
    487    488    489    490   5     0.00000    30.33400     0.00000  0.0
    510    488    489    484   5     0.00000    30.33400     0.00000  0.0
    510    488    489    490   5     0.00000    30.33400     0.00000  0.0
    484    489    490    491   5    -2.05016     4.04174     0.74475  0.0
    484    489    490    511   5     0.00000     0.00000     0.00000  0.0
    484    489    490    512   5     0.00000     0.00000     0.00000  0.0
    488    489    490    491   5    -2.05016     4.04174     0.74475  0.0
    488    489    490    511   5     0.00000     0.00000     0.00000  0.0
    488    489    490    512   5     0.00000     0.00000     0.00000  0.0
    489    490    491    492   5    -5.84086    -1.78657     0.00000  0.0
    489    490    491    513   5     0.00000     0.00000     0.00000  0.0
    511    490    491    492   5     0.00000     0.00000     0.00000  0.0
    511    490    491    513   5     0.00000     0.00000     0.00000  0.0
    512    490    491    492   5     0.00000     0.00000     0.00000  0.0
    512    490    491    513   5     0.00000     0.00000     0.00000  0.0
    490    491    492    493   5     0.00000    25.47638     0.00000  0.0
    490    491    492    494   5    12.53945    12.88254     0.00000  0.0
    513    491    492    493   5     0.00000    20.50160     0.00000  0.0
    513    491    492    494   5     0.00000    20.50160     0.00000  0.0
    491    492    494    495   5    11.69428    -0.66526    -1.56900  0.0
    491    492    494    514   5     0.00000     0.00000     0.00000  0.0
    491    492    494    515   5     0.00000     0.00000     0.00000  0.0
    493    492    494    495   5     0.00000     2.52295     0.00000  0.0
    493    492    494    514   5     0.00000     0.00000     0.00000  0.0
    493    492    494    515   5     0.00000     0.00000     0.00000  0.0
    492    494    495    496   5    -8.00818    -1.52298     2.46438  0.0
    492    494    495    516   5     0.00000     0.00000    -0.94140  0.0
    492    494    495    517   5     0.00000     0.00000    -0.94140  0.0
    514    494    495    496   5     0.00000     0.00000     1.25520  0.0
    514    494    495    516   5     0.00000     0.00000     1.25520  0.0
    514    494    495    517   5     0.00000     0.00000     1.25520  0.0
    515    494    495    496   5     0.00000     0.00000     1.25520  0.0
    515    494    495    516   5     0.00000     0.00000     1.25520  0.0
    515    494    495    517   5     0.00000     0.00000     1.25520  0.0
    494    495    496    497   5     4.74884    -0.63178     1.67360  0.0
    494    495    496    518   5     0.00000     0.00000     1.25520  0.0
    494    495    496    519   5     0.00000     0.00000     1.25520  0.0
    516    495    496    497   5     0.00000     0.00000     1.25520  0.0
    516    495    496    518   5     0.00000     0.00000     1.25520  0.0
    516    495    496    519   5     0.00000     0.00000     1.25520  0.0
    517    495    496    497   5     0.00000     0.00000     1.25520  0.0
    517    495    496    518   5     0.00000     0.00000     1.25520  0.0
    517    495    496    519   5     0.00000     0.00000     1.25520  0.0
    495    496    497    498   5     4.74884    -0.63178     1.67360  0.0
    495    496    497    520   5     0.00000     0.00000     1.25520  0.0
    495    496    497    521   5     0.00000     0.00000     1.25520  0.0
    518    496    497    498   5     0.00000     0.00000     1.25520  0.0
    518    496    497    520   5     0.00000     0.00000     1.25520  0.0
    518    496    497    521   5     0.00000     0.00000     1.25520  0.0
    519    496    497    498   5     0.00000     0.00000     1.25520  0.0
    519    496    497    520   5     0.00000     0.00000     1.25520  0.0
    519    496    497    521   5     0.00000     0.00000     1.25520  0.0
    496    497    498    499   5     4.74884    -0.63178     1.67360  0.0
    496    497    498    522   5     0.00000     0.00000     1.25520  0.0
    496    497    498    523   5     0.00000     0.00000     1.25520  0.0
    520    497    498    499   5     0.00000     0.00000     1.25520  0.0
    520    497    498    522   5     0.00000     0.00000     1.25520  0.0
    520    497    498    523   5     0.00000     0.00000     1.25520  0.0
    521    497    498    499   5     0.00000     0.00000     1.25520  0.0
    521    497    498    522   5     0.00000     0.00000     1.25520  0.0
    521    497    498    523   5     0.00000     0.00000     1.25520  0.0
    497    498    499    500   5     4.74884    -0.63178     1.67360  0.0
    497    498    499    524   5     0.00000     0.00000     1.25520  0.0
    497    498    499    525   5     0.00000     0.00000     1.25520  0.0
    522    498    499    500   5     0.00000     0.00000     1.25520  0.0
    522    498    499    524   5     0.00000     0.00000     1.25520  0.0
    522    498    499    525   5     0.00000     0.00000     1.25520  0.0
    523    498    499    500   5     0.00000     0.00000     1.25520  0.0
    523    498    499    524   5     0.00000     0.00000     1.25520  0.0
    523    498    499    525   5     0.00000     0.00000     1.25520  0.0
    498    499    500    501   5     4.74884    -0.63178     1.67360  0.0
    498    499    500    526   5     0.00000     0.00000     1.25520  0.0
    498    499    500    527   5     0.00000     0.00000     1.25520  0.0
    524    499    500    501   5     0.00000     0.00000     1.25520  0.0
    524    499    500    526   5     0.00000     0.00000     1.25520  0.0
    524    499    500    527   5     0.00000     0.00000     1.25520  0.0
    525    499    500    501   5     0.00000     0.00000     1.25520  0.0
    525    499    500    526   5     0.00000     0.00000     1.25520  0.0
    525    499    500    527   5     0.00000     0.00000     1.25520  0.0
    499    500    501    502   5    -8.00818    -1.52298     2.46438  0.0
    499    500    501    528   5     0.00000     0.00000     1.25520  0.0
    499    500    501    529   5     0.00000     0.00000     1.25520  0.0
    526    500    501    502   5     0.00000     0.00000    -0.94140  0.0
    526    500    501    528   5     0.00000     0.00000     1.25520  0.0
    526    500    501    529   5     0.00000     0.00000     1.25520  0.0
    527    500    501    502   5     0.00000     0.00000    -0.94140  0.0
    527    500    501    528   5     0.00000     0.00000     1.25520  0.0
    527    500    501    529   5     0.00000     0.00000     1.25520  0.0
    500    501    502    503   5     0.00000     2.52295     0.00000  0.0
    500    501    502    530   5    11.69428    -0.66526    -1.56900  0.0
    528    501    502    503   5     0.00000     0.00000     0.00000  0.0
    528    501    502    530   5     0.00000     0.00000     0.00000  0.0
    529    501    502    503   5     0.00000     0.00000     0.00000  0.0
    529    501    502    530   5     0.00000     0.00000     0.00000  0.0
    501    502    530    531   5    12.53945    12.88254     0.00000  0.0
    501    502    530    552   5     0.00000    20.50160     0.00000  0.0
    503    502    530    531   5     0.00000    25.47638     0.00000  0.0
    503    502    530    552   5     0.00000    20.50160     0.00000  0.0
    502    530    531    532   5    -5.84086    -1.78657     0.00000  0.0
    502    530    531    553   5     0.00000     0.00000     0.00000  0.0
    502    530    531    554   5     0.00000     0.00000     0.00000  0.0
    552    530    531    532   5     0.00000     0.00000     0.00000  0.0
    552    530    531    553   5     0.00000     0.00000     0.00000  0.0
    552    530    531    554   5     0.00000     0.00000     0.00000  0.0
    530    531    532    533   5    -2.05016     4.04174     0.74475  0.0
    530    531    532    537   5    -2.05016     4.04174     0.74475  0.0
    553    531    532    533   5     0.00000     0.00000     0.00000  0.0
    553    531    532    537   5     0.00000     0.00000     0.00000  0.0
    554    531    532    533   5     0.00000     0.00000     0.00000  0.0
    554    531    532    537   5     0.00000     0.00000     0.00000  0.0
    531    532    533    534   5     0.00000    30.33400     0.00000  0.0
    531    532    533    555   5     0.00000    30.33400     0.00000  0.0
    537    532    533    534   5     0.00000    30.33400     0.00000  0.0
    537    532    533    555   5     0.00000    30.33400     0.00000  0.0
    531    532    537    536   5     0.00000    30.33400     0.00000  0.0
    531    532    537    538   5     0.00000    30.33400     0.00000  0.0
    533    532    537    536   5     0.00000    30.33400     0.00000  0.0
    533    532    537    538   5     0.00000    30.33400     0.00000  0.0
    532    533    534    535   5     0.00000    30.33400     0.00000  0.0
    532    533    534    556   5     0.00000    30.33400     0.00000  0.0
    555    533    534    535   5     0.00000    30.33400     0.00000  0.0
    555    533    534    556   5     0.00000    30.33400     0.00000  0.0
    533    534    535    536   5     0.00000    30.33400     0.00000  0.0
    533    534    535    557   5     0.00000    30.33400     0.00000  0.0
    556    534    535    536   5     0.00000    30.33400     0.00000  0.0
    556    534    535    557   5     0.00000    30.33400     0.00000  0.0
    534    535    536    537   5     0.00000    30.33400     0.00000  0.0
    534    535    536    558   5     0.00000    30.33400     0.00000  0.0
    557    535    536    537   5     0.00000    30.33400     0.00000  0.0
    557    535    536    558   5     0.00000    30.33400     0.00000  0.0
    535    536    537    532   5     0.00000    30.33400     0.00000  0.0
    535    536    537    538   5     0.00000    30.33400     0.00000  0.0
    558    536    537    532   5     0.00000    30.33400     0.00000  0.0
    558    536    537    538   5     0.00000    30.33400     0.00000  0.0
    532    537    538    539   5    -2.05016     4.04174     0.74475  0.0
    532    537    538    559   5     0.00000     0.00000     0.00000  0.0
    532    537    538    560   5     0.00000     0.00000     0.00000  0.0
    536    537    538    539   5    -2.05016     4.04174     0.74475  0.0
    536    537    538    559   5     0.00000     0.00000     0.00000  0.0
    536    537    538    560   5     0.00000     0.00000     0.00000  0.0
    537    538    539    540   5    -5.84086    -1.78657     0.00000  0.0
    537    538    539    561   5     0.00000     0.00000     0.00000  0.0
    559    538    539    540   5     0.00000     0.00000     0.00000  0.0
    559    538    539    561   5     0.00000     0.00000     0.00000  0.0
    560    538    539    540   5     0.00000     0.00000     0.00000  0.0
    560    538    539    561   5     0.00000     0.00000     0.00000  0.0
    538    539    540    541   5     0.00000    25.47638     0.00000  0.0
    538    539    540    542   5    12.53945    12.88254     0.00000  0.0
    561    539    540    541   5     0.00000    20.50160     0.00000  0.0
    561    539    540    542   5     0.00000    20.50160     0.00000  0.0
    539    540    542    543   5    11.69428    -0.66526    -1.56900  0.0
    539    540    542    562   5     0.00000     0.00000     0.00000  0.0
    539    540    542    563   5     0.00000     0.00000     0.00000  0.0
    541    540    542    543   5     0.00000     2.52295     0.00000  0.0
    541    540    542    562   5     0.00000     0.00000     0.00000  0.0
    541    540    542    563   5     0.00000     0.00000     0.00000  0.0
    540    542    543    544   5    -8.00818    -1.52298     2.46438  0.0
    540    542    543    564   5     0.00000     0.00000    -0.94140  0.0
    540    542    543    565   5     0.00000     0.00000    -0.94140  0.0
    562    542    543    544   5     0.00000     0.00000     1.25520  0.0
    562    542    543    564   5     0.00000     0.00000     1.25520  0.0
    562    542    543    565   5     0.00000     0.00000     1.25520  0.0
    563    542    543    544   5     0.00000     0.00000     1.25520  0.0
    563    542    543    564   5     0.00000     0.00000     1.25520  0.0
    563    542    543    565   5     0.00000     0.00000     1.25520  0.0
    542    543    544    545   5     4.74884    -0.63178     1.67360  0.0
    542    543    544    566   5     0.00000     0.00000     1.25520  0.0
    542    543    544    567   5     0.00000     0.00000     1.25520  0.0
    564    543    544    545   5     0.00000     0.00000     1.25520  0.0
    564    543    544    566   5     0.00000     0.00000     1.25520  0.0
    564    543    544    567   5     0.00000     0.00000     1.25520  0.0
    565    543    544    545   5     0.00000     0.00000     1.25520  0.0
    565    543    544    566   5     0.00000     0.00000     1.25520  0.0
    565    543    544    567   5     0.00000     0.00000     1.25520  0.0
    543    544    545    546   5     4.74884    -0.63178     1.67360  0.0
    543    544    545    568   5     0.00000     0.00000     1.25520  0.0
    543    544    545    569   5     0.00000     0.00000     1.25520  0.0
    566    544    545    546   5     0.00000     0.00000     1.25520  0.0
    566    544    545    568   5     0.00000     0.00000     1.25520  0.0
    566    544    545    569   5     0.00000     0.00000     1.25520  0.0
    567    544    545    546   5     0.00000     0.00000     1.25520  0.0
    567    544    545    568   5     0.00000     0.00000     1.25520  0.0
    567    544    545    569   5     0.00000     0.00000     1.25520  0.0
    544    545    546    547   5     4.74884    -0.63178     1.67360  0.0
    544    545    546    570   5     0.00000     0.00000     1.25520  0.0
    544    545    546    571   5     0.00000     0.00000     1.25520  0.0
    568    545    546    547   5     0.00000     0.00000     1.25520  0.0
    568    545    546    570   5     0.00000     0.00000     1.25520  0.0
    568    545    546    571   5     0.00000     0.00000     1.25520  0.0
    569    545    546    547   5     0.00000     0.00000     1.25520  0.0
    569    545    546    570   5     0.00000     0.00000     1.25520  0.0
    569    545    546    571   5     0.00000     0.00000     1.25520  0.0
    545    546    547    548   5     4.74884    -0.63178     1.67360  0.0
    545    546    547    572   5     0.00000     0.00000     1.25520  0.0
    545    546    547    573   5     0.00000     0.00000     1.25520  0.0
    570    546    547    548   5     0.00000     0.00000     1.25520  0.0
    570    546    547    572   5     0.00000     0.00000     1.25520  0.0
    570    546    547    573   5     0.00000     0.00000     1.25520  0.0
    571    546    547    548   5     0.00000     0.00000     1.25520  0.0
    571    546    547    572   5     0.00000     0.00000     1.25520  0.0
    571    546    547    573   5     0.00000     0.00000     1.25520  0.0
    546    547    548    549   5     4.74884    -0.63178     1.67360  0.0
    546    547    548    574   5     0.00000     0.00000     1.25520  0.0
    546    547    548    575   5     0.00000     0.00000     1.25520  0.0
    572    547    548    549   5     0.00000     0.00000     1.25520  0.0
    572    547    548    574   5     0.00000     0.00000     1.25520  0.0
    572    547    548    575   5     0.00000     0.00000     1.25520  0.0
    573    547    548    549   5     0.00000     0.00000     1.25520  0.0
    573    547    548    574   5     0.00000     0.00000     1.25520  0.0
    573    547    548    575   5     0.00000     0.00000     1.25520  0.0
    547    548    549    550   5    -8.00818    -1.52298     2.46438  0.0
    547    548    549    576   5     0.00000     0.00000     1.25520  0.0
    547    548    549    577   5     0.00000     0.00000     1.25520  0.0
    574    548    549    550   5     0.00000     0.00000    -0.94140  0.0
    574    548    549    576   5     0.00000     0.00000     1.25520  0.0
    574    548    549    577   5     0.00000     0.00000     1.25520  0.0
    575    548    549    550   5     0.00000     0.00000    -0.94140  0.0
    575    548    549    576   5     0.00000     0.00000     1.25520  0.0
    575    548    549    577   5     0.00000     0.00000     1.25520  0.0
    548    549    550    551   5     0.00000     2.52295     0.00000  0.0
    548    549    550    578   5    11.69428    -0.66526    -1.56900  0.0
    576    549    550    551   5     0.00000     0.00000     0.00000  0.0
    576    549    550    578   5     0.00000     0.00000     0.00000  0.0
    577    549    550    551   5     0.00000     0.00000     0.00000  0.0
    577    549    550    578   5     0.00000     0.00000     0.00000  0.0
    549    550    578    579   5    12.53945    12.88254     0.00000  0.0
    549    550    578    600   5     0.00000    20.50160     0.00000  0.0
    551    550    578    579   5     0.00000    25.47638     0.00000  0.0
    551    550    578    600   5     0.00000    20.50160     0.00000  0.0
    550    578    579    580   5    -5.84086    -1.78657     0.00000  0.0
    550    578    579    601   5     0.00000     0.00000     0.00000  0.0
    550    578    579    602   5     0.00000     0.00000     0.00000  0.0
    600    578    579    580   5     0.00000     0.00000     0.00000  0.0
    600    578    579    601   5     0.00000     0.00000     0.00000  0.0
    600    578    579    602   5     0.00000     0.00000     0.00000  0.0
    578    579    580    581   5    -2.05016     4.04174     0.74475  0.0
    578    579    580    585   5    -2.05016     4.04174     0.74475  0.0
    601    579    580    581   5     0.00000     0.00000     0.00000  0.0
    601    579    580    585   5     0.00000     0.00000     0.00000  0.0
    602    579    580    581   5     0.00000     0.00000     0.00000  0.0
    602    579    580    585   5     0.00000     0.00000     0.00000  0.0
    579    580    581    582   5     0.00000    30.33400     0.00000  0.0
    579    580    581    603   5     0.00000    30.33400     0.00000  0.0
    585    580    581    582   5     0.00000    30.33400     0.00000  0.0
    585    580    581    603   5     0.00000    30.33400     0.00000  0.0
    579    580    585    584   5     0.00000    30.33400     0.00000  0.0
    579    580    585    586   5     0.00000    30.33400     0.00000  0.0
    581    580    585    584   5     0.00000    30.33400     0.00000  0.0
    581    580    585    586   5     0.00000    30.33400     0.00000  0.0
    580    581    582    583   5     0.00000    30.33400     0.00000  0.0
    580    581    582    604   5     0.00000    30.33400     0.00000  0.0
    603    581    582    583   5     0.00000    30.33400     0.00000  0.0
    603    581    582    604   5     0.00000    30.33400     0.00000  0.0
    581    582    583    584   5     0.00000    30.33400     0.00000  0.0
    581    582    583    605   5     0.00000    30.33400     0.00000  0.0
    604    582    583    584   5     0.00000    30.33400     0.00000  0.0
    604    582    583    605   5     0.00000    30.33400     0.00000  0.0
    582    583    584    585   5     0.00000    30.33400     0.00000  0.0
    582    583    584    606   5     0.00000    30.33400     0.00000  0.0
    605    583    584    585   5     0.00000    30.33400     0.00000  0.0
    605    583    584    606   5     0.00000    30.33400     0.00000  0.0
    583    584    585    580   5     0.00000    30.33400     0.00000  0.0
    583    584    585    586   5     0.00000    30.33400     0.00000  0.0
    606    584    585    580   5     0.00000    30.33400     0.00000  0.0
    606    584    585    586   5     0.00000    30.33400     0.00000  0.0
    580    585    586    587   5    -2.05016     4.04174     0.74475  0.0
    580    585    586    607   5     0.00000     0.00000     0.00000  0.0
    580    585    586    608   5     0.00000     0.00000     0.00000  0.0
    584    585    586    587   5    -2.05016     4.04174     0.74475  0.0
    584    585    586    607   5     0.00000     0.00000     0.00000  0.0
    584    585    586    608   5     0.00000     0.00000     0.00000  0.0
    585    586    587    588   5    -5.84086    -1.78657     0.00000  0.0
    585    586    587    609   5     0.00000     0.00000     0.00000  0.0
    607    586    587    588   5     0.00000     0.00000     0.00000  0.0
    607    586    587    609   5     0.00000     0.00000     0.00000  0.0
    608    586    587    588   5     0.00000     0.00000     0.00000  0.0
    608    586    587    609   5     0.00000     0.00000     0.00000  0.0
    586    587    588    589   5     0.00000    25.47638     0.00000  0.0
    586    587    588    590   5    12.53945    12.88254     0.00000  0.0
    609    587    588    589   5     0.00000    20.50160     0.00000  0.0
    609    587    588    590   5     0.00000    20.50160     0.00000  0.0
    587    588    590    591   5    11.69428    -0.66526    -1.56900  0.0
    587    588    590    610   5     0.00000     0.00000     0.00000  0.0
    587    588    590    611   5     0.00000     0.00000     0.00000  0.0
    589    588    590    591   5     0.00000     2.52295     0.00000  0.0
    589    588    590    610   5     0.00000     0.00000     0.00000  0.0
    589    588    590    611   5     0.00000     0.00000     0.00000  0.0
    588    590    591    592   5    -8.00818    -1.52298     2.46438  0.0
    588    590    591    612   5     0.00000     0.00000    -0.94140  0.0
    588    590    591    613   5     0.00000     0.00000    -0.94140  0.0
    610    590    591    592   5     0.00000     0.00000     1.25520  0.0
    610    590    591    612   5     0.00000     0.00000     1.25520  0.0
    610    590    591    613   5     0.00000     0.00000     1.25520  0.0
    611    590    591    592   5     0.00000     0.00000     1.25520  0.0
    611    590    591    612   5     0.00000     0.00000     1.25520  0.0
    611    590    591    613   5     0.00000     0.00000     1.25520  0.0
    590    591    592    593   5     4.74884    -0.63178     1.67360  0.0
    590    591    592    614   5     0.00000     0.00000     1.25520  0.0
    590    591    592    615   5     0.00000     0.00000     1.25520  0.0
    612    591    592    593   5     0.00000     0.00000     1.25520  0.0
    612    591    592    614   5     0.00000     0.00000     1.25520  0.0
    612    591    592    615   5     0.00000     0.00000     1.25520  0.0
    613    591    592    593   5     0.00000     0.00000     1.25520  0.0
    613    591    592    614   5     0.00000     0.00000     1.25520  0.0
    613    591    592    615   5     0.00000     0.00000     1.25520  0.0
    591    592    593    594   5     4.74884    -0.63178     1.67360  0.0
    591    592    593    616   5     0.00000     0.00000     1.25520  0.0
    591    592    593    617   5     0.00000     0.00000     1.25520  0.0
    614    592    593    594   5     0.00000     0.00000     1.25520  0.0
    614    592    593    616   5     0.00000     0.00000     1.25520  0.0
    614    592    593    617   5     0.00000     0.00000     1.25520  0.0
    615    592    593    594   5     0.00000     0.00000     1.25520  0.0
    615    592    593    616   5     0.00000     0.00000     1.25520  0.0
    615    592    593    617   5     0.00000     0.00000     1.25520  0.0
    592    593    594    595   5     4.74884    -0.63178     1.67360  0.0
    592    593    594    618   5     0.00000     0.00000     1.25520  0.0
    592    593    594    619   5     0.00000     0.00000     1.25520  0.0
    616    593    594    595   5     0.00000     0.00000     1.25520  0.0
    616    593    594    618   5     0.00000     0.00000     1.25520  0.0
    616    593    594    619   5     0.00000     0.00000     1.25520  0.0
    617    593    594    595   5     0.00000     0.00000     1.25520  0.0
    617    593    594    618   5     0.00000     0.00000     1.25520  0.0
    617    593    594    619   5     0.00000     0.00000     1.25520  0.0
    593    594    595    596   5     4.74884    -0.63178     1.67360  0.0
    593    594    595    620   5     0.00000     0.00000     1.25520  0.0
    593    594    595    621   5     0.00000     0.00000     1.25520  0.0
    618    594    595    596   5     0.00000     0.00000     1.25520  0.0
    618    594    595    620   5     0.00000     0.00000     1.25520  0.0
    618    594    595    621   5     0.00000     0.00000     1.25520  0.0
    619    594    595    596   5     0.00000     0.00000     1.25520  0.0
    619    594    595    620   5     0.00000     0.00000     1.25520  0.0
    619    594    595    621   5     0.00000     0.00000     1.25520  0.0
    594    595    596    597   5     4.74884    -0.63178     1.67360  0.0
    594    595    596    622   5     0.00000     0.00000     1.25520  0.0
    594    595    596    623   5     0.00000     0.00000     1.25520  0.0
    620    595    596    597   5     0.00000     0.00000     1.25520  0.0
    620    595    596    622   5     0.00000     0.00000     1.25520  0.0
    620    595    596    623   5     0.00000     0.00000     1.25520  0.0
    621    595    596    597   5     0.00000     0.00000     1.25520  0.0
    621    595    596    622   5     0.00000     0.00000     1.25520  0.0
    621    595    596    623   5     0.00000     0.00000     1.25520  0.0
    595    596    597    598   5    -8.00818    -1.52298     2.46438  0.0
    595    596    597    624   5     0.00000     0.00000     1.25520  0.0
    595    596    597    625   5     0.00000     0.00000     1.25520  0.0
    622    596    597    598   5     0.00000     0.00000    -0.94140  0.0
    622    596    597    624   5     0.00000     0.00000     1.25520  0.0
    622    596    597    625   5     0.00000     0.00000     1.25520  0.0
    623    596    597    598   5     0.00000     0.00000    -0.94140  0.0
    623    596    597    624   5     0.00000     0.00000     1.25520  0.0
    623    596    597    625   5     0.00000     0.00000     1.25520  0.0
    596    597    598    599   5     0.00000     2.52295     0.00000  0.0
    596    597    598    626   5    11.69428    -0.66526    -1.56900  0.0
    624    597    598    599   5     0.00000     0.00000     0.00000  0.0
    624    597    598    626   5     0.00000     0.00000     0.00000  0.0
    625    597    598    599   5     0.00000     0.00000     0.00000  0.0
    625    597    598    626   5     0.00000     0.00000     0.00000  0.0
    597    598    626    627   5    12.53945    12.88254     0.00000  0.0
    597    598    626    648   5     0.00000    20.50160     0.00000  0.0
    599    598    626    627   5     0.00000    25.47638     0.00000  0.0
    599    598    626    648   5     0.00000    20.50160     0.00000  0.0
    598    626    627    628   5    -5.84086    -1.78657     0.00000  0.0
    598    626    627    649   5     0.00000     0.00000     0.00000  0.0
    598    626    627    650   5     0.00000     0.00000     0.00000  0.0
    648    626    627    628   5     0.00000     0.00000     0.00000  0.0
    648    626    627    649   5     0.00000     0.00000     0.00000  0.0
    648    626    627    650   5     0.00000     0.00000     0.00000  0.0
    626    627    628    629   5    -2.05016     4.04174     0.74475  0.0
    626    627    628    633   5    -2.05016     4.04174     0.74475  0.0
    649    627    628    629   5     0.00000     0.00000     0.00000  0.0
    649    627    628    633   5     0.00000     0.00000     0.00000  0.0
    650    627    628    629   5     0.00000     0.00000     0.00000  0.0
    650    627    628    633   5     0.00000     0.00000     0.00000  0.0
    627    628    629    630   5     0.00000    30.33400     0.00000  0.0
    627    628    629    651   5     0.00000    30.33400     0.00000  0.0
    633    628    629    630   5     0.00000    30.33400     0.00000  0.0
    633    628    629    651   5     0.00000    30.33400     0.00000  0.0
    627    628    633    632   5     0.00000    30.33400     0.00000  0.0
    627    628    633    634   5     0.00000    30.33400     0.00000  0.0
    629    628    633    632   5     0.00000    30.33400     0.00000  0.0
    629    628    633    634   5     0.00000    30.33400     0.00000  0.0
    628    629    630    631   5     0.00000    30.33400     0.00000  0.0
    628    629    630    652   5     0.00000    30.33400     0.00000  0.0
    651    629    630    631   5     0.00000    30.33400     0.00000  0.0
    651    629    630    652   5     0.00000    30.33400     0.00000  0.0
    629    630    631    632   5     0.00000    30.33400     0.00000  0.0
    629    630    631    653   5     0.00000    30.33400     0.00000  0.0
    652    630    631    632   5     0.00000    30.33400     0.00000  0.0
    652    630    631    653   5     0.00000    30.33400     0.00000  0.0
    630    631    632    633   5     0.00000    30.33400     0.00000  0.0
    630    631    632    654   5     0.00000    30.33400     0.00000  0.0
    653    631    632    633   5     0.00000    30.33400     0.00000  0.0
    653    631    632    654   5     0.00000    30.33400     0.00000  0.0
    631    632    633    628   5     0.00000    30.33400     0.00000  0.0
    631    632    633    634   5     0.00000    30.33400     0.00000  0.0
    654    632    633    628   5     0.00000    30.33400     0.00000  0.0
    654    632    633    634   5     0.00000    30.33400     0.00000  0.0
    628    633    634    635   5    -2.05016     4.04174     0.74475  0.0
    628    633    634    655   5     0.00000     0.00000     0.00000  0.0
    628    633    634    656   5     0.00000     0.00000     0.00000  0.0
    632    633    634    635   5    -2.05016     4.04174     0.74475  0.0
    632    633    634    655   5     0.00000     0.00000     0.00000  0.0
    632    633    634    656   5     0.00000     0.00000     0.00000  0.0
    633    634    635    636   5    -5.84086    -1.78657     0.00000  0.0
    633    634    635    657   5     0.00000     0.00000     0.00000  0.0
    655    634    635    636   5     0.00000     0.00000     0.00000  0.0
    655    634    635    657   5     0.00000     0.00000     0.00000  0.0
    656    634    635    636   5     0.00000     0.00000     0.00000  0.0
    656    634    635    657   5     0.00000     0.00000     0.00000  0.0
    634    635    636    637   5     0.00000    25.47638     0.00000  0.0
    634    635    636    638   5    12.53945    12.88254     0.00000  0.0
    657    635    636    637   5     0.00000    20.50160     0.00000  0.0
    657    635    636    638   5     0.00000    20.50160     0.00000  0.0
    635    636    638    639   5    11.69428    -0.66526    -1.56900  0.0
    635    636    638    658   5     0.00000     0.00000     0.00000  0.0
    635    636    638    659   5     0.00000     0.00000     0.00000  0.0
    637    636    638    639   5     0.00000     2.52295     0.00000  0.0
    637    636    638    658   5     0.00000     0.00000     0.00000  0.0
    637    636    638    659   5     0.00000     0.00000     0.00000  0.0
    636    638    639    640   5    -8.00818    -1.52298     2.46438  0.0
    636    638    639    660   5     0.00000     0.00000    -0.94140  0.0
    636    638    639    661   5     0.00000     0.00000    -0.94140  0.0
    658    638    639    640   5     0.00000     0.00000     1.25520  0.0
    658    638    639    660   5     0.00000     0.00000     1.25520  0.0
    658    638    639    661   5     0.00000     0.00000     1.25520  0.0
    659    638    639    640   5     0.00000     0.00000     1.25520  0.0
    659    638    639    660   5     0.00000     0.00000     1.25520  0.0
    659    638    639    661   5     0.00000     0.00000     1.25520  0.0
    638    639    640    641   5     4.74884    -0.63178     1.67360  0.0
    638    639    640    662   5     0.00000     0.00000     1.25520  0.0
    638    639    640    663   5     0.00000     0.00000     1.25520  0.0
    660    639    640    641   5     0.00000     0.00000     1.25520  0.0
    660    639    640    662   5     0.00000     0.00000     1.25520  0.0
    660    639    640    663   5     0.00000     0.00000     1.25520  0.0
    661    639    640    641   5     0.00000     0.00000     1.25520  0.0
    661    639    640    662   5     0.00000     0.00000     1.25520  0.0
    661    639    640    663   5     0.00000     0.00000     1.25520  0.0
    639    640    641    642   5     4.74884    -0.63178     1.67360  0.0
    639    640    641    664   5     0.00000     0.00000     1.25520  0.0
    639    640    641    665   5     0.00000     0.00000     1.25520  0.0
    662    640    641    642   5     0.00000     0.00000     1.25520  0.0
    662    640    641    664   5     0.00000     0.00000     1.25520  0.0
    662    640    641    665   5     0.00000     0.00000     1.25520  0.0
    663    640    641    642   5     0.00000     0.00000     1.25520  0.0
    663    640    641    664   5     0.00000     0.00000     1.25520  0.0
    663    640    641    665   5     0.00000     0.00000     1.25520  0.0
    640    641    642    643   5     4.74884    -0.63178     1.67360  0.0
    640    641    642    666   5     0.00000     0.00000     1.25520  0.0
    640    641    642    667   5     0.00000     0.00000     1.25520  0.0
    664    641    642    643   5     0.00000     0.00000     1.25520  0.0
    664    641    642    666   5     0.00000     0.00000     1.25520  0.0
    664    641    642    667   5     0.00000     0.00000     1.25520  0.0
    665    641    642    643   5     0.00000     0.00000     1.25520  0.0
    665    641    642    666   5     0.00000     0.00000     1.25520  0.0
    665    641    642    667   5     0.00000     0.00000     1.25520  0.0
    641    642    643    644   5     4.74884    -0.63178     1.67360  0.0
    641    642    643    668   5     0.00000     0.00000     1.25520  0.0
    641    642    643    669   5     0.00000     0.00000     1.25520  0.0
    666    642    643    644   5     0.00000     0.00000     1.25520  0.0
    666    642    643    668   5     0.00000     0.00000     1.25520  0.0
    666    642    643    669   5     0.00000     0.00000     1.25520  0.0
    667    642    643    644   5     0.00000     0.00000     1.25520  0.0
    667    642    643    668   5     0.00000     0.00000     1.25520  0.0
    667    642    643    669   5     0.00000     0.00000     1.25520  0.0
    642    643    644    645   5     4.74884    -0.63178     1.67360  0.0
    642    643    644    670   5     0.00000     0.00000     1.25520  0.0
    642    643    644    671   5     0.00000     0.00000     1.25520  0.0
    668    643    644    645   5     0.00000     0.00000     1.25520  0.0
    668    643    644    670   5     0.00000     0.00000     1.25520  0.0
    668    643    644    671   5     0.00000     0.00000     1.25520  0.0
    669    643    644    645   5     0.00000     0.00000     1.25520  0.0
    669    643    644    670   5     0.00000     0.00000     1.25520  0.0
    669    643    644    671   5     0.00000     0.00000     1.25520  0.0
    643    644    645    646   5    -8.00818    -1.52298     2.46438  0.0
    643    644    645    672   5     0.00000     0.00000     1.25520  0.0
    643    644    645    673   5     0.00000     0.00000     1.25520  0.0
    670    644    645    646   5     0.00000     0.00000    -0.94140  0.0
    670    644    645    672   5     0.00000     0.00000     1.25520  0.0
    670    644    645    673   5     0.00000     0.00000     1.25520  0.0
    671    644    645    646   5     0.00000     0.00000    -0.94140  0.0
    671    644    645    672   5     0.00000     0.00000     1.25520  0.0
    671    644    645    673   5     0.00000     0.00000     1.25520  0.0
    644    645    646    647   5     0.00000     2.52295     0.00000  0.0
    644    645    646    674   5    11.69428    -0.66526    -1.56900  0.0
    672    645    646    647   5     0.00000     0.00000     0.00000  0.0
    672    645    646    674   5     0.00000     0.00000     0.00000  0.0
    673    645    646    647   5     0.00000     0.00000     0.00000  0.0
    673    645    646    674   5     0.00000     0.00000     0.00000  0.0
    645    646    674    675   5    12.53945    12.88254     0.00000  0.0
    645    646    674    696   5     0.00000    20.50160     0.00000  0.0
    647    646    674    675   5     0.00000    25.47638     0.00000  0.0
    647    646    674    696   5     0.00000    20.50160     0.00000  0.0
    646    674    675    676   5    -5.84086    -1.78657     0.00000  0.0
    646    674    675    697   5     0.00000     0.00000     0.00000  0.0
    646    674    675    698   5     0.00000     0.00000     0.00000  0.0
    696    674    675    676   5     0.00000     0.00000     0.00000  0.0
    696    674    675    697   5     0.00000     0.00000     0.00000  0.0
    696    674    675    698   5     0.00000     0.00000     0.00000  0.0
    674    675    676    677   5    -2.05016     4.04174     0.74475  0.0
    674    675    676    681   5    -2.05016     4.04174     0.74475  0.0
    697    675    676    677   5     0.00000     0.00000     0.00000  0.0
    697    675    676    681   5     0.00000     0.00000     0.00000  0.0
    698    675    676    677   5     0.00000     0.00000     0.00000  0.0
    698    675    676    681   5     0.00000     0.00000     0.00000  0.0
    675    676    677    678   5     0.00000    30.33400     0.00000  0.0
    675    676    677    699   5     0.00000    30.33400     0.00000  0.0
    681    676    677    678   5     0.00000    30.33400     0.00000  0.0
    681    676    677    699   5     0.00000    30.33400     0.00000  0.0
    675    676    681    680   5     0.00000    30.33400     0.00000  0.0
    675    676    681    682   5     0.00000    30.33400     0.00000  0.0
    677    676    681    680   5     0.00000    30.33400     0.00000  0.0
    677    676    681    682   5     0.00000    30.33400     0.00000  0.0
    676    677    678    679   5     0.00000    30.33400     0.00000  0.0
    676    677    678    700   5     0.00000    30.33400     0.00000  0.0
    699    677    678    679   5     0.00000    30.33400     0.00000  0.0
    699    677    678    700   5     0.00000    30.33400     0.00000  0.0
    677    678    679    680   5     0.00000    30.33400     0.00000  0.0
    677    678    679    701   5     0.00000    30.33400     0.00000  0.0
    700    678    679    680   5     0.00000    30.33400     0.00000  0.0
    700    678    679    701   5     0.00000    30.33400     0.00000  0.0
    678    679    680    681   5     0.00000    30.33400     0.00000  0.0
    678    679    680    702   5     0.00000    30.33400     0.00000  0.0
    701    679    680    681   5     0.00000    30.33400     0.00000  0.0
    701    679    680    702   5     0.00000    30.33400     0.00000  0.0
    679    680    681    676   5     0.00000    30.33400     0.00000  0.0
    679    680    681    682   5     0.00000    30.33400     0.00000  0.0
    702    680    681    676   5     0.00000    30.33400     0.00000  0.0
    702    680    681    682   5     0.00000    30.33400     0.00000  0.0
    676    681    682    683   5    -2.05016     4.04174     0.74475  0.0
    676    681    682    703   5     0.00000     0.00000     0.00000  0.0
    676    681    682    704   5     0.00000     0.00000     0.00000  0.0
    680    681    682    683   5    -2.05016     4.04174     0.74475  0.0
    680    681    682    703   5     0.00000     0.00000     0.00000  0.0
    680    681    682    704   5     0.00000     0.00000     0.00000  0.0
    681    682    683    684   5    -5.84086    -1.78657     0.00000  0.0
    681    682    683    705   5     0.00000     0.00000     0.00000  0.0
    703    682    683    684   5     0.00000     0.00000     0.00000  0.0
    703    682    683    705   5     0.00000     0.00000     0.00000  0.0
    704    682    683    684   5     0.00000     0.00000     0.00000  0.0
    704    682    683    705   5     0.00000     0.00000     0.00000  0.0
    682    683    684    685   5     0.00000    25.47638     0.00000  0.0
    682    683    684    686   5    12.53945    12.88254     0.00000  0.0
    705    683    684    685   5     0.00000    20.50160     0.00000  0.0
    705    683    684    686   5     0.00000    20.50160     0.00000  0.0
    683    684    686    687   5    11.69428    -0.66526    -1.56900  0.0
    683    684    686    706   5     0.00000     0.00000     0.00000  0.0
    683    684    686    707   5     0.00000     0.00000     0.00000  0.0
    685    684    686    687   5     0.00000     2.52295     0.00000  0.0
    685    684    686    706   5     0.00000     0.00000     0.00000  0.0
    685    684    686    707   5     0.00000     0.00000     0.00000  0.0
    684    686    687    688   5    -8.00818    -1.52298     2.46438  0.0
    684    686    687    708   5     0.00000     0.00000    -0.94140  0.0
    684    686    687    709   5     0.00000     0.00000    -0.94140  0.0
    706    686    687    688   5     0.00000     0.00000     1.25520  0.0
    706    686    687    708   5     0.00000     0.00000     1.25520  0.0
    706    686    687    709   5     0.00000     0.00000     1.25520  0.0
    707    686    687    688   5     0.00000     0.00000     1.25520  0.0
    707    686    687    708   5     0.00000     0.00000     1.25520  0.0
    707    686    687    709   5     0.00000     0.00000     1.25520  0.0
    686    687    688    689   5     4.74884    -0.63178     1.67360  0.0
    686    687    688    710   5     0.00000     0.00000     1.25520  0.0
    686    687    688    711   5     0.00000     0.00000     1.25520  0.0
    708    687    688    689   5     0.00000     0.00000     1.25520  0.0
    708    687    688    710   5     0.00000     0.00000     1.25520  0.0
    708    687    688    711   5     0.00000     0.00000     1.25520  0.0
    709    687    688    689   5     0.00000     0.00000     1.25520  0.0
    709    687    688    710   5     0.00000     0.00000     1.25520  0.0
    709    687    688    711   5     0.00000     0.00000     1.25520  0.0
    687    688    689    690   5     4.74884    -0.63178     1.67360  0.0
    687    688    689    712   5     0.00000     0.00000     1.25520  0.0
    687    688    689    713   5     0.00000     0.00000     1.25520  0.0
    710    688    689    690   5     0.00000     0.00000     1.25520  0.0
    710    688    689    712   5     0.00000     0.00000     1.25520  0.0
    710    688    689    713   5     0.00000     0.00000     1.25520  0.0
    711    688    689    690   5     0.00000     0.00000     1.25520  0.0
    711    688    689    712   5     0.00000     0.00000     1.25520  0.0
    711    688    689    713   5     0.00000     0.00000     1.25520  0.0
    688    689    690    691   5     4.74884    -0.63178     1.67360  0.0
    688    689    690    714   5     0.00000     0.00000     1.25520  0.0
    688    689    690    715   5     0.00000     0.00000     1.25520  0.0
    712    689    690    691   5     0.00000     0.00000     1.25520  0.0
    712    689    690    714   5     0.00000     0.00000     1.25520  0.0
    712    689    690    715   5     0.00000     0.00000     1.25520  0.0
    713    689    690    691   5     0.00000     0.00000     1.25520  0.0
    713    689    690    714   5     0.00000     0.00000     1.25520  0.0
    713    689    690    715   5     0.00000     0.00000     1.25520  0.0
    689    690    691    692   5     4.74884    -0.63178     1.67360  0.0
    689    690    691    716   5     0.00000     0.00000     1.25520  0.0
    689    690    691    717   5     0.00000     0.00000     1.25520  0.0
    714    690    691    692   5     0.00000     0.00000     1.25520  0.0
    714    690    691    716   5     0.00000     0.00000     1.25520  0.0
    714    690    691    717   5     0.00000     0.00000     1.25520  0.0
    715    690    691    692   5     0.00000     0.00000     1.25520  0.0
    715    690    691    716   5     0.00000     0.00000     1.25520  0.0
    715    690    691    717   5     0.00000     0.00000     1.25520  0.0
    690    691    692    693   5     4.74884    -0.63178     1.67360  0.0
    690    691    692    718   5     0.00000     0.00000     1.25520  0.0
    690    691    692    719   5     0.00000     0.00000     1.25520  0.0
    716    691    692    693   5     0.00000     0.00000     1.25520  0.0
    716    691    692    718   5     0.00000     0.00000     1.25520  0.0
    716    691    692    719   5     0.00000     0.00000     1.25520  0.0
    717    691    692    693   5     0.00000     0.00000     1.25520  0.0
    717    691    692    718   5     0.00000     0.00000     1.25520  0.0
    717    691    692    719   5     0.00000     0.00000     1.25520  0.0
    691    692    693    694   5    -8.00818    -1.52298     2.46438  0.0
    691    692    693    720   5     0.00000     0.00000     1.25520  0.0
    691    692    693    721   5     0.00000     0.00000     1.25520  0.0
    718    692    693    694   5     0.00000     0.00000    -0.94140  0.0
    718    692    693    720   5     0.00000     0.00000     1.25520  0.0
    718    692    693    721   5     0.00000     0.00000     1.25520  0.0
    719    692    693    694   5     0.00000     0.00000    -0.94140  0.0
    719    692    693    720   5     0.00000     0.00000     1.25520  0.0
    719    692    693    721   5     0.00000     0.00000     1.25520  0.0
    692    693    694    695   5     0.00000     2.52295     0.00000  0.0
    692    693    694    722   5    11.69428    -0.66526    -1.56900  0.0
    720    693    694    695   5     0.00000     0.00000     0.00000  0.0
    720    693    694    722   5     0.00000     0.00000     0.00000  0.0
    721    693    694    695   5     0.00000     0.00000     0.00000  0.0
    721    693    694    722   5     0.00000     0.00000     0.00000  0.0
    693    694    722    723   5    12.53945    12.88254     0.00000  0.0
    693    694    722    744   5     0.00000    20.50160     0.00000  0.0
    695    694    722    723   5     0.00000    25.47638     0.00000  0.0
    695    694    722    744   5     0.00000    20.50160     0.00000  0.0
    694    722    723    724   5    -5.84086    -1.78657     0.00000  0.0
    694    722    723    745   5     0.00000     0.00000     0.00000  0.0
    694    722    723    746   5     0.00000     0.00000     0.00000  0.0
    744    722    723    724   5     0.00000     0.00000     0.00000  0.0
    744    722    723    745   5     0.00000     0.00000     0.00000  0.0
    744    722    723    746   5     0.00000     0.00000     0.00000  0.0
    722    723    724    725   5    -2.05016     4.04174     0.74475  0.0
    722    723    724    729   5    -2.05016     4.04174     0.74475  0.0
    745    723    724    725   5     0.00000     0.00000     0.00000  0.0
    745    723    724    729   5     0.00000     0.00000     0.00000  0.0
    746    723    724    725   5     0.00000     0.00000     0.00000  0.0
    746    723    724    729   5     0.00000     0.00000     0.00000  0.0
    723    724    725    726   5     0.00000    30.33400     0.00000  0.0
    723    724    725    747   5     0.00000    30.33400     0.00000  0.0
    729    724    725    726   5     0.00000    30.33400     0.00000  0.0
    729    724    725    747   5     0.00000    30.33400     0.00000  0.0
    723    724    729    728   5     0.00000    30.33400     0.00000  0.0
    723    724    729    730   5     0.00000    30.33400     0.00000  0.0
    725    724    729    728   5     0.00000    30.33400     0.00000  0.0
    725    724    729    730   5     0.00000    30.33400     0.00000  0.0
    724    725    726    727   5     0.00000    30.33400     0.00000  0.0
    724    725    726    748   5     0.00000    30.33400     0.00000  0.0
    747    725    726    727   5     0.00000    30.33400     0.00000  0.0
    747    725    726    748   5     0.00000    30.33400     0.00000  0.0
    725    726    727    728   5     0.00000    30.33400     0.00000  0.0
    725    726    727    749   5     0.00000    30.33400     0.00000  0.0
    748    726    727    728   5     0.00000    30.33400     0.00000  0.0
    748    726    727    749   5     0.00000    30.33400     0.00000  0.0
    726    727    728    729   5     0.00000    30.33400     0.00000  0.0
    726    727    728    750   5     0.00000    30.33400     0.00000  0.0
    749    727    728    729   5     0.00000    30.33400     0.00000  0.0
    749    727    728    750   5     0.00000    30.33400     0.00000  0.0
    727    728    729    724   5     0.00000    30.33400     0.00000  0.0
    727    728    729    730   5     0.00000    30.33400     0.00000  0.0
    750    728    729    724   5     0.00000    30.33400     0.00000  0.0
    750    728    729    730   5     0.00000    30.33400     0.00000  0.0
    724    729    730    731   5    -2.05016     4.04174     0.74475  0.0
    724    729    730    751   5     0.00000     0.00000     0.00000  0.0
    724    729    730    752   5     0.00000     0.00000     0.00000  0.0
    728    729    730    731   5    -2.05016     4.04174     0.74475  0.0
    728    729    730    751   5     0.00000     0.00000     0.00000  0.0
    728    729    730    752   5     0.00000     0.00000     0.00000  0.0
    729    730    731    732   5    -5.84086    -1.78657     0.00000  0.0
    729    730    731    753   5     0.00000     0.00000     0.00000  0.0
    751    730    731    732   5     0.00000     0.00000     0.00000  0.0
    751    730    731    753   5     0.00000     0.00000     0.00000  0.0
    752    730    731    732   5     0.00000     0.00000     0.00000  0.0
    752    730    731    753   5     0.00000     0.00000     0.00000  0.0
    730    731    732    733   5     0.00000    25.47638     0.00000  0.0
    730    731    732    734   5    12.53945    12.88254     0.00000  0.0
    753    731    732    733   5     0.00000    20.50160     0.00000  0.0
    753    731    732    734   5     0.00000    20.50160     0.00000  0.0
    731    732    734    735   5    11.69428    -0.66526    -1.56900  0.0
    731    732    734    754   5     0.00000     0.00000     0.00000  0.0
    731    732    734    755   5     0.00000     0.00000     0.00000  0.0
    733    732    734    735   5     0.00000     2.52295     0.00000  0.0
    733    732    734    754   5     0.00000     0.00000     0.00000  0.0
    733    732    734    755   5     0.00000     0.00000     0.00000  0.0
    732    734    735    736   5    -8.00818    -1.52298     2.46438  0.0
    732    734    735    756   5     0.00000     0.00000    -0.94140  0.0
    732    734    735    757   5     0.00000     0.00000    -0.94140  0.0
    754    734    735    736   5     0.00000     0.00000     1.25520  0.0
    754    734    735    756   5     0.00000     0.00000     1.25520  0.0
    754    734    735    757   5     0.00000     0.00000     1.25520  0.0
    755    734    735    736   5     0.00000     0.00000     1.25520  0.0
    755    734    735    756   5     0.00000     0.00000     1.25520  0.0
    755    734    735    757   5     0.00000     0.00000     1.25520  0.0
    734    735    736    737   5     4.74884    -0.63178     1.67360  0.0
    734    735    736    758   5     0.00000     0.00000     1.25520  0.0
    734    735    736    759   5     0.00000     0.00000     1.25520  0.0
    756    735    736    737   5     0.00000     0.00000     1.25520  0.0
    756    735    736    758   5     0.00000     0.00000     1.25520  0.0
    756    735    736    759   5     0.00000     0.00000     1.25520  0.0
    757    735    736    737   5     0.00000     0.00000     1.25520  0.0
    757    735    736    758   5     0.00000     0.00000     1.25520  0.0
    757    735    736    759   5     0.00000     0.00000     1.25520  0.0
    735    736    737    738   5     4.74884    -0.63178     1.67360  0.0
    735    736    737    760   5     0.00000     0.00000     1.25520  0.0
    735    736    737    761   5     0.00000     0.00000     1.25520  0.0
    758    736    737    738   5     0.00000     0.00000     1.25520  0.0
    758    736    737    760   5     0.00000     0.00000     1.25520  0.0
    758    736    737    761   5     0.00000     0.00000     1.25520  0.0
    759    736    737    738   5     0.00000     0.00000     1.25520  0.0
    759    736    737    760   5     0.00000     0.00000     1.25520  0.0
    759    736    737    761   5     0.00000     0.00000     1.25520  0.0
    736    737    738    739   5     4.74884    -0.63178     1.67360  0.0
    736    737    738    762   5     0.00000     0.00000     1.25520  0.0
    736    737    738    763   5     0.00000     0.00000     1.25520  0.0
    760    737    738    739   5     0.00000     0.00000     1.25520  0.0
    760    737    738    762   5     0.00000     0.00000     1.25520  0.0
    760    737    738    763   5     0.00000     0.00000     1.25520  0.0
    761    737    738    739   5     0.00000     0.00000     1.25520  0.0
    761    737    738    762   5     0.00000     0.00000     1.25520  0.0
    761    737    738    763   5     0.00000     0.00000     1.25520  0.0
    737    738    739    740   5     4.74884    -0.63178     1.67360  0.0
    737    738    739    764   5     0.00000     0.00000     1.25520  0.0
    737    738    739    765   5     0.00000     0.00000     1.25520  0.0
    762    738    739    740   5     0.00000     0.00000     1.25520  0.0
    762    738    739    764   5     0.00000     0.00000     1.25520  0.0
    762    738    739    765   5     0.00000     0.00000     1.25520  0.0
    763    738    739    740   5     0.00000     0.00000     1.25520  0.0
    763    738    739    764   5     0.00000     0.00000     1.25520  0.0
    763    738    739    765   5     0.00000     0.00000     1.25520  0.0
    738    739    740    741   5     4.74884    -0.63178     1.67360  0.0
    738    739    740    766   5     0.00000     0.00000     1.25520  0.0
    738    739    740    767   5     0.00000     0.00000     1.25520  0.0
    764    739    740    741   5     0.00000     0.00000     1.25520  0.0
    764    739    740    766   5     0.00000     0.00000     1.25520  0.0
    764    739    740    767   5     0.00000     0.00000     1.25520  0.0
    765    739    740    741   5     0.00000     0.00000     1.25520  0.0
    765    739    740    766   5     0.00000     0.00000     1.25520  0.0
    765    739    740    767   5     0.00000     0.00000     1.25520  0.0
    739    740    741    742   5    -8.00818    -1.52298     2.46438  0.0
    739    740    741    768   5     0.00000     0.00000     1.25520  0.0
    739    740    741    769   5     0.00000     0.00000     1.25520  0.0
    766    740    741    742   5     0.00000     0.00000    -0.94140  0.0
    766    740    741    768   5     0.00000     0.00000     1.25520  0.0
    766    740    741    769   5     0.00000     0.00000     1.25520  0.0
    767    740    741    742   5     0.00000     0.00000    -0.94140  0.0
    767    740    741    768   5     0.00000     0.00000     1.25520  0.0
    767    740    741    769   5     0.00000     0.00000     1.25520  0.0
    740    741    742    743   5     0.00000     2.52295     0.00000  0.0
    740    741    742    770   5    11.69428    -0.66526    -1.56900  0.0
    768    741    742    743   5     0.00000     0.00000     0.00000  0.0
    768    741    742    770   5     0.00000     0.00000     0.00000  0.0
    769    741    742    743   5     0.00000     0.00000     0.00000  0.0
    769    741    742    770   5     0.00000     0.00000     0.00000  0.0
    741    742    770    771   5    12.53945    12.88254     0.00000  0.0
    741    742    770    792   5     0.00000    20.50160     0.00000  0.0
    743    742    770    771   5     0.00000    25.47638     0.00000  0.0
    743    742    770    792   5     0.00000    20.50160     0.00000  0.0
    742    770    771    772   5    -5.84086    -1.78657     0.00000  0.0
    742    770    771    793   5     0.00000     0.00000     0.00000  0.0
    742    770    771    794   5     0.00000     0.00000     0.00000  0.0
    792    770    771    772   5     0.00000     0.00000     0.00000  0.0
    792    770    771    793   5     0.00000     0.00000     0.00000  0.0
    792    770    771    794   5     0.00000     0.00000     0.00000  0.0
    770    771    772    773   5    -2.05016     4.04174     0.74475  0.0
    770    771    772    777   5    -2.05016     4.04174     0.74475  0.0
    793    771    772    773   5     0.00000     0.00000     0.00000  0.0
    793    771    772    777   5     0.00000     0.00000     0.00000  0.0
    794    771    772    773   5     0.00000     0.00000     0.00000  0.0
    794    771    772    777   5     0.00000     0.00000     0.00000  0.0
    771    772    773    774   5     0.00000    30.33400     0.00000  0.0
    771    772    773    795   5     0.00000    30.33400     0.00000  0.0
    777    772    773    774   5     0.00000    30.33400     0.00000  0.0
    777    772    773    795   5     0.00000    30.33400     0.00000  0.0
    771    772    777    776   5     0.00000    30.33400     0.00000  0.0
    771    772    777    778   5     0.00000    30.33400     0.00000  0.0
    773    772    777    776   5     0.00000    30.33400     0.00000  0.0
    773    772    777    778   5     0.00000    30.33400     0.00000  0.0
    772    773    774    775   5     0.00000    30.33400     0.00000  0.0
    772    773    774    796   5     0.00000    30.33400     0.00000  0.0
    795    773    774    775   5     0.00000    30.33400     0.00000  0.0
    795    773    774    796   5     0.00000    30.33400     0.00000  0.0
    773    774    775    776   5     0.00000    30.33400     0.00000  0.0
    773    774    775    797   5     0.00000    30.33400     0.00000  0.0
    796    774    775    776   5     0.00000    30.33400     0.00000  0.0
    796    774    775    797   5     0.00000    30.33400     0.00000  0.0
    774    775    776    777   5     0.00000    30.33400     0.00000  0.0
    774    775    776    798   5     0.00000    30.33400     0.00000  0.0
    797    775    776    777   5     0.00000    30.33400     0.00000  0.0
    797    775    776    798   5     0.00000    30.33400     0.00000  0.0
    775    776    777    772   5     0.00000    30.33400     0.00000  0.0
    775    776    777    778   5     0.00000    30.33400     0.00000  0.0
    798    776    777    772   5     0.00000    30.33400     0.00000  0.0
    798    776    777    778   5     0.00000    30.33400     0.00000  0.0
    772    777    778    779   5    -2.05016     4.04174     0.74475  0.0
    772    777    778    799   5     0.00000     0.00000     0.00000  0.0
    772    777    778    800   5     0.00000     0.00000     0.00000  0.0
    776    777    778    779   5    -2.05016     4.04174     0.74475  0.0
    776    777    778    799   5     0.00000     0.00000     0.00000  0.0
    776    777    778    800   5     0.00000     0.00000     0.00000  0.0
    777    778    779    780   5    -5.84086    -1.78657     0.00000  0.0
    777    778    779    801   5     0.00000     0.00000     0.00000  0.0
    799    778    779    780   5     0.00000     0.00000     0.00000  0.0
    799    778    779    801   5     0.00000     0.00000     0.00000  0.0
    800    778    779    780   5     0.00000     0.00000     0.00000  0.0
    800    778    779    801   5     0.00000     0.00000     0.00000  0.0
    778    779    780    781   5     0.00000    25.47638     0.00000  0.0
    778    779    780    782   5    12.53945    12.88254     0.00000  0.0
    801    779    780    781   5     0.00000    20.50160     0.00000  0.0
    801    779    780    782   5     0.00000    20.50160     0.00000  0.0
    779    780    782    783   5    11.69428    -0.66526    -1.56900  0.0
    779    780    782    802   5     0.00000     0.00000     0.00000  0.0
    779    780    782    803   5     0.00000     0.00000     0.00000  0.0
    781    780    782    783   5     0.00000     2.52295     0.00000  0.0
    781    780    782    802   5     0.00000     0.00000     0.00000  0.0
    781    780    782    803   5     0.00000     0.00000     0.00000  0.0
    780    782    783    784   5    -8.00818    -1.52298     2.46438  0.0
    780    782    783    804   5     0.00000     0.00000    -0.94140  0.0
    780    782    783    805   5     0.00000     0.00000    -0.94140  0.0
    802    782    783    784   5     0.00000     0.00000     1.25520  0.0
    802    782    783    804   5     0.00000     0.00000     1.25520  0.0
    802    782    783    805   5     0.00000     0.00000     1.25520  0.0
    803    782    783    784   5     0.00000     0.00000     1.25520  0.0
    803    782    783    804   5     0.00000     0.00000     1.25520  0.0
    803    782    783    805   5     0.00000     0.00000     1.25520  0.0
    782    783    784    785   5     4.74884    -0.63178     1.67360  0.0
    782    783    784    806   5     0.00000     0.00000     1.25520  0.0
    782    783    784    807   5     0.00000     0.00000     1.25520  0.0
    804    783    784    785   5     0.00000     0.00000     1.25520  0.0
    804    783    784    806   5     0.00000     0.00000     1.25520  0.0
    804    783    784    807   5     0.00000     0.00000     1.25520  0.0
    805    783    784    785   5     0.00000     0.00000     1.25520  0.0
    805    783    784    806   5     0.00000     0.00000     1.25520  0.0
    805    783    784    807   5     0.00000     0.00000     1.25520  0.0
    783    784    785    786   5     4.74884    -0.63178     1.67360  0.0
    783    784    785    808   5     0.00000     0.00000     1.25520  0.0
    783    784    785    809   5     0.00000     0.00000     1.25520  0.0
    806    784    785    786   5     0.00000     0.00000     1.25520  0.0
    806    784    785    808   5     0.00000     0.00000     1.25520  0.0
    806    784    785    809   5     0.00000     0.00000     1.25520  0.0
    807    784    785    786   5     0.00000     0.00000     1.25520  0.0
    807    784    785    808   5     0.00000     0.00000     1.25520  0.0
    807    784    785    809   5     0.00000     0.00000     1.25520  0.0
    784    785    786    787   5     4.74884    -0.63178     1.67360  0.0
    784    785    786    810   5     0.00000     0.00000     1.25520  0.0
    784    785    786    811   5     0.00000     0.00000     1.25520  0.0
    808    785    786    787   5     0.00000     0.00000     1.25520  0.0
    808    785    786    810   5     0.00000     0.00000     1.25520  0.0
    808    785    786    811   5     0.00000     0.00000     1.25520  0.0
    809    785    786    787   5     0.00000     0.00000     1.25520  0.0
    809    785    786    810   5     0.00000     0.00000     1.25520  0.0
    809    785    786    811   5     0.00000     0.00000     1.25520  0.0
    785    786    787    788   5     4.74884    -0.63178     1.67360  0.0
    785    786    787    812   5     0.00000     0.00000     1.25520  0.0
    785    786    787    813   5     0.00000     0.00000     1.25520  0.0
    810    786    787    788   5     0.00000     0.00000     1.25520  0.0
    810    786    787    812   5     0.00000     0.00000     1.25520  0.0
    810    786    787    813   5     0.00000     0.00000     1.25520  0.0
    811    786    787    788   5     0.00000     0.00000     1.25520  0.0
    811    786    787    812   5     0.00000     0.00000     1.25520  0.0
    811    786    787    813   5     0.00000     0.00000     1.25520  0.0
    786    787    788    789   5     4.74884    -0.63178     1.67360  0.0
    786    787    788    814   5     0.00000     0.00000     1.25520  0.0
    786    787    788    815   5     0.00000     0.00000     1.25520  0.0
    812    787    788    789   5     0.00000     0.00000     1.25520  0.0
    812    787    788    814   5     0.00000     0.00000     1.25520  0.0
    812    787    788    815   5     0.00000     0.00000     1.25520  0.0
    813    787    788    789   5     0.00000     0.00000     1.25520  0.0
    813    787    788    814   5     0.00000     0.00000     1.25520  0.0
    813    787    788    815   5     0.00000     0.00000     1.25520  0.0
    787    788    789    790   5    -8.00818    -1.52298     2.46438  0.0
    787    788    789    816   5     0.00000     0.00000     1.25520  0.0
    787    788    789    817   5     0.00000     0.00000     1.25520  0.0
    814    788    789    790   5     0.00000     0.00000    -0.94140  0.0
    814    788    789    816   5     0.00000     0.00000     1.25520  0.0
    814    788    789    817   5     0.00000     0.00000     1.25520  0.0
    815    788    789    790   5     0.00000     0.00000    -0.94140  0.0
    815    788    789    816   5     0.00000     0.00000     1.25520  0.0
    815    788    789    817   5     0.00000     0.00000     1.25520  0.0
    788    789    790    791   5     0.00000     2.52295     0.00000  0.0
    788    789    790    818   5    11.69428    -0.66526    -1.56900  0.0
    816    789    790    791   5     0.00000     0.00000     0.00000  0.0
    816    789    790    818   5     0.00000     0.00000     0.00000  0.0
    817    789    790    791   5     0.00000     0.00000     0.00000  0.0
    817    789    790    818   5     0.00000     0.00000     0.00000  0.0
    789    790    818    819   5    12.53945    12.88254     0.00000  0.0
    789    790    818    840   5     0.00000    20.50160     0.00000  0.0
    791    790    818    819   5     0.00000    25.47638     0.00000  0.0
    791    790    818    840   5     0.00000    20.50160     0.00000  0.0
    790    818    819    820   5    -5.84086    -1.78657     0.00000  0.0
    790    818    819    841   5     0.00000     0.00000     0.00000  0.0
    790    818    819    842   5     0.00000     0.00000     0.00000  0.0
    840    818    819    820   5     0.00000     0.00000     0.00000  0.0
    840    818    819    841   5     0.00000     0.00000     0.00000  0.0
    840    818    819    842   5     0.00000     0.00000     0.00000  0.0
    818    819    820    821   5    -2.05016     4.04174     0.74475  0.0
    818    819    820    825   5    -2.05016     4.04174     0.74475  0.0
    841    819    820    821   5     0.00000     0.00000     0.00000  0.0
    841    819    820    825   5     0.00000     0.00000     0.00000  0.0
    842    819    820    821   5     0.00000     0.00000     0.00000  0.0
    842    819    820    825   5     0.00000     0.00000     0.00000  0.0
    819    820    821    822   5     0.00000    30.33400     0.00000  0.0
    819    820    821    843   5     0.00000    30.33400     0.00000  0.0
    825    820    821    822   5     0.00000    30.33400     0.00000  0.0
    825    820    821    843   5     0.00000    30.33400     0.00000  0.0
    819    820    825    824   5     0.00000    30.33400     0.00000  0.0
    819    820    825    826   5     0.00000    30.33400     0.00000  0.0
    821    820    825    824   5     0.00000    30.33400     0.00000  0.0
    821    820    825    826   5     0.00000    30.33400     0.00000  0.0
    820    821    822    823   5     0.00000    30.33400     0.00000  0.0
    820    821    822    844   5     0.00000    30.33400     0.00000  0.0
    843    821    822    823   5     0.00000    30.33400     0.00000  0.0
    843    821    822    844   5     0.00000    30.33400     0.00000  0.0
    821    822    823    824   5     0.00000    30.33400     0.00000  0.0
    821    822    823    845   5     0.00000    30.33400     0.00000  0.0
    844    822    823    824   5     0.00000    30.33400     0.00000  0.0
    844    822    823    845   5     0.00000    30.33400     0.00000  0.0
    822    823    824    825   5     0.00000    30.33400     0.00000  0.0
    822    823    824    846   5     0.00000    30.33400     0.00000  0.0
    845    823    824    825   5     0.00000    30.33400     0.00000  0.0
    845    823    824    846   5     0.00000    30.33400     0.00000  0.0
    823    824    825    820   5     0.00000    30.33400     0.00000  0.0
    823    824    825    826   5     0.00000    30.33400     0.00000  0.0
    846    824    825    820   5     0.00000    30.33400     0.00000  0.0
    846    824    825    826   5     0.00000    30.33400     0.00000  0.0
    820    825    826    827   5    -2.05016     4.04174     0.74475  0.0
    820    825    826    847   5     0.00000     0.00000     0.00000  0.0
    820    825    826    848   5     0.00000     0.00000     0.00000  0.0
    824    825    826    827   5    -2.05016     4.04174     0.74475  0.0
    824    825    826    847   5     0.00000     0.00000     0.00000  0.0
    824    825    826    848   5     0.00000     0.00000     0.00000  0.0
    825    826    827    828   5    -5.84086    -1.78657     0.00000  0.0
    825    826    827    849   5     0.00000     0.00000     0.00000  0.0
    847    826    827    828   5     0.00000     0.00000     0.00000  0.0
    847    826    827    849   5     0.00000     0.00000     0.00000  0.0
    848    826    827    828   5     0.00000     0.00000     0.00000  0.0
    848    826    827    849   5     0.00000     0.00000     0.00000  0.0
    826    827    828    829   5     0.00000    25.47638     0.00000  0.0
    826    827    828    830   5    12.53945    12.88254     0.00000  0.0
    849    827    828    829   5     0.00000    20.50160     0.00000  0.0
    849    827    828    830   5     0.00000    20.50160     0.00000  0.0
    827    828    830    831   5    11.69428    -0.66526    -1.56900  0.0
    827    828    830    850   5     0.00000     0.00000     0.00000  0.0
    827    828    830    851   5     0.00000     0.00000     0.00000  0.0
    829    828    830    831   5     0.00000     2.52295     0.00000  0.0
    829    828    830    850   5     0.00000     0.00000     0.00000  0.0
    829    828    830    851   5     0.00000     0.00000     0.00000  0.0
    828    830    831    832   5    -8.00818    -1.52298     2.46438  0.0
    828    830    831    852   5     0.00000     0.00000    -0.94140  0.0
    828    830    831    853   5     0.00000     0.00000    -0.94140  0.0
    850    830    831    832   5     0.00000     0.00000     1.25520  0.0
    850    830    831    852   5     0.00000     0.00000     1.25520  0.0
    850    830    831    853   5     0.00000     0.00000     1.25520  0.0
    851    830    831    832   5     0.00000     0.00000     1.25520  0.0
    851    830    831    852   5     0.00000     0.00000     1.25520  0.0
    851    830    831    853   5     0.00000     0.00000     1.25520  0.0
    830    831    832    833   5     4.74884    -0.63178     1.67360  0.0
    830    831    832    854   5     0.00000     0.00000     1.25520  0.0
    830    831    832    855   5     0.00000     0.00000     1.25520  0.0
    852    831    832    833   5     0.00000     0.00000     1.25520  0.0
    852    831    832    854   5     0.00000     0.00000     1.25520  0.0
    852    831    832    855   5     0.00000     0.00000     1.25520  0.0
    853    831    832    833   5     0.00000     0.00000     1.25520  0.0
    853    831    832    854   5     0.00000     0.00000     1.25520  0.0
    853    831    832    855   5     0.00000     0.00000     1.25520  0.0
    831    832    833    834   5     4.74884    -0.63178     1.67360  0.0
    831    832    833    856   5     0.00000     0.00000     1.25520  0.0
    831    832    833    857   5     0.00000     0.00000     1.25520  0.0
    854    832    833    834   5     0.00000     0.00000     1.25520  0.0
    854    832    833    856   5     0.00000     0.00000     1.25520  0.0
    854    832    833    857   5     0.00000     0.00000     1.25520  0.0
    855    832    833    834   5     0.00000     0.00000     1.25520  0.0
    855    832    833    856   5     0.00000     0.00000     1.25520  0.0
    855    832    833    857   5     0.00000     0.00000     1.25520  0.0
    832    833    834    835   5     4.74884    -0.63178     1.67360  0.0
    832    833    834    858   5     0.00000     0.00000     1.25520  0.0
    832    833    834    859   5     0.00000     0.00000     1.25520  0.0
    856    833    834    835   5     0.00000     0.00000     1.25520  0.0
    856    833    834    858   5     0.00000     0.00000     1.25520  0.0
    856    833    834    859   5     0.00000     0.00000     1.25520  0.0
    857    833    834    835   5     0.00000     0.00000     1.25520  0.0
    857    833    834    858   5     0.00000     0.00000     1.25520  0.0
    857    833    834    859   5     0.00000     0.00000     1.25520  0.0
    833    834    835    836   5     4.74884    -0.63178     1.67360  0.0
    833    834    835    860   5     0.00000     0.00000     1.25520  0.0
    833    834    835    861   5     0.00000     0.00000     1.25520  0.0
    858    834    835    836   5     0.00000     0.00000     1.25520  0.0
    858    834    835    860   5     0.00000     0.00000     1.25520  0.0
    858    834    835    861   5     0.00000     0.00000     1.25520  0.0
    859    834    835    836   5     0.00000     0.00000     1.25520  0.0
    859    834    835    860   5     0.00000     0.00000     1.25520  0.0
    859    834    835    861   5     0.00000     0.00000     1.25520  0.0
    834    835    836    837   5     4.74884    -0.63178     1.67360  0.0
    834    835    836    862   5     0.00000     0.00000     1.25520  0.0
    834    835    836    863   5     0.00000     0.00000     1.25520  0.0
    860    835    836    837   5     0.00000     0.00000     1.25520  0.0
    860    835    836    862   5     0.00000     0.00000     1.25520  0.0
    860    835    836    863   5     0.00000     0.00000     1.25520  0.0
    861    835    836    837   5     0.00000     0.00000     1.25520  0.0
    861    835    836    862   5     0.00000     0.00000     1.25520  0.0
    861    835    836    863   5     0.00000     0.00000     1.25520  0.0
    835    836    837    838   5    -8.00818    -1.52298     2.46438  0.0
    835    836    837    864   5     0.00000     0.00000     1.25520  0.0
    835    836    837    865   5     0.00000     0.00000     1.25520  0.0
    862    836    837    838   5     0.00000     0.00000    -0.94140  0.0
    862    836    837    864   5     0.00000     0.00000     1.25520  0.0
    862    836    837    865   5     0.00000     0.00000     1.25520  0.0
    863    836    837    838   5     0.00000     0.00000    -0.94140  0.0
    863    836    837    864   5     0.00000     0.00000     1.25520  0.0
    863    836    837    865   5     0.00000     0.00000     1.25520  0.0
    836    837    838    839   5     0.00000     2.52295     0.00000  0.0
    836    837    838    866   5    11.69428    -0.66526    -1.56900  0.0
    864    837    838    839   5     0.00000     0.00000     0.00000  0.0
    864    837    838    866   5     0.00000     0.00000     0.00000  0.0
    865    837    838    839   5     0.00000     0.00000     0.00000  0.0
    865    837    838    866   5     0.00000     0.00000     0.00000  0.0
    837    838    866    867   5    12.53945    12.88254     0.00000  0.0
    837    838    866    888   5     0.00000    20.50160     0.00000  0.0
    839    838    866    867   5     0.00000    25.47638     0.00000  0.0
    839    838    866    888   5     0.00000    20.50160     0.00000  0.0
    838    866    867    868   5    -5.84086    -1.78657     0.00000  0.0
    838    866    867    889   5     0.00000     0.00000     0.00000  0.0
    838    866    867    890   5     0.00000     0.00000     0.00000  0.0
    888    866    867    868   5     0.00000     0.00000     0.00000  0.0
    888    866    867    889   5     0.00000     0.00000     0.00000  0.0
    888    866    867    890   5     0.00000     0.00000     0.00000  0.0
    866    867    868    869   5    -2.05016     4.04174     0.74475  0.0
    866    867    868    873   5    -2.05016     4.04174     0.74475  0.0
    889    867    868    869   5     0.00000     0.00000     0.00000  0.0
    889    867    868    873   5     0.00000     0.00000     0.00000  0.0
    890    867    868    869   5     0.00000     0.00000     0.00000  0.0
    890    867    868    873   5     0.00000     0.00000     0.00000  0.0
    867    868    869    870   5     0.00000    30.33400     0.00000  0.0
    867    868    869    891   5     0.00000    30.33400     0.00000  0.0
    873    868    869    870   5     0.00000    30.33400     0.00000  0.0
    873    868    869    891   5     0.00000    30.33400     0.00000  0.0
    867    868    873    872   5     0.00000    30.33400     0.00000  0.0
    867    868    873    874   5     0.00000    30.33400     0.00000  0.0
    869    868    873    872   5     0.00000    30.33400     0.00000  0.0
    869    868    873    874   5     0.00000    30.33400     0.00000  0.0
    868    869    870    871   5     0.00000    30.33400     0.00000  0.0
    868    869    870    892   5     0.00000    30.33400     0.00000  0.0
    891    869    870    871   5     0.00000    30.33400     0.00000  0.0
    891    869    870    892   5     0.00000    30.33400     0.00000  0.0
    869    870    871    872   5     0.00000    30.33400     0.00000  0.0
    869    870    871    893   5     0.00000    30.33400     0.00000  0.0
    892    870    871    872   5     0.00000    30.33400     0.00000  0.0
    892    870    871    893   5     0.00000    30.33400     0.00000  0.0
    870    871    872    873   5     0.00000    30.33400     0.00000  0.0
    870    871    872    894   5     0.00000    30.33400     0.00000  0.0
    893    871    872    873   5     0.00000    30.33400     0.00000  0.0
    893    871    872    894   5     0.00000    30.33400     0.00000  0.0
    871    872    873    868   5     0.00000    30.33400     0.00000  0.0
    871    872    873    874   5     0.00000    30.33400     0.00000  0.0
    894    872    873    868   5     0.00000    30.33400     0.00000  0.0
    894    872    873    874   5     0.00000    30.33400     0.00000  0.0
    868    873    874    875   5    -2.05016     4.04174     0.74475  0.0
    868    873    874    895   5     0.00000     0.00000     0.00000  0.0
    868    873    874    896   5     0.00000     0.00000     0.00000  0.0
    872    873    874    875   5    -2.05016     4.04174     0.74475  0.0
    872    873    874    895   5     0.00000     0.00000     0.00000  0.0
    872    873    874    896   5     0.00000     0.00000     0.00000  0.0
    873    874    875    876   5    -5.84086    -1.78657     0.00000  0.0
    873    874    875    897   5     0.00000     0.00000     0.00000  0.0
    895    874    875    876   5     0.00000     0.00000     0.00000  0.0
    895    874    875    897   5     0.00000     0.00000     0.00000  0.0
    896    874    875    876   5     0.00000     0.00000     0.00000  0.0
    896    874    875    897   5     0.00000     0.00000     0.00000  0.0
    874    875    876    877   5     0.00000    25.47638     0.00000  0.0
    874    875    876    878   5    12.53945    12.88254     0.00000  0.0
    897    875    876    877   5     0.00000    20.50160     0.00000  0.0
    897    875    876    878   5     0.00000    20.50160     0.00000  0.0
    875    876    878    879   5    11.69428    -0.66526    -1.56900  0.0
    875    876    878    898   5     0.00000     0.00000     0.00000  0.0
    875    876    878    899   5     0.00000     0.00000     0.00000  0.0
    877    876    878    879   5     0.00000     2.52295     0.00000  0.0
    877    876    878    898   5     0.00000     0.00000     0.00000  0.0
    877    876    878    899   5     0.00000     0.00000     0.00000  0.0
    876    878    879    880   5    -8.00818    -1.52298     2.46438  0.0
    876    878    879    900   5     0.00000     0.00000    -0.94140  0.0
    876    878    879    901   5     0.00000     0.00000    -0.94140  0.0
    898    878    879    880   5     0.00000     0.00000     1.25520  0.0
    898    878    879    900   5     0.00000     0.00000     1.25520  0.0
    898    878    879    901   5     0.00000     0.00000     1.25520  0.0
    899    878    879    880   5     0.00000     0.00000     1.25520  0.0
    899    878    879    900   5     0.00000     0.00000     1.25520  0.0
    899    878    879    901   5     0.00000     0.00000     1.25520  0.0
    878    879    880    881   5     4.74884    -0.63178     1.67360  0.0
    878    879    880    902   5     0.00000     0.00000     1.25520  0.0
    878    879    880    903   5     0.00000     0.00000     1.25520  0.0
    900    879    880    881   5     0.00000     0.00000     1.25520  0.0
    900    879    880    902   5     0.00000     0.00000     1.25520  0.0
    900    879    880    903   5     0.00000     0.00000     1.25520  0.0
    901    879    880    881   5     0.00000     0.00000     1.25520  0.0
    901    879    880    902   5     0.00000     0.00000     1.25520  0.0
    901    879    880    903   5     0.00000     0.00000     1.25520  0.0
    879    880    881    882   5     4.74884    -0.63178     1.67360  0.0
    879    880    881    904   5     0.00000     0.00000     1.25520  0.0
    879    880    881    905   5     0.00000     0.00000     1.25520  0.0
    902    880    881    882   5     0.00000     0.00000     1.25520  0.0
    902    880    881    904   5     0.00000     0.00000     1.25520  0.0
    902    880    881    905   5     0.00000     0.00000     1.25520  0.0
    903    880    881    882   5     0.00000     0.00000     1.25520  0.0
    903    880    881    904   5     0.00000     0.00000     1.25520  0.0
    903    880    881    905   5     0.00000     0.00000     1.25520  0.0
    880    881    882    883   5     4.74884    -0.63178     1.67360  0.0
    880    881    882    906   5     0.00000     0.00000     1.25520  0.0
    880    881    882    907   5     0.00000     0.00000     1.25520  0.0
    904    881    882    883   5     0.00000     0.00000     1.25520  0.0
    904    881    882    906   5     0.00000     0.00000     1.25520  0.0
    904    881    882    907   5     0.00000     0.00000     1.25520  0.0
    905    881    882    883   5     0.00000     0.00000     1.25520  0.0
    905    881    882    906   5     0.00000     0.00000     1.25520  0.0
    905    881    882    907   5     0.00000     0.00000     1.25520  0.0
    881    882    883    884   5     4.74884    -0.63178     1.67360  0.0
    881    882    883    908   5     0.00000     0.00000     1.25520  0.0
    881    882    883    909   5     0.00000     0.00000     1.25520  0.0
    906    882    883    884   5     0.00000     0.00000     1.25520  0.0
    906    882    883    908   5     0.00000     0.00000     1.25520  0.0
    906    882    883    909   5     0.00000     0.00000     1.25520  0.0
    907    882    883    884   5     0.00000     0.00000     1.25520  0.0
    907    882    883    908   5     0.00000     0.00000     1.25520  0.0
    907    882    883    909   5     0.00000     0.00000     1.25520  0.0
    882    883    884    885   5     4.74884    -0.63178     1.67360  0.0
    882    883    884    910   5     0.00000     0.00000     1.25520  0.0
    882    883    884    911   5     0.00000     0.00000     1.25520  0.0
    908    883    884    885   5     0.00000     0.00000     1.25520  0.0
    908    883    884    910   5     0.00000     0.00000     1.25520  0.0
    908    883    884    911   5     0.00000     0.00000     1.25520  0.0
    909    883    884    885   5     0.00000     0.00000     1.25520  0.0
    909    883    884    910   5     0.00000     0.00000     1.25520  0.0
    909    883    884    911   5     0.00000     0.00000     1.25520  0.0
    883    884    885    886   5    -8.00818    -1.52298     2.46438  0.0
    883    884    885    912   5     0.00000     0.00000     1.25520  0.0
    883    884    885    913   5     0.00000     0.00000     1.25520  0.0
    910    884    885    886   5     0.00000     0.00000    -0.94140  0.0
    910    884    885    912   5     0.00000     0.00000     1.25520  0.0
    910    884    885    913   5     0.00000     0.00000     1.25520  0.0
    911    884    885    886   5     0.00000     0.00000    -0.94140  0.0
    911    884    885    912   5     0.00000     0.00000     1.25520  0.0
    911    884    885    913   5     0.00000     0.00000     1.25520  0.0
    884    885    886    887   5     0.00000     2.52295     0.00000  0.0
    884    885    886    914   5    11.69428    -0.66526    -1.56900  0.0
    912    885    886    887   5     0.00000     0.00000     0.00000  0.0
    912    885    886    914   5     0.00000     0.00000     0.00000  0.0
    913    885    886    887   5     0.00000     0.00000     0.00000  0.0
    913    885    886    914   5     0.00000     0.00000     0.00000  0.0
    885    886    914    915   5    12.53945    12.88254     0.00000  0.0
    885    886    914    936   5     0.00000    20.50160     0.00000  0.0
    887    886    914    915   5     0.00000    25.47638     0.00000  0.0
    887    886    914    936   5     0.00000    20.50160     0.00000  0.0
    886    914    915    916   5    -5.84086    -1.78657     0.00000  0.0
    886    914    915    937   5     0.00000     0.00000     0.00000  0.0
    886    914    915    938   5     0.00000     0.00000     0.00000  0.0
    936    914    915    916   5     0.00000     0.00000     0.00000  0.0
    936    914    915    937   5     0.00000     0.00000     0.00000  0.0
    936    914    915    938   5     0.00000     0.00000     0.00000  0.0
    914    915    916    917   5    -2.05016     4.04174     0.74475  0.0
    914    915    916    921   5    -2.05016     4.04174     0.74475  0.0
    937    915    916    917   5     0.00000     0.00000     0.00000  0.0
    937    915    916    921   5     0.00000     0.00000     0.00000  0.0
    938    915    916    917   5     0.00000     0.00000     0.00000  0.0
    938    915    916    921   5     0.00000     0.00000     0.00000  0.0
    915    916    917    918   5     0.00000    30.33400     0.00000  0.0
    915    916    917    939   5     0.00000    30.33400     0.00000  0.0
    921    916    917    918   5     0.00000    30.33400     0.00000  0.0
    921    916    917    939   5     0.00000    30.33400     0.00000  0.0
    915    916    921    920   5     0.00000    30.33400     0.00000  0.0
    915    916    921    922   5     0.00000    30.33400     0.00000  0.0
    917    916    921    920   5     0.00000    30.33400     0.00000  0.0
    917    916    921    922   5     0.00000    30.33400     0.00000  0.0
    916    917    918    919   5     0.00000    30.33400     0.00000  0.0
    916    917    918    940   5     0.00000    30.33400     0.00000  0.0
    939    917    918    919   5     0.00000    30.33400     0.00000  0.0
    939    917    918    940   5     0.00000    30.33400     0.00000  0.0
    917    918    919    920   5     0.00000    30.33400     0.00000  0.0
    917    918    919    941   5     0.00000    30.33400     0.00000  0.0
    940    918    919    920   5     0.00000    30.33400     0.00000  0.0
    940    918    919    941   5     0.00000    30.33400     0.00000  0.0
    918    919    920    921   5     0.00000    30.33400     0.00000  0.0
    918    919    920    942   5     0.00000    30.33400     0.00000  0.0
    941    919    920    921   5     0.00000    30.33400     0.00000  0.0
    941    919    920    942   5     0.00000    30.33400     0.00000  0.0
    919    920    921    916   5     0.00000    30.33400     0.00000  0.0
    919    920    921    922   5     0.00000    30.33400     0.00000  0.0
    942    920    921    916   5     0.00000    30.33400     0.00000  0.0
    942    920    921    922   5     0.00000    30.33400     0.00000  0.0
    916    921    922    923   5    -2.05016     4.04174     0.74475  0.0
    916    921    922    943   5     0.00000     0.00000     0.00000  0.0
    916    921    922    944   5     0.00000     0.00000     0.00000  0.0
    920    921    922    923   5    -2.05016     4.04174     0.74475  0.0
    920    921    922    943   5     0.00000     0.00000     0.00000  0.0
    920    921    922    944   5     0.00000     0.00000     0.00000  0.0
    921    922    923    924   5    -5.84086    -1.78657     0.00000  0.0
    921    922    923    945   5     0.00000     0.00000     0.00000  0.0
    943    922    923    924   5     0.00000     0.00000     0.00000  0.0
    943    922    923    945   5     0.00000     0.00000     0.00000  0.0
    944    922    923    924   5     0.00000     0.00000     0.00000  0.0
    944    922    923    945   5     0.00000     0.00000     0.00000  0.0
    922    923    924    925   5     0.00000    25.47638     0.00000  0.0
    922    923    924    926   5    12.53945    12.88254     0.00000  0.0
    945    923    924    925   5     0.00000    20.50160     0.00000  0.0
    945    923    924    926   5     0.00000    20.50160     0.00000  0.0
    923    924    926    927   5    11.69428    -0.66526    -1.56900  0.0
    923    924    926    946   5     0.00000     0.00000     0.00000  0.0
    923    924    926    947   5     0.00000     0.00000     0.00000  0.0
    925    924    926    927   5     0.00000     2.52295     0.00000  0.0
    925    924    926    946   5     0.00000     0.00000     0.00000  0.0
    925    924    926    947   5     0.00000     0.00000     0.00000  0.0
    924    926    927    928   5    -8.00818    -1.52298     2.46438  0.0
    924    926    927    948   5     0.00000     0.00000    -0.94140  0.0
    924    926    927    949   5     0.00000     0.00000    -0.94140  0.0
    946    926    927    928   5     0.00000     0.00000     1.25520  0.0
    946    926    927    948   5     0.00000     0.00000     1.25520  0.0
    946    926    927    949   5     0.00000     0.00000     1.25520  0.0
    947    926    927    928   5     0.00000     0.00000     1.25520  0.0
    947    926    927    948   5     0.00000     0.00000     1.25520  0.0
    947    926    927    949   5     0.00000     0.00000     1.25520  0.0
    926    927    928    929   5     4.74884    -0.63178     1.67360  0.0
    926    927    928    950   5     0.00000     0.00000     1.25520  0.0
    926    927    928    951   5     0.00000     0.00000     1.25520  0.0
    948    927    928    929   5     0.00000     0.00000     1.25520  0.0
    948    927    928    950   5     0.00000     0.00000     1.25520  0.0
    948    927    928    951   5     0.00000     0.00000     1.25520  0.0
    949    927    928    929   5     0.00000     0.00000     1.25520  0.0
    949    927    928    950   5     0.00000     0.00000     1.25520  0.0
    949    927    928    951   5     0.00000     0.00000     1.25520  0.0
    927    928    929    930   5     4.74884    -0.63178     1.67360  0.0
    927    928    929    952   5     0.00000     0.00000     1.25520  0.0
    927    928    929    953   5     0.00000     0.00000     1.25520  0.0
    950    928    929    930   5     0.00000     0.00000     1.25520  0.0
    950    928    929    952   5     0.00000     0.00000     1.25520  0.0
    950    928    929    953   5     0.00000     0.00000     1.25520  0.0
    951    928    929    930   5     0.00000     0.00000     1.25520  0.0
    951    928    929    952   5     0.00000     0.00000     1.25520  0.0
    951    928    929    953   5     0.00000     0.00000     1.25520  0.0
    928    929    930    931   5     4.74884    -0.63178     1.67360  0.0
    928    929    930    954   5     0.00000     0.00000     1.25520  0.0
    928    929    930    955   5     0.00000     0.00000     1.25520  0.0
    952    929    930    931   5     0.00000     0.00000     1.25520  0.0
    952    929    930    954   5     0.00000     0.00000     1.25520  0.0
    952    929    930    955   5     0.00000     0.00000     1.25520  0.0
    953    929    930    931   5     0.00000     0.00000     1.25520  0.0
    953    929    930    954   5     0.00000     0.00000     1.25520  0.0
    953    929    930    955   5     0.00000     0.00000     1.25520  0.0
    929    930    931    932   5     4.74884    -0.63178     1.67360  0.0
    929    930    931    956   5     0.00000     0.00000     1.25520  0.0
    929    930    931    957   5     0.00000     0.00000     1.25520  0.0
    954    930    931    932   5     0.00000     0.00000     1.25520  0.0
    954    930    931    956   5     0.00000     0.00000     1.25520  0.0
    954    930    931    957   5     0.00000     0.00000     1.25520  0.0
    955    930    931    932   5     0.00000     0.00000     1.25520  0.0
    955    930    931    956   5     0.00000     0.00000     1.25520  0.0
    955    930    931    957   5     0.00000     0.00000     1.25520  0.0
    930    931    932    933   5     4.74884    -0.63178     1.67360  0.0
    930    931    932    958   5     0.00000     0.00000     1.25520  0.0
    930    931    932    959   5     0.00000     0.00000     1.25520  0.0
    956    931    932    933   5     0.00000     0.00000     1.25520  0.0
    956    931    932    958   5     0.00000     0.00000     1.25520  0.0
    956    931    932    959   5     0.00000     0.00000     1.25520  0.0
    957    931    932    933   5     0.00000     0.00000     1.25520  0.0
    957    931    932    958   5     0.00000     0.00000     1.25520  0.0
    957    931    932    959   5     0.00000     0.00000     1.25520  0.0
    931    932    933    934   5    -8.00818    -1.52298     2.46438  0.0
    931    932    933    960   5     0.00000     0.00000     1.25520  0.0
    931    932    933    961   5     0.00000     0.00000     1.25520  0.0
    958    932    933    934   5     0.00000     0.00000    -0.94140  0.0
    958    932    933    960   5     0.00000     0.00000     1.25520  0.0
    958    932    933    961   5     0.00000     0.00000     1.25520  0.0
    959    932    933    934   5     0.00000     0.00000    -0.94140  0.0
    959    932    933    960   5     0.00000     0.00000     1.25520  0.0
    959    932    933    961   5     0.00000     0.00000     1.25520  0.0
    932    933    934    935   5     0.00000     2.52295     0.00000  0.0
    932    933    934    962   5     6.23834    -0.04184     0.00000  0.0
    960    933    934    935   5     0.00000     0.00000     0.00000  0.0
    960    933    934    962   5     0.00000     0.00000     0.00000  0.0
    961    933    934    935   5     0.00000     0.00000     0.00000  0.0
    961    933    934    962   5     0.00000     0.00000     0.00000  0.0

[ dihedrals ]
; Improper dihedrals
; h   i   j   k   funct
      2      4      3      8   5     0.00000    33.47200     0.00000  0.0
      3      5      4     26   5     0.00000     9.20480     0.00000  0.0
      4      6      5     27   5     0.00000     9.20480     0.00000  0.0
      5      7      6     28   5     0.00000     9.20480     0.00000  0.0
      6      8      7     29   5     0.00000     9.20480     0.00000  0.0
      3      7      8      9   5     0.00000    33.47200     0.00000  0.0
      9     11     10     32   5     0.00000     8.36800     0.00000  0.0
     10     12     11     13   5     0.00000    87.86400     0.00000  0.0
     20     22     21     50   5     0.00000    87.86400     0.00000  0.0
     21     51     50     72   5     0.00000     8.36800     0.00000  0.0
     51     53     52     57   5     0.00000    33.47200     0.00000  0.0
     52     54     53     75   5     0.00000     9.20480     0.00000  0.0
     53     55     54     76   5     0.00000     9.20480     0.00000  0.0
     54     56     55     77   5     0.00000     9.20480     0.00000  0.0
     55     57     56     78   5     0.00000     9.20480     0.00000  0.0
     52     56     57     58   5     0.00000    33.47200     0.00000  0.0
     58     60     59     81   5     0.00000     8.36800     0.00000  0.0
     59     61     60     62   5     0.00000    87.86400     0.00000  0.0
     69     71     70     98   5     0.00000    87.86400     0.00000  0.0
     70     99     98    120   5     0.00000     8.36800     0.00000  0.0
     99    101    100    105   5     0.00000    33.47200     0.00000  0.0
    100    102    101    123   5     0.00000     9.20480     0.00000  0.0
    101    103    102    124   5     0.00000     9.20480     0.00000  0.0
    102    104    103    125   5     0.00000     9.20480     0.00000  0.0
    103    105    104    126   5     0.00000     9.20480     0.00000  0.0
    100    104    105    106   5     0.00000    33.47200     0.00000  0.0
    106    108    107    129   5     0.00000     8.36800     0.00000  0.0
    107    109    108    110   5     0.00000    87.86400     0.00000  0.0
    117    119    118    146   5     0.00000    87.86400     0.00000  0.0
    118    147    146    168   5     0.00000     8.36800     0.00000  0.0
    147    149    148    153   5     0.00000    33.47200     0.00000  0.0
    148    150    149    171   5     0.00000     9.20480     0.00000  0.0
    149    151    150    172   5     0.00000     9.20480     0.00000  0.0
    150    152    151    173   5     0.00000     9.20480     0.00000  0.0
    151    153    152    174   5     0.00000     9.20480     0.00000  0.0
    148    152    153    154   5     0.00000    33.47200     0.00000  0.0
    154    156    155    177   5     0.00000     8.36800     0.00000  0.0
    155    157    156    158   5     0.00000    87.86400     0.00000  0.0
    165    167    166    194   5     0.00000    87.86400     0.00000  0.0
    166    195    194    216   5     0.00000     8.36800     0.00000  0.0
    195    197    196    201   5     0.00000    33.47200     0.00000  0.0
    196    198    197    219   5     0.00000     9.20480     0.00000  0.0
    197    199    198    220   5     0.00000     9.20480     0.00000  0.0
    198    200    199    221   5     0.00000     9.20480     0.00000  0.0
    199    201    200    222   5     0.00000     9.20480     0.00000  0.0
    196    200    201    202   5     0.00000    33.47200     0.00000  0.0
    202    204    203    225   5     0.00000     8.36800     0.00000  0.0
    203    205    204    206   5     0.00000    87.86400     0.00000  0.0
    213    215    214    242   5     0.00000    87.86400     0.00000  0.0
    214    243    242    264   5     0.00000     8.36800     0.00000  0.0
    243    245    244    249   5     0.00000    33.47200     0.00000  0.0
    244    246    245    267   5     0.00000     9.20480     0.00000  0.0
    245    247    246    268   5     0.00000     9.20480     0.00000  0.0
    246    248    247    269   5     0.00000     9.20480     0.00000  0.0
    247    249    248    270   5     0.00000     9.20480     0.00000  0.0
    244    248    249    250   5     0.00000    33.47200     0.00000  0.0
    250    252    251    273   5     0.00000     8.36800     0.00000  0.0
    251    253    252    254   5     0.00000    87.86400     0.00000  0.0
    261    263    262    290   5     0.00000    87.86400     0.00000  0.0
    262    291    290    312   5     0.00000     8.36800     0.00000  0.0
    291    293    292    297   5     0.00000    33.47200     0.00000  0.0
    292    294    293    315   5     0.00000     9.20480     0.00000  0.0
    293    295    294    316   5     0.00000     9.20480     0.00000  0.0
    294    296    295    317   5     0.00000     9.20480     0.00000  0.0
    295    297    296    318   5     0.00000     9.20480     0.00000  0.0
    292    296    297    298   5     0.00000    33.47200     0.00000  0.0
    298    300    299    321   5     0.00000     8.36800     0.00000  0.0
    299    301    300    302   5     0.00000    87.86400     0.00000  0.0
    309    311    310    338   5     0.00000    87.86400     0.00000  0.0
    310    339    338    360   5     0.00000     8.36800     0.00000  0.0
    339    341    340    345   5     0.00000    33.47200     0.00000  0.0
    340    342    341    363   5     0.00000     9.20480     0.00000  0.0
    341    343    342    364   5     0.00000     9.20480     0.00000  0.0
    342    344    343    365   5     0.00000     9.20480     0.00000  0.0
    343    345    344    366   5     0.00000     9.20480     0.00000  0.0
    340    344    345    346   5     0.00000    33.47200     0.00000  0.0
    346    348    347    369   5     0.00000     8.36800     0.00000  0.0
    347    349    348    350   5     0.00000    87.86400     0.00000  0.0
    357    359    358    386   5     0.00000    87.86400     0.00000  0.0
    358    387    386    408   5     0.00000     8.36800     0.00000  0.0
    387    389    388    393   5     0.00000    33.47200     0.00000  0.0
    388    390    389    411   5     0.00000     9.20480     0.00000  0.0
    389    391    390    412   5     0.00000     9.20480     0.00000  0.0
    390    392    391    413   5     0.00000     9.20480     0.00000  0.0
    391    393    392    414   5     0.00000     9.20480     0.00000  0.0
    388    392    393    394   5     0.00000    33.47200     0.00000  0.0
    394    396    395    417   5     0.00000     8.36800     0.00000  0.0
    395    397    396    398   5     0.00000    87.86400     0.00000  0.0
    405    407    406    434   5     0.00000    87.86400     0.00000  0.0
    406    435    434    456   5     0.00000     8.36800     0.00000  0.0
    435    437    436    441   5     0.00000    33.47200     0.00000  0.0
    436    438    437    459   5     0.00000     9.20480     0.00000  0.0
    437    439    438    460   5     0.00000     9.20480     0.00000  0.0
    438    440    439    461   5     0.00000     9.20480     0.00000  0.0
    439    441    440    462   5     0.00000     9.20480     0.00000  0.0
    436    440    441    442   5     0.00000    33.47200     0.00000  0.0
    442    444    443    465   5     0.00000     8.36800     0.00000  0.0
    443    445    444    446   5     0.00000    87.86400     0.00000  0.0
    453    455    454    482   5     0.00000    87.86400     0.00000  0.0
    454    483    482    504   5     0.00000     8.36800     0.00000  0.0
    483    485    484    489   5     0.00000    33.47200     0.00000  0.0
    484    486    485    507   5     0.00000     9.20480     0.00000  0.0
    485    487    486    508   5     0.00000     9.20480     0.00000  0.0
    486    488    487    509   5     0.00000     9.20480     0.00000  0.0
    487    489    488    510   5     0.00000     9.20480     0.00000  0.0
    484    488    489    490   5     0.00000    33.47200     0.00000  0.0
    490    492    491    513   5     0.00000     8.36800     0.00000  0.0
    491    493    492    494   5     0.00000    87.86400     0.00000  0.0
    501    503    502    530   5     0.00000    87.86400     0.00000  0.0
    502    531    530    552   5     0.00000     8.36800     0.00000  0.0
    531    533    532    537   5     0.00000    33.47200     0.00000  0.0
    532    534    533    555   5     0.00000     9.20480     0.00000  0.0
    533    535    534    556   5     0.00000     9.20480     0.00000  0.0
    534    536    535    557   5     0.00000     9.20480     0.00000  0.0
    535    537    536    558   5     0.00000     9.20480     0.00000  0.0
    532    536    537    538   5     0.00000    33.47200     0.00000  0.0
    538    540    539    561   5     0.00000     8.36800     0.00000  0.0
    539    541    540    542   5     0.00000    87.86400     0.00000  0.0
    549    551    550    578   5     0.00000    87.86400     0.00000  0.0
    550    579    578    600   5     0.00000     8.36800     0.00000  0.0
    579    581    580    585   5     0.00000    33.47200     0.00000  0.0
    580    582    581    603   5     0.00000     9.20480     0.00000  0.0
    581    583    582    604   5     0.00000     9.20480     0.00000  0.0
    582    584    583    605   5     0.00000     9.20480     0.00000  0.0
    583    585    584    606   5     0.00000     9.20480     0.00000  0.0
    580    584    585    586   5     0.00000    33.47200     0.00000  0.0
    586    588    587    609   5     0.00000     8.36800     0.00000  0.0
    587    589    588    590   5     0.00000    87.86400     0.00000  0.0
    597    599    598    626   5     0.00000    87.86400     0.00000  0.0
    598    627    626    648   5     0.00000     8.36800     0.00000  0.0
    627    629    628    633   5     0.00000    33.47200     0.00000  0.0
    628    630    629    651   5     0.00000     9.20480     0.00000  0.0
    629    631    630    652   5     0.00000     9.20480     0.00000  0.0
    630    632    631    653   5     0.00000     9.20480     0.00000  0.0
    631    633    632    654   5     0.00000     9.20480     0.00000  0.0
    628    632    633    634   5     0.00000    33.47200     0.00000  0.0
    634    636    635    657   5     0.00000     8.36800     0.00000  0.0
    635    637    636    638   5     0.00000    87.86400     0.00000  0.0
    645    647    646    674   5     0.00000    87.86400     0.00000  0.0
    646    675    674    696   5     0.00000     8.36800     0.00000  0.0
    675    677    676    681   5     0.00000    33.47200     0.00000  0.0
    676    678    677    699   5     0.00000     9.20480     0.00000  0.0
    677    679    678    700   5     0.00000     9.20480     0.00000  0.0
    678    680    679    701   5     0.00000     9.20480     0.00000  0.0
    679    681    680    702   5     0.00000     9.20480     0.00000  0.0
    676    680    681    682   5     0.00000    33.47200     0.00000  0.0
    682    684    683    705   5     0.00000     8.36800     0.00000  0.0
    683    685    684    686   5     0.00000    87.86400     0.00000  0.0
    693    695    694    722   5     0.00000    87.86400     0.00000  0.0
    694    723    722    744   5     0.00000     8.36800     0.00000  0.0
    723    725    724    729   5     0.00000    33.47200     0.00000  0.0
    724    726    725    747   5     0.00000     9.20480     0.00000  0.0
    725    727    726    748   5     0.00000     9.20480     0.00000  0.0
    726    728    727    749   5     0.00000     9.20480     0.00000  0.0
    727    729    728    750   5     0.00000     9.20480     0.00000  0.0
    724    728    729    730   5     0.00000    33.47200     0.00000  0.0
    730    732    731    753   5     0.00000     8.36800     0.00000  0.0
    731    733    732    734   5     0.00000    87.86400     0.00000  0.0
    741    743    742    770   5     0.00000    87.86400     0.00000  0.0
    742    771    770    792   5     0.00000     8.36800     0.00000  0.0
    771    773    772    777   5     0.00000    33.47200     0.00000  0.0
    772    774    773    795   5     0.00000     9.20480     0.00000  0.0
    773    775    774    796   5     0.00000     9.20480     0.00000  0.0
    774    776    775    797   5     0.00000     9.20480     0.00000  0.0
    775    777    776    798   5     0.00000     9.20480     0.00000  0.0
    772    776    777    778   5     0.00000    33.47200     0.00000  0.0
    778    780    779    801   5     0.00000     8.36800     0.00000  0.0
    779    781    780    782   5     0.00000    87.86400     0.00000  0.0
    789    791    790    818   5     0.00000    87.86400     0.00000  0.0
    790    819    818    840   5     0.00000     8.36800     0.00000  0.0
    819    821    820    825   5     0.00000    33.47200     0.00000  0.0
    820    822    821    843   5     0.00000     9.20480     0.00000  0.0
    821    823    822    844   5     0.00000     9.20480     0.00000  0.0
    822    824    823    845   5     0.00000     9.20480     0.00000  0.0
    823    825    824    846   5     0.00000     9.20480     0.00000  0.0
    820    824    825    826   5     0.00000    33.47200     0.00000  0.0
    826    828    827    849   5     0.00000     8.36800     0.00000  0.0
    827    829    828    830   5     0.00000    87.86400     0.00000  0.0
    837    839    838    866   5     0.00000    87.86400     0.00000  0.0
    838    867    866    888   5     0.00000     8.36800     0.00000  0.0
    867    869    868    873   5     0.00000    33.47200     0.00000  0.0
    868    870    869    891   5     0.00000     9.20480     0.00000  0.0
    869    871    870    892   5     0.00000     9.20480     0.00000  0.0
    870    872    871    893   5     0.00000     9.20480     0.00000  0.0
    871    873    872    894   5     0.00000     9.20480     0.00000  0.0
    868    872    873    874   5     0.00000    33.47200     0.00000  0.0
    874    876    875    897   5     0.00000     8.36800     0.00000  0.0
    875    877    876    878   5     0.00000    87.86400     0.00000  0.0
    885    887    886    914   5     0.00000    87.86400     0.00000  0.0
    886    915    914    936   5     0.00000     8.36800     0.00000  0.0
    915    917    916    921   5     0.00000    33.47200     0.00000  0.0
    916    918    917    939   5     0.00000     9.20480     0.00000  0.0
    917    919    918    940   5     0.00000     9.20480     0.00000  0.0
    918    920    919    941   5     0.00000     9.20480     0.00000  0.0
    919    921    920    942   5     0.00000     9.20480     0.00000  0.0
    916    920    921    922   5     0.00000    33.47200     0.00000  0.0
    922    924    923    945   5     0.00000     8.36800     0.00000  0.0
    923    925    924    926   5     0.00000    87.86400     0.00000  0.0
    933    935    934    962   5     0.00000    87.86400     0.00000  0.0
