;
; Gromacs include topology (itp) file.
; For Molecular Group XYZ
; Force field scheme: opls2005
; Produced from DL_FIELD v4.11
;


[ moleculetype ]
; name    nrexcl
XYZ    3

[ atoms ]
; nr   type   resnr   residu    atom    cgnr    charge    mass
    1        CT    1  MOL      C1     1  -0.1200000   12.0115
    2       CO4    1  MOL      C2     2   0.4700000   12.0115
    3         O    1  MOL      O3     3  -0.4700000   15.9994
    4        CT    1  MOL      C4     4  -0.1800000   12.0115
    5        CT    1  MOL      C5     5  -0.1200000   12.0115
    6       HAE    1  MOL      H6     6   0.0600000    1.0080
    7       HAE    1  MOL      H7     7   0.0600000    1.0080
    8       HAE    1  MOL      H8     8   0.0600000    1.0080
    9       HAE    1  MOL      H9     9   0.0600000    1.0080
   10        HC    1  MOL     H10    10   0.0600000    1.0080
   11        HC    1  MOL     H11    11   0.0600000    1.0080
   12       HAE    1  MOL     H12    12   0.0600000    1.0080
   13        CT    1  MOL     C13    13  -0.0600000   12.0115
   14       CO4    1  MOL     C14    14   0.4700000   12.0115
   15         O    1  MOL     O15    15  -0.4700000   15.9994
   16        CT    1  MOL     C16    16  -0.1800000   12.0115
   17        CT    1  MOL     C17    17  -0.1200000   12.0115
   18       HAE    1  MOL     H18    18   0.0600000    1.0080
   19       HAE    1  MOL     H19    19   0.0600000    1.0080
   20       HAE    1  MOL     H20    20   0.0600000    1.0080
   21       HAE    1  MOL     H21    21   0.0600000    1.0080
   22        HC    1  MOL     H22    22   0.0600000    1.0080
   23        HC    1  MOL     H23    23   0.0600000    1.0080
   24        CT    1  MOL     C24    24  -0.0600000   12.0115
   25       CO4    1  MOL     C25    25   0.4700000   12.0115
   26         O    1  MOL     O26    26  -0.4700000   15.9994
   27        CT    1  MOL     C27    27  -0.1800000   12.0115
   28        CT    1  MOL     C28    28  -0.1200000   12.0115
   29       HAE    1  MOL     H29    29   0.0600000    1.0080
   30       HAE    1  MOL     H30    30   0.0600000    1.0080
   31       HAE    1  MOL     H31    31   0.0600000    1.0080
   32       HAE    1  MOL     H32    32   0.0600000    1.0080
   33        HC    1  MOL     H33    33   0.0600000    1.0080
   34        HC    1  MOL     H34    34   0.0600000    1.0080
   35        CT    1  MOL     C35    35  -0.0600000   12.0115
   36       CO4    1  MOL     C36    36   0.4700000   12.0115
   37         O    1  MOL     O37    37  -0.4700000   15.9994
   38        CT    1  MOL     C38    38  -0.1800000   12.0115
   39        CT    1  MOL     C39    39  -0.1200000   12.0115
   40       HAE    1  MOL     H40    40   0.0600000    1.0080
   41       HAE    1  MOL     H41    41   0.0600000    1.0080
   42       HAE    1  MOL     H42    42   0.0600000    1.0080
   43       HAE    1  MOL     H43    43   0.0600000    1.0080
   44        HC    1  MOL     H44    44   0.0600000    1.0080
   45        HC    1  MOL     H45    45   0.0600000    1.0080
   46        CT    1  MOL     C46    46  -0.0600000   12.0115
   47       CO4    1  MOL     C47    47   0.4700000   12.0115
   48         O    1  MOL     O48    48  -0.4700000   15.9994
   49        CT    1  MOL     C49    49  -0.1800000   12.0115
   50        CT    1  MOL     C50    50  -0.1200000   12.0115
   51       HAE    1  MOL     H51    51   0.0600000    1.0080
   52       HAE    1  MOL     H52    52   0.0600000    1.0080
   53       HAE    1  MOL     H53    53   0.0600000    1.0080
   54       HAE    1  MOL     H54    54   0.0600000    1.0080
   55        HC    1  MOL     H55    55   0.0600000    1.0080
   56        HC    1  MOL     H56    56   0.0600000    1.0080
   57        CT    1  MOL     C57    57  -0.0600000   12.0115
   58       CO4    1  MOL     C58    58   0.4700000   12.0115
   59         O    1  MOL     O59    59  -0.4700000   15.9994
   60        CT    1  MOL     C60    60  -0.1800000   12.0115
   61        CT    1  MOL     C61    61  -0.1200000   12.0115
   62       HAE    1  MOL     H62    62   0.0600000    1.0080
   63       HAE    1  MOL     H63    63   0.0600000    1.0080
   64       HAE    1  MOL     H64    64   0.0600000    1.0080
   65       HAE    1  MOL     H65    65   0.0600000    1.0080
   66        HC    1  MOL     H66    66   0.0600000    1.0080
   67        HC    1  MOL     H67    67   0.0600000    1.0080
   68        CT    1  MOL     C68    68  -0.0600000   12.0115
   69       CO4    1  MOL     C69    69   0.4700000   12.0115
   70         O    1  MOL     O70    70  -0.4700000   15.9994
   71        CT    1  MOL     C71    71  -0.1800000   12.0115
   72        CT    1  MOL     C72    72  -0.1200000   12.0115
   73       HAE    1  MOL     H73    73   0.0600000    1.0080
   74       HAE    1  MOL     H74    74   0.0600000    1.0080
   75       HAE    1  MOL     H75    75   0.0600000    1.0080
   76       HAE    1  MOL     H76    76   0.0600000    1.0080
   77        HC    1  MOL     H77    77   0.0600000    1.0080
   78        HC    1  MOL     H78    78   0.0600000    1.0080
   79        CT    1  MOL     C79    79  -0.0600000   12.0115
   80       CO4    1  MOL     C80    80   0.4700000   12.0115
   81         O    1  MOL     O81    81  -0.4700000   15.9994
   82        CT    1  MOL     C82    82  -0.1800000   12.0115
   83        CT    1  MOL     C83    83  -0.1200000   12.0115
   84       HAE    1  MOL     H84    84   0.0600000    1.0080
   85       HAE    1  MOL     H85    85   0.0600000    1.0080
   86       HAE    1  MOL     H86    86   0.0600000    1.0080
   87       HAE    1  MOL     H87    87   0.0600000    1.0080
   88        HC    1  MOL     H88    88   0.0600000    1.0080
   89        HC    1  MOL     H89    89   0.0600000    1.0080
   90        CT    1  MOL     C90    90  -0.0600000   12.0115
   91       CO4    1  MOL     C91    91   0.4700000   12.0115
   92         O    1  MOL     O92    92  -0.4700000   15.9994
   93        CT    1  MOL     C93    93  -0.1800000   12.0115
   94        CT    1  MOL     C94    94  -0.1200000   12.0115
   95       HAE    1  MOL     H95    95   0.0600000    1.0080
   96       HAE    1  MOL     H96    96   0.0600000    1.0080
   97       HAE    1  MOL     H97    97   0.0600000    1.0080
   98       HAE    1  MOL     H98    98   0.0600000    1.0080
   99        HC    1  MOL     H99    99   0.0600000    1.0080
  100        HC    1  MOL    H100   100   0.0600000    1.0080
  101        CT    1  MOL    C101   101  -0.0600000   12.0115
  102       CO4    1  MOL    C102   102   0.4700000   12.0115
  103         O    1  MOL    O103   103  -0.4700000   15.9994
  104        CT    1  MOL    C104   104  -0.1800000   12.0115
  105        CT    1  MOL    C105   105  -0.1200000   12.0115
  106       HAE    1  MOL    H106   106   0.0600000    1.0080
  107       HAE    1  MOL    H107   107   0.0600000    1.0080
  108       HAE    1  MOL    H108   108   0.0600000    1.0080
  109       HAE    1  MOL    H109   109   0.0600000    1.0080
  110        HC    1  MOL    H110   110   0.0600000    1.0080
  111        HC    1  MOL    H111   111   0.0600000    1.0080
  112        CT    1  MOL    C112   112  -0.0600000   12.0115
  113       CO4    1  MOL    C113   113   0.4700000   12.0115
  114         O    1  MOL    O114   114  -0.4700000   15.9994
  115        CT    1  MOL    C115   115  -0.1800000   12.0115
  116        CT    1  MOL    C116   116  -0.1200000   12.0115
  117       HAE    1  MOL    H117   117   0.0600000    1.0080
  118       HAE    1  MOL    H118   118   0.0600000    1.0080
  119       HAE    1  MOL    H119   119   0.0600000    1.0080
  120       HAE    1  MOL    H120   120   0.0600000    1.0080
  121        HC    1  MOL    H121   121   0.0600000    1.0080
  122        HC    1  MOL    H122   122   0.0600000    1.0080
  123        CT    1  MOL    C123   123  -0.0600000   12.0115
  124       CO4    1  MOL    C124   124   0.4700000   12.0115
  125         O    1  MOL    O125   125  -0.4700000   15.9994
  126        CT    1  MOL    C126   126  -0.1800000   12.0115
  127        CT    1  MOL    C127   127  -0.1200000   12.0115
  128       HAE    1  MOL    H128   128   0.0600000    1.0080
  129       HAE    1  MOL    H129   129   0.0600000    1.0080
  130       HAE    1  MOL    H130   130   0.0600000    1.0080
  131       HAE    1  MOL    H131   131   0.0600000    1.0080
  132        HC    1  MOL    H132   132   0.0600000    1.0080
  133        HC    1  MOL    H133   133   0.0600000    1.0080
  134        CT    1  MOL    C134   134  -0.0600000   12.0115
  135       CO4    1  MOL    C135   135   0.4700000   12.0115
  136         O    1  MOL    O136   136  -0.4700000   15.9994
  137        CT    1  MOL    C137   137  -0.1800000   12.0115
  138        CT    1  MOL    C138   138  -0.1200000   12.0115
  139       HAE    1  MOL    H139   139   0.0600000    1.0080
  140       HAE    1  MOL    H140   140   0.0600000    1.0080
  141       HAE    1  MOL    H141   141   0.0600000    1.0080
  142       HAE    1  MOL    H142   142   0.0600000    1.0080
  143        HC    1  MOL    H143   143   0.0600000    1.0080
  144        HC    1  MOL    H144   144   0.0600000    1.0080
  145        CT    1  MOL    C145   145  -0.0600000   12.0115
  146       CO4    1  MOL    C146   146   0.4700000   12.0115
  147         O    1  MOL    O147   147  -0.4700000   15.9994
  148        CT    1  MOL    C148   148  -0.1800000   12.0115
  149        CT    1  MOL    C149   149  -0.1200000   12.0115
  150       HAE    1  MOL    H150   150   0.0600000    1.0080
  151       HAE    1  MOL    H151   151   0.0600000    1.0080
  152       HAE    1  MOL    H152   152   0.0600000    1.0080
  153       HAE    1  MOL    H153   153   0.0600000    1.0080
  154        HC    1  MOL    H154   154   0.0600000    1.0080
  155        HC    1  MOL    H155   155   0.0600000    1.0080
  156        CT    1  MOL    C156   156  -0.0600000   12.0115
  157       CO4    1  MOL    C157   157   0.4700000   12.0115
  158         O    1  MOL    O158   158  -0.4700000   15.9994
  159        CT    1  MOL    C159   159  -0.1800000   12.0115
  160        CT    1  MOL    C160   160  -0.1200000   12.0115
  161       HAE    1  MOL    H161   161   0.0600000    1.0080
  162       HAE    1  MOL    H162   162   0.0600000    1.0080
  163       HAE    1  MOL    H163   163   0.0600000    1.0080
  164       HAE    1  MOL    H164   164   0.0600000    1.0080
  165        HC    1  MOL    H165   165   0.0600000    1.0080
  166        HC    1  MOL    H166   166   0.0600000    1.0080
  167        CT    1  MOL    C167   167  -0.0600000   12.0115
  168       CO4    1  MOL    C168   168   0.4700000   12.0115
  169         O    1  MOL    O169   169  -0.4700000   15.9994
  170        CT    1  MOL    C170   170  -0.1800000   12.0115
  171        CT    1  MOL    C171   171  -0.1200000   12.0115
  172       HAE    1  MOL    H172   172   0.0600000    1.0080
  173       HAE    1  MOL    H173   173   0.0600000    1.0080
  174       HAE    1  MOL    H174   174   0.0600000    1.0080
  175       HAE    1  MOL    H175   175   0.0600000    1.0080
  176        HC    1  MOL    H176   176   0.0600000    1.0080
  177        HC    1  MOL    H177   177   0.0600000    1.0080
  178        CT    1  MOL    C178   178  -0.0600000   12.0115
  179       CO4    1  MOL    C179   179   0.4700000   12.0115
  180         O    1  MOL    O180   180  -0.4700000   15.9994
  181        CT    1  MOL    C181   181  -0.1800000   12.0115
  182        CT    1  MOL    C182   182  -0.1200000   12.0115
  183       HAE    1  MOL    H183   183   0.0600000    1.0080
  184       HAE    1  MOL    H184   184   0.0600000    1.0080
  185       HAE    1  MOL    H185   185   0.0600000    1.0080
  186       HAE    1  MOL    H186   186   0.0600000    1.0080
  187        HC    1  MOL    H187   187   0.0600000    1.0080
  188        HC    1  MOL    H188   188   0.0600000    1.0080
  189        CT    1  MOL    C189   189  -0.0600000   12.0115
  190       CO4    1  MOL    C190   190   0.4700000   12.0115
  191         O    1  MOL    O191   191  -0.4700000   15.9994
  192        CT    1  MOL    C192   192  -0.1800000   12.0115
  193        CT    1  MOL    C193   193  -0.1200000   12.0115
  194       HAE    1  MOL    H194   194   0.0600000    1.0080
  195       HAE    1  MOL    H195   195   0.0600000    1.0080
  196       HAE    1  MOL    H196   196   0.0600000    1.0080
  197       HAE    1  MOL    H197   197   0.0600000    1.0080
  198        HC    1  MOL    H198   198   0.0600000    1.0080
  199        HC    1  MOL    H199   199   0.0600000    1.0080
  200        CT    1  MOL    C200   200  -0.0600000   12.0115
  201       CO4    1  MOL    C201   201   0.4700000   12.0115
  202         O    1  MOL    O202   202  -0.4700000   15.9994
  203        CT    1  MOL    C203   203  -0.1800000   12.0115
  204        CT    1  MOL    C204   204  -0.1200000   12.0115
  205       HAE    1  MOL    H205   205   0.0600000    1.0080
  206       HAE    1  MOL    H206   206   0.0600000    1.0080
  207       HAE    1  MOL    H207   207   0.0600000    1.0080
  208       HAE    1  MOL    H208   208   0.0600000    1.0080
  209        HC    1  MOL    H209   209   0.0600000    1.0080
  210        HC    1  MOL    H210   210   0.0600000    1.0080
  211        CT    1  MOL    C211   211  -0.0600000   12.0115
  212       CO4    1  MOL    C212   212   0.4700000   12.0115
  213         O    1  MOL    O213   213  -0.4700000   15.9994
  214        CT    1  MOL    C214   214  -0.1800000   12.0115
  215        CT    1  MOL    C215   215  -0.1800000   12.0115
  216       HAE    1  MOL    H216   216   0.0600000    1.0080
  217       HAE    1  MOL    H217   217   0.0600000    1.0080
  218       HAE    1  MOL    H218   218   0.0600000    1.0080
  219       HAE    1  MOL    H219   219   0.0600000    1.0080
  220        HC    1  MOL    H220   220   0.0600000    1.0080
  221        HC    1  MOL    H221   221   0.0600000    1.0080
  222        HC    1  MOL    H222   222   0.0600000    1.0080

[ bonds ]
      1      2   1      0.1522 265265.6000
      1      5   1      0.1529 224262.4000
      1      6   1      0.1090 284512.0000
      1     12   1      0.1090 284512.0000
      2      3   1      0.1229 476976.0000
      2      4   1      0.1522 265265.6000
      4      7   1      0.1090 284512.0000
      4      8   1      0.1090 284512.0000
      4      9   1      0.1090 284512.0000
      5     10   1      0.1090 284512.0000
      5     11   1      0.1090 284512.0000
      5     13   1      0.1529 224262.4000
     13     14   1      0.1522 265265.6000
     13     17   1      0.1529 224262.4000
     13     18   1      0.1090 284512.0000
     14     15   1      0.1229 476976.0000
     14     16   1      0.1522 265265.6000
     16     19   1      0.1090 284512.0000
     16     20   1      0.1090 284512.0000
     16     21   1      0.1090 284512.0000
     17     22   1      0.1090 284512.0000
     17     23   1      0.1090 284512.0000
     17     24   1      0.1529 224262.4000
     24     25   1      0.1522 265265.6000
     24     28   1      0.1529 224262.4000
     24     29   1      0.1090 284512.0000
     25     26   1      0.1229 476976.0000
     25     27   1      0.1522 265265.6000
     27     30   1      0.1090 284512.0000
     27     31   1      0.1090 284512.0000
     27     32   1      0.1090 284512.0000
     28     33   1      0.1090 284512.0000
     28     34   1      0.1090 284512.0000
     28     35   1      0.1529 224262.4000
     35     36   1      0.1522 265265.6000
     35     39   1      0.1529 224262.4000
     35     40   1      0.1090 284512.0000
     36     37   1      0.1229 476976.0000
     36     38   1      0.1522 265265.6000
     38     41   1      0.1090 284512.0000
     38     42   1      0.1090 284512.0000
     38     43   1      0.1090 284512.0000
     39     44   1      0.1090 284512.0000
     39     45   1      0.1090 284512.0000
     39     46   1      0.1529 224262.4000
     46     47   1      0.1522 265265.6000
     46     50   1      0.1529 224262.4000
     46     51   1      0.1090 284512.0000
     47     48   1      0.1229 476976.0000
     47     49   1      0.1522 265265.6000
     49     52   1      0.1090 284512.0000
     49     53   1      0.1090 284512.0000
     49     54   1      0.1090 284512.0000
     50     55   1      0.1090 284512.0000
     50     56   1      0.1090 284512.0000
     50     57   1      0.1529 224262.4000
     57     58   1      0.1522 265265.6000
     57     61   1      0.1529 224262.4000
     57     62   1      0.1090 284512.0000
     58     59   1      0.1229 476976.0000
     58     60   1      0.1522 265265.6000
     60     63   1      0.1090 284512.0000
     60     64   1      0.1090 284512.0000
     60     65   1      0.1090 284512.0000
     61     66   1      0.1090 284512.0000
     61     67   1      0.1090 284512.0000
     61     68   1      0.1529 224262.4000
     68     69   1      0.1522 265265.6000
     68     72   1      0.1529 224262.4000
     68     73   1      0.1090 284512.0000
     69     70   1      0.1229 476976.0000
     69     71   1      0.1522 265265.6000
     71     74   1      0.1090 284512.0000
     71     75   1      0.1090 284512.0000
     71     76   1      0.1090 284512.0000
     72     77   1      0.1090 284512.0000
     72     78   1      0.1090 284512.0000
     72     79   1      0.1529 224262.4000
     79     80   1      0.1522 265265.6000
     79     83   1      0.1529 224262.4000
     79     84   1      0.1090 284512.0000
     80     81   1      0.1229 476976.0000
     80     82   1      0.1522 265265.6000
     82     85   1      0.1090 284512.0000
     82     86   1      0.1090 284512.0000
     82     87   1      0.1090 284512.0000
     83     88   1      0.1090 284512.0000
     83     89   1      0.1090 284512.0000
     83     90   1      0.1529 224262.4000
     90     91   1      0.1522 265265.6000
     90     94   1      0.1529 224262.4000
     90     95   1      0.1090 284512.0000
     91     92   1      0.1229 476976.0000
     91     93   1      0.1522 265265.6000
     93     96   1      0.1090 284512.0000
     93     97   1      0.1090 284512.0000
     93     98   1      0.1090 284512.0000
     94     99   1      0.1090 284512.0000
     94    100   1      0.1090 284512.0000
     94    101   1      0.1529 224262.4000
    101    102   1      0.1522 265265.6000
    101    105   1      0.1529 224262.4000
    101    106   1      0.1090 284512.0000
    102    103   1      0.1229 476976.0000
    102    104   1      0.1522 265265.6000
    104    107   1      0.1090 284512.0000
    104    108   1      0.1090 284512.0000
    104    109   1      0.1090 284512.0000
    105    110   1      0.1090 284512.0000
    105    111   1      0.1090 284512.0000
    105    112   1      0.1529 224262.4000
    112    113   1      0.1522 265265.6000
    112    116   1      0.1529 224262.4000
    112    117   1      0.1090 284512.0000
    113    114   1      0.1229 476976.0000
    113    115   1      0.1522 265265.6000
    115    118   1      0.1090 284512.0000
    115    119   1      0.1090 284512.0000
    115    120   1      0.1090 284512.0000
    116    121   1      0.1090 284512.0000
    116    122   1      0.1090 284512.0000
    116    123   1      0.1529 224262.4000
    123    124   1      0.1522 265265.6000
    123    127   1      0.1529 224262.4000
    123    128   1      0.1090 284512.0000
    124    125   1      0.1229 476976.0000
    124    126   1      0.1522 265265.6000
    126    129   1      0.1090 284512.0000
    126    130   1      0.1090 284512.0000
    126    131   1      0.1090 284512.0000
    127    132   1      0.1090 284512.0000
    127    133   1      0.1090 284512.0000
    127    134   1      0.1529 224262.4000
    134    135   1      0.1522 265265.6000
    134    138   1      0.1529 224262.4000
    134    139   1      0.1090 284512.0000
    135    136   1      0.1229 476976.0000
    135    137   1      0.1522 265265.6000
    137    140   1      0.1090 284512.0000
    137    141   1      0.1090 284512.0000
    137    142   1      0.1090 284512.0000
    138    143   1      0.1090 284512.0000
    138    144   1      0.1090 284512.0000
    138    145   1      0.1529 224262.4000
    145    146   1      0.1522 265265.6000
    145    149   1      0.1529 224262.4000
    145    150   1      0.1090 284512.0000
    146    147   1      0.1229 476976.0000
    146    148   1      0.1522 265265.6000
    148    151   1      0.1090 284512.0000
    148    152   1      0.1090 284512.0000
    148    153   1      0.1090 284512.0000
    149    154   1      0.1090 284512.0000
    149    155   1      0.1090 284512.0000
    149    156   1      0.1529 224262.4000
    156    157   1      0.1522 265265.6000
    156    160   1      0.1529 224262.4000
    156    161   1      0.1090 284512.0000
    157    158   1      0.1229 476976.0000
    157    159   1      0.1522 265265.6000
    159    162   1      0.1090 284512.0000
    159    163   1      0.1090 284512.0000
    159    164   1      0.1090 284512.0000
    160    165   1      0.1090 284512.0000
    160    166   1      0.1090 284512.0000
    160    167   1      0.1529 224262.4000
    167    168   1      0.1522 265265.6000
    167    171   1      0.1529 224262.4000
    167    172   1      0.1090 284512.0000
    168    169   1      0.1229 476976.0000
    168    170   1      0.1522 265265.6000
    170    173   1      0.1090 284512.0000
    170    174   1      0.1090 284512.0000
    170    175   1      0.1090 284512.0000
    171    176   1      0.1090 284512.0000
    171    177   1      0.1090 284512.0000
    171    178   1      0.1529 224262.4000
    178    179   1      0.1522 265265.6000
    178    182   1      0.1529 224262.4000
    178    183   1      0.1090 284512.0000
    179    180   1      0.1229 476976.0000
    179    181   1      0.1522 265265.6000
    181    184   1      0.1090 284512.0000
    181    185   1      0.1090 284512.0000
    181    186   1      0.1090 284512.0000
    182    187   1      0.1090 284512.0000
    182    188   1      0.1090 284512.0000
    182    189   1      0.1529 224262.4000
    189    190   1      0.1522 265265.6000
    189    193   1      0.1529 224262.4000
    189    194   1      0.1090 284512.0000
    190    191   1      0.1229 476976.0000
    190    192   1      0.1522 265265.6000
    192    195   1      0.1090 284512.0000
    192    196   1      0.1090 284512.0000
    192    197   1      0.1090 284512.0000
    193    198   1      0.1090 284512.0000
    193    199   1      0.1090 284512.0000
    193    200   1      0.1529 224262.4000
    200    201   1      0.1522 265265.6000
    200    204   1      0.1529 224262.4000
    200    205   1      0.1090 284512.0000
    201    202   1      0.1229 476976.0000
    201    203   1      0.1522 265265.6000
    203    206   1      0.1090 284512.0000
    203    207   1      0.1090 284512.0000
    203    208   1      0.1090 284512.0000
    204    209   1      0.1090 284512.0000
    204    210   1      0.1090 284512.0000
    204    211   1      0.1529 224262.4000
    211    212   1      0.1522 265265.6000
    211    215   1      0.1529 224262.4000
    211    216   1      0.1090 284512.0000
    212    213   1      0.1229 476976.0000
    212    214   1      0.1522 265265.6000
    214    217   1      0.1090 284512.0000
    214    218   1      0.1090 284512.0000
    214    219   1      0.1090 284512.0000
    215    220   1      0.1090 284512.0000
    215    221   1      0.1090 284512.0000
    215    222   1      0.1090 284512.0000

[ pairs ]
; ai   aj   funct   fudge_QQ  charge_i   charge_j   c6    c12
      5      3   2   0.50000    -0.1200000   -0.4700000   1.095425e-03  1.218041e-06
      5      4   2   0.50000    -0.1200000   -0.1800000   1.015252e-03  1.866303e-06
      6      3   2   0.50000     0.0600000   -0.4700000   1.726228e-04  6.344822e-08
      6      4   2   0.50000     0.0600000   -0.1800000   1.599888e-04  9.721644e-08
     12      3   2   0.50000     0.0600000   -0.4700000   1.726228e-04  6.344822e-08
     12      4   2   0.50000     0.0600000   -0.1800000   1.599888e-04  9.721644e-08
      2     10   2   0.50000     0.4700000    0.0600000   3.869820e-04  3.188634e-07
      2     11   2   0.50000     0.4700000    0.0600000   3.869820e-04  3.188634e-07
      2     13   2   0.50000     0.4700000   -0.0600000   1.575021e-03  3.561100e-06
      6     10   2   0.50000     0.0600000    0.0600000   3.930919e-05  8.704828e-09
      6     11   2   0.50000     0.0600000    0.0600000   3.930919e-05  8.704828e-09
      6     13   2   0.50000     0.0600000   -0.0600000   1.599888e-04  9.721644e-08
     12     10   2   0.50000     0.0600000    0.0600000   3.930919e-05  8.704828e-09
     12     11   2   0.50000     0.0600000    0.0600000   3.930919e-05  8.704828e-09
     12     13   2   0.50000     0.0600000   -0.0600000   1.599888e-04  9.721644e-08
      1      7   2   0.50000    -0.1200000    0.0600000   1.599888e-04  9.721644e-08
      1      8   2   0.50000    -0.1200000    0.0600000   1.599888e-04  9.721644e-08
      1      9   2   0.50000    -0.1200000    0.0600000   1.599888e-04  9.721644e-08
      3      7   2   0.50000    -0.4700000    0.0600000   1.726228e-04  6.344822e-08
      3      8   2   0.50000    -0.4700000    0.0600000   1.726228e-04  6.344822e-08
      3      9   2   0.50000    -0.4700000    0.0600000   1.726228e-04  6.344822e-08
      1     14   2   0.50000    -0.1200000    0.4700000   1.575021e-03  3.561100e-06
      1     17   2   0.50000    -0.1200000   -0.1200000   1.015252e-03  1.866303e-06
      1     18   2   0.50000    -0.1200000    0.0600000   1.599888e-04  9.721644e-08
     10     14   2   0.50000     0.0600000    0.4700000   3.869820e-04  3.188634e-07
     10     17   2   0.50000     0.0600000   -0.1200000   2.494471e-04  1.671101e-07
     10     18   2   0.50000     0.0600000    0.0600000   3.930919e-05  8.704828e-09
     11     14   2   0.50000     0.0600000    0.4700000   3.869820e-04  3.188634e-07
     11     17   2   0.50000     0.0600000   -0.1200000   2.494471e-04  1.671101e-07
     11     18   2   0.50000     0.0600000    0.0600000   3.930919e-05  8.704828e-09
      5     15   2   0.50000    -0.1200000   -0.4700000   1.095425e-03  1.218041e-06
      5     16   2   0.50000    -0.1200000   -0.1800000   1.015252e-03  1.866303e-06
     17     15   2   0.50000    -0.1200000   -0.4700000   1.095425e-03  1.218041e-06
     17     16   2   0.50000    -0.1200000   -0.1800000   1.015252e-03  1.866303e-06
     18     15   2   0.50000     0.0600000   -0.4700000   1.726228e-04  6.344822e-08
     18     16   2   0.50000     0.0600000   -0.1800000   1.599888e-04  9.721644e-08
      5     22   2   0.50000    -0.1200000    0.0600000   2.494471e-04  1.671101e-07
      5     23   2   0.50000    -0.1200000    0.0600000   2.494471e-04  1.671101e-07
      5     24   2   0.50000    -0.1200000   -0.0600000   1.015252e-03  1.866303e-06
     14     22   2   0.50000     0.4700000    0.0600000   3.869820e-04  3.188634e-07
     14     23   2   0.50000     0.4700000    0.0600000   3.869820e-04  3.188634e-07
     14     24   2   0.50000     0.4700000   -0.0600000   1.575021e-03  3.561100e-06
     18     22   2   0.50000     0.0600000    0.0600000   3.930919e-05  8.704828e-09
     18     23   2   0.50000     0.0600000    0.0600000   3.930919e-05  8.704828e-09
     18     24   2   0.50000     0.0600000   -0.0600000   1.599888e-04  9.721644e-08
     13     19   2   0.50000    -0.0600000    0.0600000   1.599888e-04  9.721644e-08
     13     20   2   0.50000    -0.0600000    0.0600000   1.599888e-04  9.721644e-08
     13     21   2   0.50000    -0.0600000    0.0600000   1.599888e-04  9.721644e-08
     15     19   2   0.50000    -0.4700000    0.0600000   1.726228e-04  6.344822e-08
     15     20   2   0.50000    -0.4700000    0.0600000   1.726228e-04  6.344822e-08
     15     21   2   0.50000    -0.4700000    0.0600000   1.726228e-04  6.344822e-08
     13     25   2   0.50000    -0.0600000    0.4700000   1.575021e-03  3.561100e-06
     13     28   2   0.50000    -0.0600000   -0.1200000   1.015252e-03  1.866303e-06
     13     29   2   0.50000    -0.0600000    0.0600000   1.599888e-04  9.721644e-08
     22     25   2   0.50000     0.0600000    0.4700000   3.869820e-04  3.188634e-07
     22     28   2   0.50000     0.0600000   -0.1200000   2.494471e-04  1.671101e-07
     22     29   2   0.50000     0.0600000    0.0600000   3.930919e-05  8.704828e-09
     23     25   2   0.50000     0.0600000    0.4700000   3.869820e-04  3.188634e-07
     23     28   2   0.50000     0.0600000   -0.1200000   2.494471e-04  1.671101e-07
     23     29   2   0.50000     0.0600000    0.0600000   3.930919e-05  8.704828e-09
     17     26   2   0.50000    -0.1200000   -0.4700000   1.095425e-03  1.218041e-06
     17     27   2   0.50000    -0.1200000   -0.1800000   1.015252e-03  1.866303e-06
     28     26   2   0.50000    -0.1200000   -0.4700000   1.095425e-03  1.218041e-06
     28     27   2   0.50000    -0.1200000   -0.1800000   1.015252e-03  1.866303e-06
     29     26   2   0.50000     0.0600000   -0.4700000   1.726228e-04  6.344822e-08
     29     27   2   0.50000     0.0600000   -0.1800000   1.599888e-04  9.721644e-08
     17     33   2   0.50000    -0.1200000    0.0600000   2.494471e-04  1.671101e-07
     17     34   2   0.50000    -0.1200000    0.0600000   2.494471e-04  1.671101e-07
     17     35   2   0.50000    -0.1200000   -0.0600000   1.015252e-03  1.866303e-06
     25     33   2   0.50000     0.4700000    0.0600000   3.869820e-04  3.188634e-07
     25     34   2   0.50000     0.4700000    0.0600000   3.869820e-04  3.188634e-07
     25     35   2   0.50000     0.4700000   -0.0600000   1.575021e-03  3.561100e-06
     29     33   2   0.50000     0.0600000    0.0600000   3.930919e-05  8.704828e-09
     29     34   2   0.50000     0.0600000    0.0600000   3.930919e-05  8.704828e-09
     29     35   2   0.50000     0.0600000   -0.0600000   1.599888e-04  9.721644e-08
     24     30   2   0.50000    -0.0600000    0.0600000   1.599888e-04  9.721644e-08
     24     31   2   0.50000    -0.0600000    0.0600000   1.599888e-04  9.721644e-08
     24     32   2   0.50000    -0.0600000    0.0600000   1.599888e-04  9.721644e-08
     26     30   2   0.50000    -0.4700000    0.0600000   1.726228e-04  6.344822e-08
     26     31   2   0.50000    -0.4700000    0.0600000   1.726228e-04  6.344822e-08
     26     32   2   0.50000    -0.4700000    0.0600000   1.726228e-04  6.344822e-08
     24     36   2   0.50000    -0.0600000    0.4700000   1.575021e-03  3.561100e-06
     24     39   2   0.50000    -0.0600000   -0.1200000   1.015252e-03  1.866303e-06
     24     40   2   0.50000    -0.0600000    0.0600000   1.599888e-04  9.721644e-08
     33     36   2   0.50000     0.0600000    0.4700000   3.869820e-04  3.188634e-07
     33     39   2   0.50000     0.0600000   -0.1200000   2.494471e-04  1.671101e-07
     33     40   2   0.50000     0.0600000    0.0600000   3.930919e-05  8.704828e-09
     34     36   2   0.50000     0.0600000    0.4700000   3.869820e-04  3.188634e-07
     34     39   2   0.50000     0.0600000   -0.1200000   2.494471e-04  1.671101e-07
     34     40   2   0.50000     0.0600000    0.0600000   3.930919e-05  8.704828e-09
     28     37   2   0.50000    -0.1200000   -0.4700000   1.095425e-03  1.218041e-06
     28     38   2   0.50000    -0.1200000   -0.1800000   1.015252e-03  1.866303e-06
     39     37   2   0.50000    -0.1200000   -0.4700000   1.095425e-03  1.218041e-06
     39     38   2   0.50000    -0.1200000   -0.1800000   1.015252e-03  1.866303e-06
     40     37   2   0.50000     0.0600000   -0.4700000   1.726228e-04  6.344822e-08
     40     38   2   0.50000     0.0600000   -0.1800000   1.599888e-04  9.721644e-08
     28     44   2   0.50000    -0.1200000    0.0600000   2.494471e-04  1.671101e-07
     28     45   2   0.50000    -0.1200000    0.0600000   2.494471e-04  1.671101e-07
     28     46   2   0.50000    -0.1200000   -0.0600000   1.015252e-03  1.866303e-06
     36     44   2   0.50000     0.4700000    0.0600000   3.869820e-04  3.188634e-07
     36     45   2   0.50000     0.4700000    0.0600000   3.869820e-04  3.188634e-07
     36     46   2   0.50000     0.4700000   -0.0600000   1.575021e-03  3.561100e-06
     40     44   2   0.50000     0.0600000    0.0600000   3.930919e-05  8.704828e-09
     40     45   2   0.50000     0.0600000    0.0600000   3.930919e-05  8.704828e-09
     40     46   2   0.50000     0.0600000   -0.0600000   1.599888e-04  9.721644e-08
     35     41   2   0.50000    -0.0600000    0.0600000   1.599888e-04  9.721644e-08
     35     42   2   0.50000    -0.0600000    0.0600000   1.599888e-04  9.721644e-08
     35     43   2   0.50000    -0.0600000    0.0600000   1.599888e-04  9.721644e-08
     37     41   2   0.50000    -0.4700000    0.0600000   1.726228e-04  6.344822e-08
     37     42   2   0.50000    -0.4700000    0.0600000   1.726228e-04  6.344822e-08
     37     43   2   0.50000    -0.4700000    0.0600000   1.726228e-04  6.344822e-08
     35     47   2   0.50000    -0.0600000    0.4700000   1.575021e-03  3.561100e-06
     35     50   2   0.50000    -0.0600000   -0.1200000   1.015252e-03  1.866303e-06
     35     51   2   0.50000    -0.0600000    0.0600000   1.599888e-04  9.721644e-08
     44     47   2   0.50000     0.0600000    0.4700000   3.869820e-04  3.188634e-07
     44     50   2   0.50000     0.0600000   -0.1200000   2.494471e-04  1.671101e-07
     44     51   2   0.50000     0.0600000    0.0600000   3.930919e-05  8.704828e-09
     45     47   2   0.50000     0.0600000    0.4700000   3.869820e-04  3.188634e-07
     45     50   2   0.50000     0.0600000   -0.1200000   2.494471e-04  1.671101e-07
     45     51   2   0.50000     0.0600000    0.0600000   3.930919e-05  8.704828e-09
     39     48   2   0.50000    -0.1200000   -0.4700000   1.095425e-03  1.218041e-06
     39     49   2   0.50000    -0.1200000   -0.1800000   1.015252e-03  1.866303e-06
     50     48   2   0.50000    -0.1200000   -0.4700000   1.095425e-03  1.218041e-06
     50     49   2   0.50000    -0.1200000   -0.1800000   1.015252e-03  1.866303e-06
     51     48   2   0.50000     0.0600000   -0.4700000   1.726228e-04  6.344822e-08
     51     49   2   0.50000     0.0600000   -0.1800000   1.599888e-04  9.721644e-08
     39     55   2   0.50000    -0.1200000    0.0600000   2.494471e-04  1.671101e-07
     39     56   2   0.50000    -0.1200000    0.0600000   2.494471e-04  1.671101e-07
     39     57   2   0.50000    -0.1200000   -0.0600000   1.015252e-03  1.866303e-06
     47     55   2   0.50000     0.4700000    0.0600000   3.869820e-04  3.188634e-07
     47     56   2   0.50000     0.4700000    0.0600000   3.869820e-04  3.188634e-07
     47     57   2   0.50000     0.4700000   -0.0600000   1.575021e-03  3.561100e-06
     51     55   2   0.50000     0.0600000    0.0600000   3.930919e-05  8.704828e-09
     51     56   2   0.50000     0.0600000    0.0600000   3.930919e-05  8.704828e-09
     51     57   2   0.50000     0.0600000   -0.0600000   1.599888e-04  9.721644e-08
     46     52   2   0.50000    -0.0600000    0.0600000   1.599888e-04  9.721644e-08
     46     53   2   0.50000    -0.0600000    0.0600000   1.599888e-04  9.721644e-08
     46     54   2   0.50000    -0.0600000    0.0600000   1.599888e-04  9.721644e-08
     48     52   2   0.50000    -0.4700000    0.0600000   1.726228e-04  6.344822e-08
     48     53   2   0.50000    -0.4700000    0.0600000   1.726228e-04  6.344822e-08
     48     54   2   0.50000    -0.4700000    0.0600000   1.726228e-04  6.344822e-08
     46     58   2   0.50000    -0.0600000    0.4700000   1.575021e-03  3.561100e-06
     46     61   2   0.50000    -0.0600000   -0.1200000   1.015252e-03  1.866303e-06
     46     62   2   0.50000    -0.0600000    0.0600000   1.599888e-04  9.721644e-08
     55     58   2   0.50000     0.0600000    0.4700000   3.869820e-04  3.188634e-07
     55     61   2   0.50000     0.0600000   -0.1200000   2.494471e-04  1.671101e-07
     55     62   2   0.50000     0.0600000    0.0600000   3.930919e-05  8.704828e-09
     56     58   2   0.50000     0.0600000    0.4700000   3.869820e-04  3.188634e-07
     56     61   2   0.50000     0.0600000   -0.1200000   2.494471e-04  1.671101e-07
     56     62   2   0.50000     0.0600000    0.0600000   3.930919e-05  8.704828e-09
     50     59   2   0.50000    -0.1200000   -0.4700000   1.095425e-03  1.218041e-06
     50     60   2   0.50000    -0.1200000   -0.1800000   1.015252e-03  1.866303e-06
     61     59   2   0.50000    -0.1200000   -0.4700000   1.095425e-03  1.218041e-06
     61     60   2   0.50000    -0.1200000   -0.1800000   1.015252e-03  1.866303e-06
     62     59   2   0.50000     0.0600000   -0.4700000   1.726228e-04  6.344822e-08
     62     60   2   0.50000     0.0600000   -0.1800000   1.599888e-04  9.721644e-08
     50     66   2   0.50000    -0.1200000    0.0600000   2.494471e-04  1.671101e-07
     50     67   2   0.50000    -0.1200000    0.0600000   2.494471e-04  1.671101e-07
     50     68   2   0.50000    -0.1200000   -0.0600000   1.015252e-03  1.866303e-06
     58     66   2   0.50000     0.4700000    0.0600000   3.869820e-04  3.188634e-07
     58     67   2   0.50000     0.4700000    0.0600000   3.869820e-04  3.188634e-07
     58     68   2   0.50000     0.4700000   -0.0600000   1.575021e-03  3.561100e-06
     62     66   2   0.50000     0.0600000    0.0600000   3.930919e-05  8.704828e-09
     62     67   2   0.50000     0.0600000    0.0600000   3.930919e-05  8.704828e-09
     62     68   2   0.50000     0.0600000   -0.0600000   1.599888e-04  9.721644e-08
     57     63   2   0.50000    -0.0600000    0.0600000   1.599888e-04  9.721644e-08
     57     64   2   0.50000    -0.0600000    0.0600000   1.599888e-04  9.721644e-08
     57     65   2   0.50000    -0.0600000    0.0600000   1.599888e-04  9.721644e-08
     59     63   2   0.50000    -0.4700000    0.0600000   1.726228e-04  6.344822e-08
     59     64   2   0.50000    -0.4700000    0.0600000   1.726228e-04  6.344822e-08
     59     65   2   0.50000    -0.4700000    0.0600000   1.726228e-04  6.344822e-08
     57     69   2   0.50000    -0.0600000    0.4700000   1.575021e-03  3.561100e-06
     57     72   2   0.50000    -0.0600000   -0.1200000   1.015252e-03  1.866303e-06
     57     73   2   0.50000    -0.0600000    0.0600000   1.599888e-04  9.721644e-08
     66     69   2   0.50000     0.0600000    0.4700000   3.869820e-04  3.188634e-07
     66     72   2   0.50000     0.0600000   -0.1200000   2.494471e-04  1.671101e-07
     66     73   2   0.50000     0.0600000    0.0600000   3.930919e-05  8.704828e-09
     67     69   2   0.50000     0.0600000    0.4700000   3.869820e-04  3.188634e-07
     67     72   2   0.50000     0.0600000   -0.1200000   2.494471e-04  1.671101e-07
     67     73   2   0.50000     0.0600000    0.0600000   3.930919e-05  8.704828e-09
     61     70   2   0.50000    -0.1200000   -0.4700000   1.095425e-03  1.218041e-06
     61     71   2   0.50000    -0.1200000   -0.1800000   1.015252e-03  1.866303e-06
     72     70   2   0.50000    -0.1200000   -0.4700000   1.095425e-03  1.218041e-06
     72     71   2   0.50000    -0.1200000   -0.1800000   1.015252e-03  1.866303e-06
     73     70   2   0.50000     0.0600000   -0.4700000   1.726228e-04  6.344822e-08
     73     71   2   0.50000     0.0600000   -0.1800000   1.599888e-04  9.721644e-08
     61     77   2   0.50000    -0.1200000    0.0600000   2.494471e-04  1.671101e-07
     61     78   2   0.50000    -0.1200000    0.0600000   2.494471e-04  1.671101e-07
     61     79   2   0.50000    -0.1200000   -0.0600000   1.015252e-03  1.866303e-06
     69     77   2   0.50000     0.4700000    0.0600000   3.869820e-04  3.188634e-07
     69     78   2   0.50000     0.4700000    0.0600000   3.869820e-04  3.188634e-07
     69     79   2   0.50000     0.4700000   -0.0600000   1.575021e-03  3.561100e-06
     73     77   2   0.50000     0.0600000    0.0600000   3.930919e-05  8.704828e-09
     73     78   2   0.50000     0.0600000    0.0600000   3.930919e-05  8.704828e-09
     73     79   2   0.50000     0.0600000   -0.0600000   1.599888e-04  9.721644e-08
     68     74   2   0.50000    -0.0600000    0.0600000   1.599888e-04  9.721644e-08
     68     75   2   0.50000    -0.0600000    0.0600000   1.599888e-04  9.721644e-08
     68     76   2   0.50000    -0.0600000    0.0600000   1.599888e-04  9.721644e-08
     70     74   2   0.50000    -0.4700000    0.0600000   1.726228e-04  6.344822e-08
     70     75   2   0.50000    -0.4700000    0.0600000   1.726228e-04  6.344822e-08
     70     76   2   0.50000    -0.4700000    0.0600000   1.726228e-04  6.344822e-08
     68     80   2   0.50000    -0.0600000    0.4700000   1.575021e-03  3.561100e-06
     68     83   2   0.50000    -0.0600000   -0.1200000   1.015252e-03  1.866303e-06
     68     84   2   0.50000    -0.0600000    0.0600000   1.599888e-04  9.721644e-08
     77     80   2   0.50000     0.0600000    0.4700000   3.869820e-04  3.188634e-07
     77     83   2   0.50000     0.0600000   -0.1200000   2.494471e-04  1.671101e-07
     77     84   2   0.50000     0.0600000    0.0600000   3.930919e-05  8.704828e-09
     78     80   2   0.50000     0.0600000    0.4700000   3.869820e-04  3.188634e-07
     78     83   2   0.50000     0.0600000   -0.1200000   2.494471e-04  1.671101e-07
     78     84   2   0.50000     0.0600000    0.0600000   3.930919e-05  8.704828e-09
     72     81   2   0.50000    -0.1200000   -0.4700000   1.095425e-03  1.218041e-06
     72     82   2   0.50000    -0.1200000   -0.1800000   1.015252e-03  1.866303e-06
     83     81   2   0.50000    -0.1200000   -0.4700000   1.095425e-03  1.218041e-06
     83     82   2   0.50000    -0.1200000   -0.1800000   1.015252e-03  1.866303e-06
     84     81   2   0.50000     0.0600000   -0.4700000   1.726228e-04  6.344822e-08
     84     82   2   0.50000     0.0600000   -0.1800000   1.599888e-04  9.721644e-08
     72     88   2   0.50000    -0.1200000    0.0600000   2.494471e-04  1.671101e-07
     72     89   2   0.50000    -0.1200000    0.0600000   2.494471e-04  1.671101e-07
     72     90   2   0.50000    -0.1200000   -0.0600000   1.015252e-03  1.866303e-06
     80     88   2   0.50000     0.4700000    0.0600000   3.869820e-04  3.188634e-07
     80     89   2   0.50000     0.4700000    0.0600000   3.869820e-04  3.188634e-07
     80     90   2   0.50000     0.4700000   -0.0600000   1.575021e-03  3.561100e-06
     84     88   2   0.50000     0.0600000    0.0600000   3.930919e-05  8.704828e-09
     84     89   2   0.50000     0.0600000    0.0600000   3.930919e-05  8.704828e-09
     84     90   2   0.50000     0.0600000   -0.0600000   1.599888e-04  9.721644e-08
     79     85   2   0.50000    -0.0600000    0.0600000   1.599888e-04  9.721644e-08
     79     86   2   0.50000    -0.0600000    0.0600000   1.599888e-04  9.721644e-08
     79     87   2   0.50000    -0.0600000    0.0600000   1.599888e-04  9.721644e-08
     81     85   2   0.50000    -0.4700000    0.0600000   1.726228e-04  6.344822e-08
     81     86   2   0.50000    -0.4700000    0.0600000   1.726228e-04  6.344822e-08
     81     87   2   0.50000    -0.4700000    0.0600000   1.726228e-04  6.344822e-08
     79     91   2   0.50000    -0.0600000    0.4700000   1.575021e-03  3.561100e-06
     79     94   2   0.50000    -0.0600000   -0.1200000   1.015252e-03  1.866303e-06
     79     95   2   0.50000    -0.0600000    0.0600000   1.599888e-04  9.721644e-08
     88     91   2   0.50000     0.0600000    0.4700000   3.869820e-04  3.188634e-07
     88     94   2   0.50000     0.0600000   -0.1200000   2.494471e-04  1.671101e-07
     88     95   2   0.50000     0.0600000    0.0600000   3.930919e-05  8.704828e-09
     89     91   2   0.50000     0.0600000    0.4700000   3.869820e-04  3.188634e-07
     89     94   2   0.50000     0.0600000   -0.1200000   2.494471e-04  1.671101e-07
     89     95   2   0.50000     0.0600000    0.0600000   3.930919e-05  8.704828e-09
     83     92   2   0.50000    -0.1200000   -0.4700000   1.095425e-03  1.218041e-06
     83     93   2   0.50000    -0.1200000   -0.1800000   1.015252e-03  1.866303e-06
     94     92   2   0.50000    -0.1200000   -0.4700000   1.095425e-03  1.218041e-06
     94     93   2   0.50000    -0.1200000   -0.1800000   1.015252e-03  1.866303e-06
     95     92   2   0.50000     0.0600000   -0.4700000   1.726228e-04  6.344822e-08
     95     93   2   0.50000     0.0600000   -0.1800000   1.599888e-04  9.721644e-08
     83     99   2   0.50000    -0.1200000    0.0600000   2.494471e-04  1.671101e-07
     83    100   2   0.50000    -0.1200000    0.0600000   2.494471e-04  1.671101e-07
     83    101   2   0.50000    -0.1200000   -0.0600000   1.015252e-03  1.866303e-06
     91     99   2   0.50000     0.4700000    0.0600000   3.869820e-04  3.188634e-07
     91    100   2   0.50000     0.4700000    0.0600000   3.869820e-04  3.188634e-07
     91    101   2   0.50000     0.4700000   -0.0600000   1.575021e-03  3.561100e-06
     95     99   2   0.50000     0.0600000    0.0600000   3.930919e-05  8.704828e-09
     95    100   2   0.50000     0.0600000    0.0600000   3.930919e-05  8.704828e-09
     95    101   2   0.50000     0.0600000   -0.0600000   1.599888e-04  9.721644e-08
     90     96   2   0.50000    -0.0600000    0.0600000   1.599888e-04  9.721644e-08
     90     97   2   0.50000    -0.0600000    0.0600000   1.599888e-04  9.721644e-08
     90     98   2   0.50000    -0.0600000    0.0600000   1.599888e-04  9.721644e-08
     92     96   2   0.50000    -0.4700000    0.0600000   1.726228e-04  6.344822e-08
     92     97   2   0.50000    -0.4700000    0.0600000   1.726228e-04  6.344822e-08
     92     98   2   0.50000    -0.4700000    0.0600000   1.726228e-04  6.344822e-08
     90    102   2   0.50000    -0.0600000    0.4700000   1.575021e-03  3.561100e-06
     90    105   2   0.50000    -0.0600000   -0.1200000   1.015252e-03  1.866303e-06
     90    106   2   0.50000    -0.0600000    0.0600000   1.599888e-04  9.721644e-08
     99    102   2   0.50000     0.0600000    0.4700000   3.869820e-04  3.188634e-07
     99    105   2   0.50000     0.0600000   -0.1200000   2.494471e-04  1.671101e-07
     99    106   2   0.50000     0.0600000    0.0600000   3.930919e-05  8.704828e-09
    100    102   2   0.50000     0.0600000    0.4700000   3.869820e-04  3.188634e-07
    100    105   2   0.50000     0.0600000   -0.1200000   2.494471e-04  1.671101e-07
    100    106   2   0.50000     0.0600000    0.0600000   3.930919e-05  8.704828e-09
     94    103   2   0.50000    -0.1200000   -0.4700000   1.095425e-03  1.218041e-06
     94    104   2   0.50000    -0.1200000   -0.1800000   1.015252e-03  1.866303e-06
    105    103   2   0.50000    -0.1200000   -0.4700000   1.095425e-03  1.218041e-06
    105    104   2   0.50000    -0.1200000   -0.1800000   1.015252e-03  1.866303e-06
    106    103   2   0.50000     0.0600000   -0.4700000   1.726228e-04  6.344822e-08
    106    104   2   0.50000     0.0600000   -0.1800000   1.599888e-04  9.721644e-08
     94    110   2   0.50000    -0.1200000    0.0600000   2.494471e-04  1.671101e-07
     94    111   2   0.50000    -0.1200000    0.0600000   2.494471e-04  1.671101e-07
     94    112   2   0.50000    -0.1200000   -0.0600000   1.015252e-03  1.866303e-06
    102    110   2   0.50000     0.4700000    0.0600000   3.869820e-04  3.188634e-07
    102    111   2   0.50000     0.4700000    0.0600000   3.869820e-04  3.188634e-07
    102    112   2   0.50000     0.4700000   -0.0600000   1.575021e-03  3.561100e-06
    106    110   2   0.50000     0.0600000    0.0600000   3.930919e-05  8.704828e-09
    106    111   2   0.50000     0.0600000    0.0600000   3.930919e-05  8.704828e-09
    106    112   2   0.50000     0.0600000   -0.0600000   1.599888e-04  9.721644e-08
    101    107   2   0.50000    -0.0600000    0.0600000   1.599888e-04  9.721644e-08
    101    108   2   0.50000    -0.0600000    0.0600000   1.599888e-04  9.721644e-08
    101    109   2   0.50000    -0.0600000    0.0600000   1.599888e-04  9.721644e-08
    103    107   2   0.50000    -0.4700000    0.0600000   1.726228e-04  6.344822e-08
    103    108   2   0.50000    -0.4700000    0.0600000   1.726228e-04  6.344822e-08
    103    109   2   0.50000    -0.4700000    0.0600000   1.726228e-04  6.344822e-08
    101    113   2   0.50000    -0.0600000    0.4700000   1.575021e-03  3.561100e-06
    101    116   2   0.50000    -0.0600000   -0.1200000   1.015252e-03  1.866303e-06
    101    117   2   0.50000    -0.0600000    0.0600000   1.599888e-04  9.721644e-08
    110    113   2   0.50000     0.0600000    0.4700000   3.869820e-04  3.188634e-07
    110    116   2   0.50000     0.0600000   -0.1200000   2.494471e-04  1.671101e-07
    110    117   2   0.50000     0.0600000    0.0600000   3.930919e-05  8.704828e-09
    111    113   2   0.50000     0.0600000    0.4700000   3.869820e-04  3.188634e-07
    111    116   2   0.50000     0.0600000   -0.1200000   2.494471e-04  1.671101e-07
    111    117   2   0.50000     0.0600000    0.0600000   3.930919e-05  8.704828e-09
    105    114   2   0.50000    -0.1200000   -0.4700000   1.095425e-03  1.218041e-06
    105    115   2   0.50000    -0.1200000   -0.1800000   1.015252e-03  1.866303e-06
    116    114   2   0.50000    -0.1200000   -0.4700000   1.095425e-03  1.218041e-06
    116    115   2   0.50000    -0.1200000   -0.1800000   1.015252e-03  1.866303e-06
    117    114   2   0.50000     0.0600000   -0.4700000   1.726228e-04  6.344822e-08
    117    115   2   0.50000     0.0600000   -0.1800000   1.599888e-04  9.721644e-08
    105    121   2   0.50000    -0.1200000    0.0600000   2.494471e-04  1.671101e-07
    105    122   2   0.50000    -0.1200000    0.0600000   2.494471e-04  1.671101e-07
    105    123   2   0.50000    -0.1200000   -0.0600000   1.015252e-03  1.866303e-06
    113    121   2   0.50000     0.4700000    0.0600000   3.869820e-04  3.188634e-07
    113    122   2   0.50000     0.4700000    0.0600000   3.869820e-04  3.188634e-07
    113    123   2   0.50000     0.4700000   -0.0600000   1.575021e-03  3.561100e-06
    117    121   2   0.50000     0.0600000    0.0600000   3.930919e-05  8.704828e-09
    117    122   2   0.50000     0.0600000    0.0600000   3.930919e-05  8.704828e-09
    117    123   2   0.50000     0.0600000   -0.0600000   1.599888e-04  9.721644e-08
    112    118   2   0.50000    -0.0600000    0.0600000   1.599888e-04  9.721644e-08
    112    119   2   0.50000    -0.0600000    0.0600000   1.599888e-04  9.721644e-08
    112    120   2   0.50000    -0.0600000    0.0600000   1.599888e-04  9.721644e-08
    114    118   2   0.50000    -0.4700000    0.0600000   1.726228e-04  6.344822e-08
    114    119   2   0.50000    -0.4700000    0.0600000   1.726228e-04  6.344822e-08
    114    120   2   0.50000    -0.4700000    0.0600000   1.726228e-04  6.344822e-08
    112    124   2   0.50000    -0.0600000    0.4700000   1.575021e-03  3.561100e-06
    112    127   2   0.50000    -0.0600000   -0.1200000   1.015252e-03  1.866303e-06
    112    128   2   0.50000    -0.0600000    0.0600000   1.599888e-04  9.721644e-08
    121    124   2   0.50000     0.0600000    0.4700000   3.869820e-04  3.188634e-07
    121    127   2   0.50000     0.0600000   -0.1200000   2.494471e-04  1.671101e-07
    121    128   2   0.50000     0.0600000    0.0600000   3.930919e-05  8.704828e-09
    122    124   2   0.50000     0.0600000    0.4700000   3.869820e-04  3.188634e-07
    122    127   2   0.50000     0.0600000   -0.1200000   2.494471e-04  1.671101e-07
    122    128   2   0.50000     0.0600000    0.0600000   3.930919e-05  8.704828e-09
    116    125   2   0.50000    -0.1200000   -0.4700000   1.095425e-03  1.218041e-06
    116    126   2   0.50000    -0.1200000   -0.1800000   1.015252e-03  1.866303e-06
    127    125   2   0.50000    -0.1200000   -0.4700000   1.095425e-03  1.218041e-06
    127    126   2   0.50000    -0.1200000   -0.1800000   1.015252e-03  1.866303e-06
    128    125   2   0.50000     0.0600000   -0.4700000   1.726228e-04  6.344822e-08
    128    126   2   0.50000     0.0600000   -0.1800000   1.599888e-04  9.721644e-08
    116    132   2   0.50000    -0.1200000    0.0600000   2.494471e-04  1.671101e-07
    116    133   2   0.50000    -0.1200000    0.0600000   2.494471e-04  1.671101e-07
    116    134   2   0.50000    -0.1200000   -0.0600000   1.015252e-03  1.866303e-06
    124    132   2   0.50000     0.4700000    0.0600000   3.869820e-04  3.188634e-07
    124    133   2   0.50000     0.4700000    0.0600000   3.869820e-04  3.188634e-07
    124    134   2   0.50000     0.4700000   -0.0600000   1.575021e-03  3.561100e-06
    128    132   2   0.50000     0.0600000    0.0600000   3.930919e-05  8.704828e-09
    128    133   2   0.50000     0.0600000    0.0600000   3.930919e-05  8.704828e-09
    128    134   2   0.50000     0.0600000   -0.0600000   1.599888e-04  9.721644e-08
    123    129   2   0.50000    -0.0600000    0.0600000   1.599888e-04  9.721644e-08
    123    130   2   0.50000    -0.0600000    0.0600000   1.599888e-04  9.721644e-08
    123    131   2   0.50000    -0.0600000    0.0600000   1.599888e-04  9.721644e-08
    125    129   2   0.50000    -0.4700000    0.0600000   1.726228e-04  6.344822e-08
    125    130   2   0.50000    -0.4700000    0.0600000   1.726228e-04  6.344822e-08
    125    131   2   0.50000    -0.4700000    0.0600000   1.726228e-04  6.344822e-08
    123    135   2   0.50000    -0.0600000    0.4700000   1.575021e-03  3.561100e-06
    123    138   2   0.50000    -0.0600000   -0.1200000   1.015252e-03  1.866303e-06
    123    139   2   0.50000    -0.0600000    0.0600000   1.599888e-04  9.721644e-08
    132    135   2   0.50000     0.0600000    0.4700000   3.869820e-04  3.188634e-07
    132    138   2   0.50000     0.0600000   -0.1200000   2.494471e-04  1.671101e-07
    132    139   2   0.50000     0.0600000    0.0600000   3.930919e-05  8.704828e-09
    133    135   2   0.50000     0.0600000    0.4700000   3.869820e-04  3.188634e-07
    133    138   2   0.50000     0.0600000   -0.1200000   2.494471e-04  1.671101e-07
    133    139   2   0.50000     0.0600000    0.0600000   3.930919e-05  8.704828e-09
    127    136   2   0.50000    -0.1200000   -0.4700000   1.095425e-03  1.218041e-06
    127    137   2   0.50000    -0.1200000   -0.1800000   1.015252e-03  1.866303e-06
    138    136   2   0.50000    -0.1200000   -0.4700000   1.095425e-03  1.218041e-06
    138    137   2   0.50000    -0.1200000   -0.1800000   1.015252e-03  1.866303e-06
    139    136   2   0.50000     0.0600000   -0.4700000   1.726228e-04  6.344822e-08
    139    137   2   0.50000     0.0600000   -0.1800000   1.599888e-04  9.721644e-08
    127    143   2   0.50000    -0.1200000    0.0600000   2.494471e-04  1.671101e-07
    127    144   2   0.50000    -0.1200000    0.0600000   2.494471e-04  1.671101e-07
    127    145   2   0.50000    -0.1200000   -0.0600000   1.015252e-03  1.866303e-06
    135    143   2   0.50000     0.4700000    0.0600000   3.869820e-04  3.188634e-07
    135    144   2   0.50000     0.4700000    0.0600000   3.869820e-04  3.188634e-07
    135    145   2   0.50000     0.4700000   -0.0600000   1.575021e-03  3.561100e-06
    139    143   2   0.50000     0.0600000    0.0600000   3.930919e-05  8.704828e-09
    139    144   2   0.50000     0.0600000    0.0600000   3.930919e-05  8.704828e-09
    139    145   2   0.50000     0.0600000   -0.0600000   1.599888e-04  9.721644e-08
    134    140   2   0.50000    -0.0600000    0.0600000   1.599888e-04  9.721644e-08
    134    141   2   0.50000    -0.0600000    0.0600000   1.599888e-04  9.721644e-08
    134    142   2   0.50000    -0.0600000    0.0600000   1.599888e-04  9.721644e-08
    136    140   2   0.50000    -0.4700000    0.0600000   1.726228e-04  6.344822e-08
    136    141   2   0.50000    -0.4700000    0.0600000   1.726228e-04  6.344822e-08
    136    142   2   0.50000    -0.4700000    0.0600000   1.726228e-04  6.344822e-08
    134    146   2   0.50000    -0.0600000    0.4700000   1.575021e-03  3.561100e-06
    134    149   2   0.50000    -0.0600000   -0.1200000   1.015252e-03  1.866303e-06
    134    150   2   0.50000    -0.0600000    0.0600000   1.599888e-04  9.721644e-08
    143    146   2   0.50000     0.0600000    0.4700000   3.869820e-04  3.188634e-07
    143    149   2   0.50000     0.0600000   -0.1200000   2.494471e-04  1.671101e-07
    143    150   2   0.50000     0.0600000    0.0600000   3.930919e-05  8.704828e-09
    144    146   2   0.50000     0.0600000    0.4700000   3.869820e-04  3.188634e-07
    144    149   2   0.50000     0.0600000   -0.1200000   2.494471e-04  1.671101e-07
    144    150   2   0.50000     0.0600000    0.0600000   3.930919e-05  8.704828e-09
    138    147   2   0.50000    -0.1200000   -0.4700000   1.095425e-03  1.218041e-06
    138    148   2   0.50000    -0.1200000   -0.1800000   1.015252e-03  1.866303e-06
    149    147   2   0.50000    -0.1200000   -0.4700000   1.095425e-03  1.218041e-06
    149    148   2   0.50000    -0.1200000   -0.1800000   1.015252e-03  1.866303e-06
    150    147   2   0.50000     0.0600000   -0.4700000   1.726228e-04  6.344822e-08
    150    148   2   0.50000     0.0600000   -0.1800000   1.599888e-04  9.721644e-08
    138    154   2   0.50000    -0.1200000    0.0600000   2.494471e-04  1.671101e-07
    138    155   2   0.50000    -0.1200000    0.0600000   2.494471e-04  1.671101e-07
    138    156   2   0.50000    -0.1200000   -0.0600000   1.015252e-03  1.866303e-06
    146    154   2   0.50000     0.4700000    0.0600000   3.869820e-04  3.188634e-07
    146    155   2   0.50000     0.4700000    0.0600000   3.869820e-04  3.188634e-07
    146    156   2   0.50000     0.4700000   -0.0600000   1.575021e-03  3.561100e-06
    150    154   2   0.50000     0.0600000    0.0600000   3.930919e-05  8.704828e-09
    150    155   2   0.50000     0.0600000    0.0600000   3.930919e-05  8.704828e-09
    150    156   2   0.50000     0.0600000   -0.0600000   1.599888e-04  9.721644e-08
    145    151   2   0.50000    -0.0600000    0.0600000   1.599888e-04  9.721644e-08
    145    152   2   0.50000    -0.0600000    0.0600000   1.599888e-04  9.721644e-08
    145    153   2   0.50000    -0.0600000    0.0600000   1.599888e-04  9.721644e-08
    147    151   2   0.50000    -0.4700000    0.0600000   1.726228e-04  6.344822e-08
    147    152   2   0.50000    -0.4700000    0.0600000   1.726228e-04  6.344822e-08
    147    153   2   0.50000    -0.4700000    0.0600000   1.726228e-04  6.344822e-08
    145    157   2   0.50000    -0.0600000    0.4700000   1.575021e-03  3.561100e-06
    145    160   2   0.50000    -0.0600000   -0.1200000   1.015252e-03  1.866303e-06
    145    161   2   0.50000    -0.0600000    0.0600000   1.599888e-04  9.721644e-08
    154    157   2   0.50000     0.0600000    0.4700000   3.869820e-04  3.188634e-07
    154    160   2   0.50000     0.0600000   -0.1200000   2.494471e-04  1.671101e-07
    154    161   2   0.50000     0.0600000    0.0600000   3.930919e-05  8.704828e-09
    155    157   2   0.50000     0.0600000    0.4700000   3.869820e-04  3.188634e-07
    155    160   2   0.50000     0.0600000   -0.1200000   2.494471e-04  1.671101e-07
    155    161   2   0.50000     0.0600000    0.0600000   3.930919e-05  8.704828e-09
    149    158   2   0.50000    -0.1200000   -0.4700000   1.095425e-03  1.218041e-06
    149    159   2   0.50000    -0.1200000   -0.1800000   1.015252e-03  1.866303e-06
    160    158   2   0.50000    -0.1200000   -0.4700000   1.095425e-03  1.218041e-06
    160    159   2   0.50000    -0.1200000   -0.1800000   1.015252e-03  1.866303e-06
    161    158   2   0.50000     0.0600000   -0.4700000   1.726228e-04  6.344822e-08
    161    159   2   0.50000     0.0600000   -0.1800000   1.599888e-04  9.721644e-08
    149    165   2   0.50000    -0.1200000    0.0600000   2.494471e-04  1.671101e-07
    149    166   2   0.50000    -0.1200000    0.0600000   2.494471e-04  1.671101e-07
    149    167   2   0.50000    -0.1200000   -0.0600000   1.015252e-03  1.866303e-06
    157    165   2   0.50000     0.4700000    0.0600000   3.869820e-04  3.188634e-07
    157    166   2   0.50000     0.4700000    0.0600000   3.869820e-04  3.188634e-07
    157    167   2   0.50000     0.4700000   -0.0600000   1.575021e-03  3.561100e-06
    161    165   2   0.50000     0.0600000    0.0600000   3.930919e-05  8.704828e-09
    161    166   2   0.50000     0.0600000    0.0600000   3.930919e-05  8.704828e-09
    161    167   2   0.50000     0.0600000   -0.0600000   1.599888e-04  9.721644e-08
    156    162   2   0.50000    -0.0600000    0.0600000   1.599888e-04  9.721644e-08
    156    163   2   0.50000    -0.0600000    0.0600000   1.599888e-04  9.721644e-08
    156    164   2   0.50000    -0.0600000    0.0600000   1.599888e-04  9.721644e-08
    158    162   2   0.50000    -0.4700000    0.0600000   1.726228e-04  6.344822e-08
    158    163   2   0.50000    -0.4700000    0.0600000   1.726228e-04  6.344822e-08
    158    164   2   0.50000    -0.4700000    0.0600000   1.726228e-04  6.344822e-08
    156    168   2   0.50000    -0.0600000    0.4700000   1.575021e-03  3.561100e-06
    156    171   2   0.50000    -0.0600000   -0.1200000   1.015252e-03  1.866303e-06
    156    172   2   0.50000    -0.0600000    0.0600000   1.599888e-04  9.721644e-08
    165    168   2   0.50000     0.0600000    0.4700000   3.869820e-04  3.188634e-07
    165    171   2   0.50000     0.0600000   -0.1200000   2.494471e-04  1.671101e-07
    165    172   2   0.50000     0.0600000    0.0600000   3.930919e-05  8.704828e-09
    166    168   2   0.50000     0.0600000    0.4700000   3.869820e-04  3.188634e-07
    166    171   2   0.50000     0.0600000   -0.1200000   2.494471e-04  1.671101e-07
    166    172   2   0.50000     0.0600000    0.0600000   3.930919e-05  8.704828e-09
    160    169   2   0.50000    -0.1200000   -0.4700000   1.095425e-03  1.218041e-06
    160    170   2   0.50000    -0.1200000   -0.1800000   1.015252e-03  1.866303e-06
    171    169   2   0.50000    -0.1200000   -0.4700000   1.095425e-03  1.218041e-06
    171    170   2   0.50000    -0.1200000   -0.1800000   1.015252e-03  1.866303e-06
    172    169   2   0.50000     0.0600000   -0.4700000   1.726228e-04  6.344822e-08
    172    170   2   0.50000     0.0600000   -0.1800000   1.599888e-04  9.721644e-08
    160    176   2   0.50000    -0.1200000    0.0600000   2.494471e-04  1.671101e-07
    160    177   2   0.50000    -0.1200000    0.0600000   2.494471e-04  1.671101e-07
    160    178   2   0.50000    -0.1200000   -0.0600000   1.015252e-03  1.866303e-06
    168    176   2   0.50000     0.4700000    0.0600000   3.869820e-04  3.188634e-07
    168    177   2   0.50000     0.4700000    0.0600000   3.869820e-04  3.188634e-07
    168    178   2   0.50000     0.4700000   -0.0600000   1.575021e-03  3.561100e-06
    172    176   2   0.50000     0.0600000    0.0600000   3.930919e-05  8.704828e-09
    172    177   2   0.50000     0.0600000    0.0600000   3.930919e-05  8.704828e-09
    172    178   2   0.50000     0.0600000   -0.0600000   1.599888e-04  9.721644e-08
    167    173   2   0.50000    -0.0600000    0.0600000   1.599888e-04  9.721644e-08
    167    174   2   0.50000    -0.0600000    0.0600000   1.599888e-04  9.721644e-08
    167    175   2   0.50000    -0.0600000    0.0600000   1.599888e-04  9.721644e-08
    169    173   2   0.50000    -0.4700000    0.0600000   1.726228e-04  6.344822e-08
    169    174   2   0.50000    -0.4700000    0.0600000   1.726228e-04  6.344822e-08
    169    175   2   0.50000    -0.4700000    0.0600000   1.726228e-04  6.344822e-08
    167    179   2   0.50000    -0.0600000    0.4700000   1.575021e-03  3.561100e-06
    167    182   2   0.50000    -0.0600000   -0.1200000   1.015252e-03  1.866303e-06
    167    183   2   0.50000    -0.0600000    0.0600000   1.599888e-04  9.721644e-08
    176    179   2   0.50000     0.0600000    0.4700000   3.869820e-04  3.188634e-07
    176    182   2   0.50000     0.0600000   -0.1200000   2.494471e-04  1.671101e-07
    176    183   2   0.50000     0.0600000    0.0600000   3.930919e-05  8.704828e-09
    177    179   2   0.50000     0.0600000    0.4700000   3.869820e-04  3.188634e-07
    177    182   2   0.50000     0.0600000   -0.1200000   2.494471e-04  1.671101e-07
    177    183   2   0.50000     0.0600000    0.0600000   3.930919e-05  8.704828e-09
    171    180   2   0.50000    -0.1200000   -0.4700000   1.095425e-03  1.218041e-06
    171    181   2   0.50000    -0.1200000   -0.1800000   1.015252e-03  1.866303e-06
    182    180   2   0.50000    -0.1200000   -0.4700000   1.095425e-03  1.218041e-06
    182    181   2   0.50000    -0.1200000   -0.1800000   1.015252e-03  1.866303e-06
    183    180   2   0.50000     0.0600000   -0.4700000   1.726228e-04  6.344822e-08
    183    181   2   0.50000     0.0600000   -0.1800000   1.599888e-04  9.721644e-08
    171    187   2   0.50000    -0.1200000    0.0600000   2.494471e-04  1.671101e-07
    171    188   2   0.50000    -0.1200000    0.0600000   2.494471e-04  1.671101e-07
    171    189   2   0.50000    -0.1200000   -0.0600000   1.015252e-03  1.866303e-06
    179    187   2   0.50000     0.4700000    0.0600000   3.869820e-04  3.188634e-07
    179    188   2   0.50000     0.4700000    0.0600000   3.869820e-04  3.188634e-07
    179    189   2   0.50000     0.4700000   -0.0600000   1.575021e-03  3.561100e-06
    183    187   2   0.50000     0.0600000    0.0600000   3.930919e-05  8.704828e-09
    183    188   2   0.50000     0.0600000    0.0600000   3.930919e-05  8.704828e-09
    183    189   2   0.50000     0.0600000   -0.0600000   1.599888e-04  9.721644e-08
    178    184   2   0.50000    -0.0600000    0.0600000   1.599888e-04  9.721644e-08
    178    185   2   0.50000    -0.0600000    0.0600000   1.599888e-04  9.721644e-08
    178    186   2   0.50000    -0.0600000    0.0600000   1.599888e-04  9.721644e-08
    180    184   2   0.50000    -0.4700000    0.0600000   1.726228e-04  6.344822e-08
    180    185   2   0.50000    -0.4700000    0.0600000   1.726228e-04  6.344822e-08
    180    186   2   0.50000    -0.4700000    0.0600000   1.726228e-04  6.344822e-08
    178    190   2   0.50000    -0.0600000    0.4700000   1.575021e-03  3.561100e-06
    178    193   2   0.50000    -0.0600000   -0.1200000   1.015252e-03  1.866303e-06
    178    194   2   0.50000    -0.0600000    0.0600000   1.599888e-04  9.721644e-08
    187    190   2   0.50000     0.0600000    0.4700000   3.869820e-04  3.188634e-07
    187    193   2   0.50000     0.0600000   -0.1200000   2.494471e-04  1.671101e-07
    187    194   2   0.50000     0.0600000    0.0600000   3.930919e-05  8.704828e-09
    188    190   2   0.50000     0.0600000    0.4700000   3.869820e-04  3.188634e-07
    188    193   2   0.50000     0.0600000   -0.1200000   2.494471e-04  1.671101e-07
    188    194   2   0.50000     0.0600000    0.0600000   3.930919e-05  8.704828e-09
    182    191   2   0.50000    -0.1200000   -0.4700000   1.095425e-03  1.218041e-06
    182    192   2   0.50000    -0.1200000   -0.1800000   1.015252e-03  1.866303e-06
    193    191   2   0.50000    -0.1200000   -0.4700000   1.095425e-03  1.218041e-06
    193    192   2   0.50000    -0.1200000   -0.1800000   1.015252e-03  1.866303e-06
    194    191   2   0.50000     0.0600000   -0.4700000   1.726228e-04  6.344822e-08
    194    192   2   0.50000     0.0600000   -0.1800000   1.599888e-04  9.721644e-08
    182    198   2   0.50000    -0.1200000    0.0600000   2.494471e-04  1.671101e-07
    182    199   2   0.50000    -0.1200000    0.0600000   2.494471e-04  1.671101e-07
    182    200   2   0.50000    -0.1200000   -0.0600000   1.015252e-03  1.866303e-06
    190    198   2   0.50000     0.4700000    0.0600000   3.869820e-04  3.188634e-07
    190    199   2   0.50000     0.4700000    0.0600000   3.869820e-04  3.188634e-07
    190    200   2   0.50000     0.4700000   -0.0600000   1.575021e-03  3.561100e-06
    194    198   2   0.50000     0.0600000    0.0600000   3.930919e-05  8.704828e-09
    194    199   2   0.50000     0.0600000    0.0600000   3.930919e-05  8.704828e-09
    194    200   2   0.50000     0.0600000   -0.0600000   1.599888e-04  9.721644e-08
    189    195   2   0.50000    -0.0600000    0.0600000   1.599888e-04  9.721644e-08
    189    196   2   0.50000    -0.0600000    0.0600000   1.599888e-04  9.721644e-08
    189    197   2   0.50000    -0.0600000    0.0600000   1.599888e-04  9.721644e-08
    191    195   2   0.50000    -0.4700000    0.0600000   1.726228e-04  6.344822e-08
    191    196   2   0.50000    -0.4700000    0.0600000   1.726228e-04  6.344822e-08
    191    197   2   0.50000    -0.4700000    0.0600000   1.726228e-04  6.344822e-08
    189    201   2   0.50000    -0.0600000    0.4700000   1.575021e-03  3.561100e-06
    189    204   2   0.50000    -0.0600000   -0.1200000   1.015252e-03  1.866303e-06
    189    205   2   0.50000    -0.0600000    0.0600000   1.599888e-04  9.721644e-08
    198    201   2   0.50000     0.0600000    0.4700000   3.869820e-04  3.188634e-07
    198    204   2   0.50000     0.0600000   -0.1200000   2.494471e-04  1.671101e-07
    198    205   2   0.50000     0.0600000    0.0600000   3.930919e-05  8.704828e-09
    199    201   2   0.50000     0.0600000    0.4700000   3.869820e-04  3.188634e-07
    199    204   2   0.50000     0.0600000   -0.1200000   2.494471e-04  1.671101e-07
    199    205   2   0.50000     0.0600000    0.0600000   3.930919e-05  8.704828e-09
    193    202   2   0.50000    -0.1200000   -0.4700000   1.095425e-03  1.218041e-06
    193    203   2   0.50000    -0.1200000   -0.1800000   1.015252e-03  1.866303e-06
    204    202   2   0.50000    -0.1200000   -0.4700000   1.095425e-03  1.218041e-06
    204    203   2   0.50000    -0.1200000   -0.1800000   1.015252e-03  1.866303e-06
    205    202   2   0.50000     0.0600000   -0.4700000   1.726228e-04  6.344822e-08
    205    203   2   0.50000     0.0600000   -0.1800000   1.599888e-04  9.721644e-08
    193    209   2   0.50000    -0.1200000    0.0600000   2.494471e-04  1.671101e-07
    193    210   2   0.50000    -0.1200000    0.0600000   2.494471e-04  1.671101e-07
    193    211   2   0.50000    -0.1200000   -0.0600000   1.015252e-03  1.866303e-06
    201    209   2   0.50000     0.4700000    0.0600000   3.869820e-04  3.188634e-07
    201    210   2   0.50000     0.4700000    0.0600000   3.869820e-04  3.188634e-07
    201    211   2   0.50000     0.4700000   -0.0600000   1.575021e-03  3.561100e-06
    205    209   2   0.50000     0.0600000    0.0600000   3.930919e-05  8.704828e-09
    205    210   2   0.50000     0.0600000    0.0600000   3.930919e-05  8.704828e-09
    205    211   2   0.50000     0.0600000   -0.0600000   1.599888e-04  9.721644e-08
    200    206   2   0.50000    -0.0600000    0.0600000   1.599888e-04  9.721644e-08
    200    207   2   0.50000    -0.0600000    0.0600000   1.599888e-04  9.721644e-08
    200    208   2   0.50000    -0.0600000    0.0600000   1.599888e-04  9.721644e-08
    202    206   2   0.50000    -0.4700000    0.0600000   1.726228e-04  6.344822e-08
    202    207   2   0.50000    -0.4700000    0.0600000   1.726228e-04  6.344822e-08
    202    208   2   0.50000    -0.4700000    0.0600000   1.726228e-04  6.344822e-08
    200    212   2   0.50000    -0.0600000    0.4700000   1.575021e-03  3.561100e-06
    200    215   2   0.50000    -0.0600000   -0.1800000   1.015252e-03  1.866303e-06
    200    216   2   0.50000    -0.0600000    0.0600000   1.599888e-04  9.721644e-08
    209    212   2   0.50000     0.0600000    0.4700000   3.869820e-04  3.188634e-07
    209    215   2   0.50000     0.0600000   -0.1800000   2.494471e-04  1.671101e-07
    209    216   2   0.50000     0.0600000    0.0600000   3.930919e-05  8.704828e-09
    210    212   2   0.50000     0.0600000    0.4700000   3.869820e-04  3.188634e-07
    210    215   2   0.50000     0.0600000   -0.1800000   2.494471e-04  1.671101e-07
    210    216   2   0.50000     0.0600000    0.0600000   3.930919e-05  8.704828e-09
    204    213   2   0.50000    -0.1200000   -0.4700000   1.095425e-03  1.218041e-06
    204    214   2   0.50000    -0.1200000   -0.1800000   1.015252e-03  1.866303e-06
    215    213   2   0.50000    -0.1800000   -0.4700000   1.095425e-03  1.218041e-06
    215    214   2   0.50000    -0.1800000   -0.1800000   1.015252e-03  1.866303e-06
    216    213   2   0.50000     0.0600000   -0.4700000   1.726228e-04  6.344822e-08
    216    214   2   0.50000     0.0600000   -0.1800000   1.599888e-04  9.721644e-08
    204    220   2   0.50000    -0.1200000    0.0600000   2.494471e-04  1.671101e-07
    204    221   2   0.50000    -0.1200000    0.0600000   2.494471e-04  1.671101e-07
    204    222   2   0.50000    -0.1200000    0.0600000   2.494471e-04  1.671101e-07
    212    220   2   0.50000     0.4700000    0.0600000   3.869820e-04  3.188634e-07
    212    221   2   0.50000     0.4700000    0.0600000   3.869820e-04  3.188634e-07
    212    222   2   0.50000     0.4700000    0.0600000   3.869820e-04  3.188634e-07
    216    220   2   0.50000     0.0600000    0.0600000   3.930919e-05  8.704828e-09
    216    221   2   0.50000     0.0600000    0.0600000   3.930919e-05  8.704828e-09
    216    222   2   0.50000     0.0600000    0.0600000   3.930919e-05  8.704828e-09
    211    217   2   0.50000    -0.0600000    0.0600000   1.599888e-04  9.721644e-08
    211    218   2   0.50000    -0.0600000    0.0600000   1.599888e-04  9.721644e-08
    211    219   2   0.50000    -0.0600000    0.0600000   1.599888e-04  9.721644e-08
    213    217   2   0.50000    -0.4700000    0.0600000   1.726228e-04  6.344822e-08
    213    218   2   0.50000    -0.4700000    0.0600000   1.726228e-04  6.344822e-08
    213    219   2   0.50000    -0.4700000    0.0600000   1.726228e-04  6.344822e-08

[ angles ]
; ai  aj  ak
      2      1      5   1    111.1000    527.1840
      2      1      6   1    109.5000    292.8800
      2      1     12   1    109.5000    292.8800
      5      1      6   1    110.7000    313.8000
      5      1     12   1    110.7000    313.8000
      6      1     12   1    107.8000    276.1440
      1      2      3   1    120.4000    669.4400
      1      2      4   1    116.0000    585.7600
      3      2      4   1    120.4000    669.4400
      2      4      7   1    109.5000    292.8800
      2      4      8   1    109.5000    292.8800
      2      4      9   1    109.5000    292.8800
      7      4      8   1    107.8000    276.1440
      7      4      9   1    107.8000    276.1440
      8      4      9   1    107.8000    276.1440
      1      5     10   1    110.7000    313.8000
      1      5     11   1    110.7000    313.8000
      1      5     13   1    112.7000    488.2728
     10      5     11   1    107.8000    276.1440
     10      5     13   1    110.7000    313.8000
     11      5     13   1    110.7000    313.8000
      5     13     14   1    111.1000    527.1840
      5     13     17   1    112.7000    488.2728
      5     13     18   1    110.7000    313.8000
     14     13     17   1    111.1000    527.1840
     14     13     18   1    109.5000    292.8800
     17     13     18   1    110.7000    313.8000
     13     14     15   1    120.4000    669.4400
     13     14     16   1    116.0000    585.7600
     15     14     16   1    120.4000    669.4400
     14     16     19   1    109.5000    292.8800
     14     16     20   1    109.5000    292.8800
     14     16     21   1    109.5000    292.8800
     19     16     20   1    107.8000    276.1440
     19     16     21   1    107.8000    276.1440
     20     16     21   1    107.8000    276.1440
     13     17     22   1    110.7000    313.8000
     13     17     23   1    110.7000    313.8000
     13     17     24   1    112.7000    488.2728
     22     17     23   1    107.8000    276.1440
     22     17     24   1    110.7000    313.8000
     23     17     24   1    110.7000    313.8000
     17     24     25   1    111.1000    527.1840
     17     24     28   1    112.7000    488.2728
     17     24     29   1    110.7000    313.8000
     25     24     28   1    111.1000    527.1840
     25     24     29   1    109.5000    292.8800
     28     24     29   1    110.7000    313.8000
     24     25     26   1    120.4000    669.4400
     24     25     27   1    116.0000    585.7600
     26     25     27   1    120.4000    669.4400
     25     27     30   1    109.5000    292.8800
     25     27     31   1    109.5000    292.8800
     25     27     32   1    109.5000    292.8800
     30     27     31   1    107.8000    276.1440
     30     27     32   1    107.8000    276.1440
     31     27     32   1    107.8000    276.1440
     24     28     33   1    110.7000    313.8000
     24     28     34   1    110.7000    313.8000
     24     28     35   1    112.7000    488.2728
     33     28     34   1    107.8000    276.1440
     33     28     35   1    110.7000    313.8000
     34     28     35   1    110.7000    313.8000
     28     35     36   1    111.1000    527.1840
     28     35     39   1    112.7000    488.2728
     28     35     40   1    110.7000    313.8000
     36     35     39   1    111.1000    527.1840
     36     35     40   1    109.5000    292.8800
     39     35     40   1    110.7000    313.8000
     35     36     37   1    120.4000    669.4400
     35     36     38   1    116.0000    585.7600
     37     36     38   1    120.4000    669.4400
     36     38     41   1    109.5000    292.8800
     36     38     42   1    109.5000    292.8800
     36     38     43   1    109.5000    292.8800
     41     38     42   1    107.8000    276.1440
     41     38     43   1    107.8000    276.1440
     42     38     43   1    107.8000    276.1440
     35     39     44   1    110.7000    313.8000
     35     39     45   1    110.7000    313.8000
     35     39     46   1    112.7000    488.2728
     44     39     45   1    107.8000    276.1440
     44     39     46   1    110.7000    313.8000
     45     39     46   1    110.7000    313.8000
     39     46     47   1    111.1000    527.1840
     39     46     50   1    112.7000    488.2728
     39     46     51   1    110.7000    313.8000
     47     46     50   1    111.1000    527.1840
     47     46     51   1    109.5000    292.8800
     50     46     51   1    110.7000    313.8000
     46     47     48   1    120.4000    669.4400
     46     47     49   1    116.0000    585.7600
     48     47     49   1    120.4000    669.4400
     47     49     52   1    109.5000    292.8800
     47     49     53   1    109.5000    292.8800
     47     49     54   1    109.5000    292.8800
     52     49     53   1    107.8000    276.1440
     52     49     54   1    107.8000    276.1440
     53     49     54   1    107.8000    276.1440
     46     50     55   1    110.7000    313.8000
     46     50     56   1    110.7000    313.8000
     46     50     57   1    112.7000    488.2728
     55     50     56   1    107.8000    276.1440
     55     50     57   1    110.7000    313.8000
     56     50     57   1    110.7000    313.8000
     50     57     58   1    111.1000    527.1840
     50     57     61   1    112.7000    488.2728
     50     57     62   1    110.7000    313.8000
     58     57     61   1    111.1000    527.1840
     58     57     62   1    109.5000    292.8800
     61     57     62   1    110.7000    313.8000
     57     58     59   1    120.4000    669.4400
     57     58     60   1    116.0000    585.7600
     59     58     60   1    120.4000    669.4400
     58     60     63   1    109.5000    292.8800
     58     60     64   1    109.5000    292.8800
     58     60     65   1    109.5000    292.8800
     63     60     64   1    107.8000    276.1440
     63     60     65   1    107.8000    276.1440
     64     60     65   1    107.8000    276.1440
     57     61     66   1    110.7000    313.8000
     57     61     67   1    110.7000    313.8000
     57     61     68   1    112.7000    488.2728
     66     61     67   1    107.8000    276.1440
     66     61     68   1    110.7000    313.8000
     67     61     68   1    110.7000    313.8000
     61     68     69   1    111.1000    527.1840
     61     68     72   1    112.7000    488.2728
     61     68     73   1    110.7000    313.8000
     69     68     72   1    111.1000    527.1840
     69     68     73   1    109.5000    292.8800
     72     68     73   1    110.7000    313.8000
     68     69     70   1    120.4000    669.4400
     68     69     71   1    116.0000    585.7600
     70     69     71   1    120.4000    669.4400
     69     71     74   1    109.5000    292.8800
     69     71     75   1    109.5000    292.8800
     69     71     76   1    109.5000    292.8800
     74     71     75   1    107.8000    276.1440
     74     71     76   1    107.8000    276.1440
     75     71     76   1    107.8000    276.1440
     68     72     77   1    110.7000    313.8000
     68     72     78   1    110.7000    313.8000
     68     72     79   1    112.7000    488.2728
     77     72     78   1    107.8000    276.1440
     77     72     79   1    110.7000    313.8000
     78     72     79   1    110.7000    313.8000
     72     79     80   1    111.1000    527.1840
     72     79     83   1    112.7000    488.2728
     72     79     84   1    110.7000    313.8000
     80     79     83   1    111.1000    527.1840
     80     79     84   1    109.5000    292.8800
     83     79     84   1    110.7000    313.8000
     79     80     81   1    120.4000    669.4400
     79     80     82   1    116.0000    585.7600
     81     80     82   1    120.4000    669.4400
     80     82     85   1    109.5000    292.8800
     80     82     86   1    109.5000    292.8800
     80     82     87   1    109.5000    292.8800
     85     82     86   1    107.8000    276.1440
     85     82     87   1    107.8000    276.1440
     86     82     87   1    107.8000    276.1440
     79     83     88   1    110.7000    313.8000
     79     83     89   1    110.7000    313.8000
     79     83     90   1    112.7000    488.2728
     88     83     89   1    107.8000    276.1440
     88     83     90   1    110.7000    313.8000
     89     83     90   1    110.7000    313.8000
     83     90     91   1    111.1000    527.1840
     83     90     94   1    112.7000    488.2728
     83     90     95   1    110.7000    313.8000
     91     90     94   1    111.1000    527.1840
     91     90     95   1    109.5000    292.8800
     94     90     95   1    110.7000    313.8000
     90     91     92   1    120.4000    669.4400
     90     91     93   1    116.0000    585.7600
     92     91     93   1    120.4000    669.4400
     91     93     96   1    109.5000    292.8800
     91     93     97   1    109.5000    292.8800
     91     93     98   1    109.5000    292.8800
     96     93     97   1    107.8000    276.1440
     96     93     98   1    107.8000    276.1440
     97     93     98   1    107.8000    276.1440
     90     94     99   1    110.7000    313.8000
     90     94    100   1    110.7000    313.8000
     90     94    101   1    112.7000    488.2728
     99     94    100   1    107.8000    276.1440
     99     94    101   1    110.7000    313.8000
    100     94    101   1    110.7000    313.8000
     94    101    102   1    111.1000    527.1840
     94    101    105   1    112.7000    488.2728
     94    101    106   1    110.7000    313.8000
    102    101    105   1    111.1000    527.1840
    102    101    106   1    109.5000    292.8800
    105    101    106   1    110.7000    313.8000
    101    102    103   1    120.4000    669.4400
    101    102    104   1    116.0000    585.7600
    103    102    104   1    120.4000    669.4400
    102    104    107   1    109.5000    292.8800
    102    104    108   1    109.5000    292.8800
    102    104    109   1    109.5000    292.8800
    107    104    108   1    107.8000    276.1440
    107    104    109   1    107.8000    276.1440
    108    104    109   1    107.8000    276.1440
    101    105    110   1    110.7000    313.8000
    101    105    111   1    110.7000    313.8000
    101    105    112   1    112.7000    488.2728
    110    105    111   1    107.8000    276.1440
    110    105    112   1    110.7000    313.8000
    111    105    112   1    110.7000    313.8000
    105    112    113   1    111.1000    527.1840
    105    112    116   1    112.7000    488.2728
    105    112    117   1    110.7000    313.8000
    113    112    116   1    111.1000    527.1840
    113    112    117   1    109.5000    292.8800
    116    112    117   1    110.7000    313.8000
    112    113    114   1    120.4000    669.4400
    112    113    115   1    116.0000    585.7600
    114    113    115   1    120.4000    669.4400
    113    115    118   1    109.5000    292.8800
    113    115    119   1    109.5000    292.8800
    113    115    120   1    109.5000    292.8800
    118    115    119   1    107.8000    276.1440
    118    115    120   1    107.8000    276.1440
    119    115    120   1    107.8000    276.1440
    112    116    121   1    110.7000    313.8000
    112    116    122   1    110.7000    313.8000
    112    116    123   1    112.7000    488.2728
    121    116    122   1    107.8000    276.1440
    121    116    123   1    110.7000    313.8000
    122    116    123   1    110.7000    313.8000
    116    123    124   1    111.1000    527.1840
    116    123    127   1    112.7000    488.2728
    116    123    128   1    110.7000    313.8000
    124    123    127   1    111.1000    527.1840
    124    123    128   1    109.5000    292.8800
    127    123    128   1    110.7000    313.8000
    123    124    125   1    120.4000    669.4400
    123    124    126   1    116.0000    585.7600
    125    124    126   1    120.4000    669.4400
    124    126    129   1    109.5000    292.8800
    124    126    130   1    109.5000    292.8800
    124    126    131   1    109.5000    292.8800
    129    126    130   1    107.8000    276.1440
    129    126    131   1    107.8000    276.1440
    130    126    131   1    107.8000    276.1440
    123    127    132   1    110.7000    313.8000
    123    127    133   1    110.7000    313.8000
    123    127    134   1    112.7000    488.2728
    132    127    133   1    107.8000    276.1440
    132    127    134   1    110.7000    313.8000
    133    127    134   1    110.7000    313.8000
    127    134    135   1    111.1000    527.1840
    127    134    138   1    112.7000    488.2728
    127    134    139   1    110.7000    313.8000
    135    134    138   1    111.1000    527.1840
    135    134    139   1    109.5000    292.8800
    138    134    139   1    110.7000    313.8000
    134    135    136   1    120.4000    669.4400
    134    135    137   1    116.0000    585.7600
    136    135    137   1    120.4000    669.4400
    135    137    140   1    109.5000    292.8800
    135    137    141   1    109.5000    292.8800
    135    137    142   1    109.5000    292.8800
    140    137    141   1    107.8000    276.1440
    140    137    142   1    107.8000    276.1440
    141    137    142   1    107.8000    276.1440
    134    138    143   1    110.7000    313.8000
    134    138    144   1    110.7000    313.8000
    134    138    145   1    112.7000    488.2728
    143    138    144   1    107.8000    276.1440
    143    138    145   1    110.7000    313.8000
    144    138    145   1    110.7000    313.8000
    138    145    146   1    111.1000    527.1840
    138    145    149   1    112.7000    488.2728
    138    145    150   1    110.7000    313.8000
    146    145    149   1    111.1000    527.1840
    146    145    150   1    109.5000    292.8800
    149    145    150   1    110.7000    313.8000
    145    146    147   1    120.4000    669.4400
    145    146    148   1    116.0000    585.7600
    147    146    148   1    120.4000    669.4400
    146    148    151   1    109.5000    292.8800
    146    148    152   1    109.5000    292.8800
    146    148    153   1    109.5000    292.8800
    151    148    152   1    107.8000    276.1440
    151    148    153   1    107.8000    276.1440
    152    148    153   1    107.8000    276.1440
    145    149    154   1    110.7000    313.8000
    145    149    155   1    110.7000    313.8000
    145    149    156   1    112.7000    488.2728
    154    149    155   1    107.8000    276.1440
    154    149    156   1    110.7000    313.8000
    155    149    156   1    110.7000    313.8000
    149    156    157   1    111.1000    527.1840
    149    156    160   1    112.7000    488.2728
    149    156    161   1    110.7000    313.8000
    157    156    160   1    111.1000    527.1840
    157    156    161   1    109.5000    292.8800
    160    156    161   1    110.7000    313.8000
    156    157    158   1    120.4000    669.4400
    156    157    159   1    116.0000    585.7600
    158    157    159   1    120.4000    669.4400
    157    159    162   1    109.5000    292.8800
    157    159    163   1    109.5000    292.8800
    157    159    164   1    109.5000    292.8800
    162    159    163   1    107.8000    276.1440
    162    159    164   1    107.8000    276.1440
    163    159    164   1    107.8000    276.1440
    156    160    165   1    110.7000    313.8000
    156    160    166   1    110.7000    313.8000
    156    160    167   1    112.7000    488.2728
    165    160    166   1    107.8000    276.1440
    165    160    167   1    110.7000    313.8000
    166    160    167   1    110.7000    313.8000
    160    167    168   1    111.1000    527.1840
    160    167    171   1    112.7000    488.2728
    160    167    172   1    110.7000    313.8000
    168    167    171   1    111.1000    527.1840
    168    167    172   1    109.5000    292.8800
    171    167    172   1    110.7000    313.8000
    167    168    169   1    120.4000    669.4400
    167    168    170   1    116.0000    585.7600
    169    168    170   1    120.4000    669.4400
    168    170    173   1    109.5000    292.8800
    168    170    174   1    109.5000    292.8800
    168    170    175   1    109.5000    292.8800
    173    170    174   1    107.8000    276.1440
    173    170    175   1    107.8000    276.1440
    174    170    175   1    107.8000    276.1440
    167    171    176   1    110.7000    313.8000
    167    171    177   1    110.7000    313.8000
    167    171    178   1    112.7000    488.2728
    176    171    177   1    107.8000    276.1440
    176    171    178   1    110.7000    313.8000
    177    171    178   1    110.7000    313.8000
    171    178    179   1    111.1000    527.1840
    171    178    182   1    112.7000    488.2728
    171    178    183   1    110.7000    313.8000
    179    178    182   1    111.1000    527.1840
    179    178    183   1    109.5000    292.8800
    182    178    183   1    110.7000    313.8000
    178    179    180   1    120.4000    669.4400
    178    179    181   1    116.0000    585.7600
    180    179    181   1    120.4000    669.4400
    179    181    184   1    109.5000    292.8800
    179    181    185   1    109.5000    292.8800
    179    181    186   1    109.5000    292.8800
    184    181    185   1    107.8000    276.1440
    184    181    186   1    107.8000    276.1440
    185    181    186   1    107.8000    276.1440
    178    182    187   1    110.7000    313.8000
    178    182    188   1    110.7000    313.8000
    178    182    189   1    112.7000    488.2728
    187    182    188   1    107.8000    276.1440
    187    182    189   1    110.7000    313.8000
    188    182    189   1    110.7000    313.8000
    182    189    190   1    111.1000    527.1840
    182    189    193   1    112.7000    488.2728
    182    189    194   1    110.7000    313.8000
    190    189    193   1    111.1000    527.1840
    190    189    194   1    109.5000    292.8800
    193    189    194   1    110.7000    313.8000
    189    190    191   1    120.4000    669.4400
    189    190    192   1    116.0000    585.7600
    191    190    192   1    120.4000    669.4400
    190    192    195   1    109.5000    292.8800
    190    192    196   1    109.5000    292.8800
    190    192    197   1    109.5000    292.8800
    195    192    196   1    107.8000    276.1440
    195    192    197   1    107.8000    276.1440
    196    192    197   1    107.8000    276.1440
    189    193    198   1    110.7000    313.8000
    189    193    199   1    110.7000    313.8000
    189    193    200   1    112.7000    488.2728
    198    193    199   1    107.8000    276.1440
    198    193    200   1    110.7000    313.8000
    199    193    200   1    110.7000    313.8000
    193    200    201   1    111.1000    527.1840
    193    200    204   1    112.7000    488.2728
    193    200    205   1    110.7000    313.8000
    201    200    204   1    111.1000    527.1840
    201    200    205   1    109.5000    292.8800
    204    200    205   1    110.7000    313.8000
    200    201    202   1    120.4000    669.4400
    200    201    203   1    116.0000    585.7600
    202    201    203   1    120.4000    669.4400
    201    203    206   1    109.5000    292.8800
    201    203    207   1    109.5000    292.8800
    201    203    208   1    109.5000    292.8800
    206    203    207   1    107.8000    276.1440
    206    203    208   1    107.8000    276.1440
    207    203    208   1    107.8000    276.1440
    200    204    209   1    110.7000    313.8000
    200    204    210   1    110.7000    313.8000
    200    204    211   1    112.7000    488.2728
    209    204    210   1    107.8000    276.1440
    209    204    211   1    110.7000    313.8000
    210    204    211   1    110.7000    313.8000
    204    211    212   1    111.1000    527.1840
    204    211    215   1    112.7000    488.2728
    204    211    216   1    110.7000    313.8000
    212    211    215   1    111.1000    527.1840
    212    211    216   1    109.5000    292.8800
    215    211    216   1    110.7000    313.8000
    211    212    213   1    120.4000    669.4400
    211    212    214   1    116.0000    585.7600
    213    212    214   1    120.4000    669.4400
    212    214    217   1    109.5000    292.8800
    212    214    218   1    109.5000    292.8800
    212    214    219   1    109.5000    292.8800
    217    214    218   1    107.8000    276.1440
    217    214    219   1    107.8000    276.1440
    218    214    219   1    107.8000    276.1440
    211    215    220   1    110.7000    313.8000
    211    215    221   1    110.7000    313.8000
    211    215    222   1    110.7000    313.8000
    220    215    221   1    107.8000    276.1440
    220    215    222   1    107.8000    276.1440
    221    215    222   1    107.8000    276.1440

[ dihedrals ]
; Proper dihedrals
      5      1      2      3   5     0.00000     2.52295     0.00000  0.0
      5      1      2      4   5     5.02498     0.46861     2.18823  0.0
      6      1      2      3   5     0.00000     0.00000     0.00000  0.0
      6      1      2      4   5     0.00000     0.00000     0.00000  0.0
     12      1      2      3   5     0.00000     0.00000     0.00000  0.0
     12      1      2      4   5     0.00000     0.00000     0.00000  0.0
      2      1      5     10   5     0.00000     0.00000    -0.94140  0.0
      2      1      5     11   5     0.00000     0.00000    -0.94140  0.0
      2      1      5     13   5    -8.00818    -1.52298     2.46438  0.0
      6      1      5     10   5     0.00000     0.00000     1.25520  0.0
      6      1      5     11   5     0.00000     0.00000     1.25520  0.0
      6      1      5     13   5     0.00000     0.00000     1.25520  0.0
     12      1      5     10   5     0.00000     0.00000     1.25520  0.0
     12      1      5     11   5     0.00000     0.00000     1.25520  0.0
     12      1      5     13   5     0.00000     0.00000     1.25520  0.0
      1      2      4      7   5     0.00000     0.00000     0.00000  0.0
      1      2      4      8   5     0.00000     0.00000     0.00000  0.0
      1      2      4      9   5     0.00000     0.00000     0.00000  0.0
      3      2      4      7   5     0.00000     0.00000     0.00000  0.0
      3      2      4      8   5     0.00000     0.00000     0.00000  0.0
      3      2      4      9   5     0.00000     0.00000     0.00000  0.0
      1      5     13     14   5    -8.00818    -1.52298     2.46438  0.0
      1      5     13     17   5     4.74884    -0.63178     1.67360  0.0
      1      5     13     18   5     0.00000     0.00000     1.25520  0.0
     10      5     13     14   5     0.00000     0.00000    -0.94140  0.0
     10      5     13     17   5     0.00000     0.00000     1.25520  0.0
     10      5     13     18   5     0.00000     0.00000     1.25520  0.0
     11      5     13     14   5     0.00000     0.00000    -0.94140  0.0
     11      5     13     17   5     0.00000     0.00000     1.25520  0.0
     11      5     13     18   5     0.00000     0.00000     1.25520  0.0
      5     13     14     15   5     0.00000     2.52295     0.00000  0.0
      5     13     14     16   5     5.02498     0.46861     2.18823  0.0
     17     13     14     15   5     0.00000     2.52295     0.00000  0.0
     17     13     14     16   5     5.02498     0.46861     2.18823  0.0
     18     13     14     15   5     0.00000     0.00000     0.00000  0.0
     18     13     14     16   5     0.00000     0.00000     0.00000  0.0
      5     13     17     22   5     0.00000     0.00000     1.25520  0.0
      5     13     17     23   5     0.00000     0.00000     1.25520  0.0
      5     13     17     24   5     4.74884    -0.63178     1.67360  0.0
     14     13     17     22   5     0.00000     0.00000    -0.94140  0.0
     14     13     17     23   5     0.00000     0.00000    -0.94140  0.0
     14     13     17     24   5    -8.00818    -1.52298     2.46438  0.0
     18     13     17     22   5     0.00000     0.00000     1.25520  0.0
     18     13     17     23   5     0.00000     0.00000     1.25520  0.0
     18     13     17     24   5     0.00000     0.00000     1.25520  0.0
     13     14     16     19   5     0.00000     0.00000     0.00000  0.0
     13     14     16     20   5     0.00000     0.00000     0.00000  0.0
     13     14     16     21   5     0.00000     0.00000     0.00000  0.0
     15     14     16     19   5     0.00000     0.00000     0.00000  0.0
     15     14     16     20   5     0.00000     0.00000     0.00000  0.0
     15     14     16     21   5     0.00000     0.00000     0.00000  0.0
     13     17     24     25   5    -8.00818    -1.52298     2.46438  0.0
     13     17     24     28   5     4.74884    -0.63178     1.67360  0.0
     13     17     24     29   5     0.00000     0.00000     1.25520  0.0
     22     17     24     25   5     0.00000     0.00000    -0.94140  0.0
     22     17     24     28   5     0.00000     0.00000     1.25520  0.0
     22     17     24     29   5     0.00000     0.00000     1.25520  0.0
     23     17     24     25   5     0.00000     0.00000    -0.94140  0.0
     23     17     24     28   5     0.00000     0.00000     1.25520  0.0
     23     17     24     29   5     0.00000     0.00000     1.25520  0.0
     17     24     25     26   5     0.00000     2.52295     0.00000  0.0
     17     24     25     27   5     5.02498     0.46861     2.18823  0.0
     28     24     25     26   5     0.00000     2.52295     0.00000  0.0
     28     24     25     27   5     5.02498     0.46861     2.18823  0.0
     29     24     25     26   5     0.00000     0.00000     0.00000  0.0
     29     24     25     27   5     0.00000     0.00000     0.00000  0.0
     17     24     28     33   5     0.00000     0.00000     1.25520  0.0
     17     24     28     34   5     0.00000     0.00000     1.25520  0.0
     17     24     28     35   5     4.74884    -0.63178     1.67360  0.0
     25     24     28     33   5     0.00000     0.00000    -0.94140  0.0
     25     24     28     34   5     0.00000     0.00000    -0.94140  0.0
     25     24     28     35   5    -8.00818    -1.52298     2.46438  0.0
     29     24     28     33   5     0.00000     0.00000     1.25520  0.0
     29     24     28     34   5     0.00000     0.00000     1.25520  0.0
     29     24     28     35   5     0.00000     0.00000     1.25520  0.0
     24     25     27     30   5     0.00000     0.00000     0.00000  0.0
     24     25     27     31   5     0.00000     0.00000     0.00000  0.0
     24     25     27     32   5     0.00000     0.00000     0.00000  0.0
     26     25     27     30   5     0.00000     0.00000     0.00000  0.0
     26     25     27     31   5     0.00000     0.00000     0.00000  0.0
     26     25     27     32   5     0.00000     0.00000     0.00000  0.0
     24     28     35     36   5    -8.00818    -1.52298     2.46438  0.0
     24     28     35     39   5     4.74884    -0.63178     1.67360  0.0
     24     28     35     40   5     0.00000     0.00000     1.25520  0.0
     33     28     35     36   5     0.00000     0.00000    -0.94140  0.0
     33     28     35     39   5     0.00000     0.00000     1.25520  0.0
     33     28     35     40   5     0.00000     0.00000     1.25520  0.0
     34     28     35     36   5     0.00000     0.00000    -0.94140  0.0
     34     28     35     39   5     0.00000     0.00000     1.25520  0.0
     34     28     35     40   5     0.00000     0.00000     1.25520  0.0
     28     35     36     37   5     0.00000     2.52295     0.00000  0.0
     28     35     36     38   5     5.02498     0.46861     2.18823  0.0
     39     35     36     37   5     0.00000     2.52295     0.00000  0.0
     39     35     36     38   5     5.02498     0.46861     2.18823  0.0
     40     35     36     37   5     0.00000     0.00000     0.00000  0.0
     40     35     36     38   5     0.00000     0.00000     0.00000  0.0
     28     35     39     44   5     0.00000     0.00000     1.25520  0.0
     28     35     39     45   5     0.00000     0.00000     1.25520  0.0
     28     35     39     46   5     4.74884    -0.63178     1.67360  0.0
     36     35     39     44   5     0.00000     0.00000    -0.94140  0.0
     36     35     39     45   5     0.00000     0.00000    -0.94140  0.0
     36     35     39     46   5    -8.00818    -1.52298     2.46438  0.0
     40     35     39     44   5     0.00000     0.00000     1.25520  0.0
     40     35     39     45   5     0.00000     0.00000     1.25520  0.0
     40     35     39     46   5     0.00000     0.00000     1.25520  0.0
     35     36     38     41   5     0.00000     0.00000     0.00000  0.0
     35     36     38     42   5     0.00000     0.00000     0.00000  0.0
     35     36     38     43   5     0.00000     0.00000     0.00000  0.0
     37     36     38     41   5     0.00000     0.00000     0.00000  0.0
     37     36     38     42   5     0.00000     0.00000     0.00000  0.0
     37     36     38     43   5     0.00000     0.00000     0.00000  0.0
     35     39     46     47   5    -8.00818    -1.52298     2.46438  0.0
     35     39     46     50   5     4.74884    -0.63178     1.67360  0.0
     35     39     46     51   5     0.00000     0.00000     1.25520  0.0
     44     39     46     47   5     0.00000     0.00000    -0.94140  0.0
     44     39     46     50   5     0.00000     0.00000     1.25520  0.0
     44     39     46     51   5     0.00000     0.00000     1.25520  0.0
     45     39     46     47   5     0.00000     0.00000    -0.94140  0.0
     45     39     46     50   5     0.00000     0.00000     1.25520  0.0
     45     39     46     51   5     0.00000     0.00000     1.25520  0.0
     39     46     47     48   5     0.00000     2.52295     0.00000  0.0
     39     46     47     49   5     5.02498     0.46861     2.18823  0.0
     50     46     47     48   5     0.00000     2.52295     0.00000  0.0
     50     46     47     49   5     5.02498     0.46861     2.18823  0.0
     51     46     47     48   5     0.00000     0.00000     0.00000  0.0
     51     46     47     49   5     0.00000     0.00000     0.00000  0.0
     39     46     50     55   5     0.00000     0.00000     1.25520  0.0
     39     46     50     56   5     0.00000     0.00000     1.25520  0.0
     39     46     50     57   5     4.74884    -0.63178     1.67360  0.0
     47     46     50     55   5     0.00000     0.00000    -0.94140  0.0
     47     46     50     56   5     0.00000     0.00000    -0.94140  0.0
     47     46     50     57   5    -8.00818    -1.52298     2.46438  0.0
     51     46     50     55   5     0.00000     0.00000     1.25520  0.0
     51     46     50     56   5     0.00000     0.00000     1.25520  0.0
     51     46     50     57   5     0.00000     0.00000     1.25520  0.0
     46     47     49     52   5     0.00000     0.00000     0.00000  0.0
     46     47     49     53   5     0.00000     0.00000     0.00000  0.0
     46     47     49     54   5     0.00000     0.00000     0.00000  0.0
     48     47     49     52   5     0.00000     0.00000     0.00000  0.0
     48     47     49     53   5     0.00000     0.00000     0.00000  0.0
     48     47     49     54   5     0.00000     0.00000     0.00000  0.0
     46     50     57     58   5    -8.00818    -1.52298     2.46438  0.0
     46     50     57     61   5     4.74884    -0.63178     1.67360  0.0
     46     50     57     62   5     0.00000     0.00000     1.25520  0.0
     55     50     57     58   5     0.00000     0.00000    -0.94140  0.0
     55     50     57     61   5     0.00000     0.00000     1.25520  0.0
     55     50     57     62   5     0.00000     0.00000     1.25520  0.0
     56     50     57     58   5     0.00000     0.00000    -0.94140  0.0
     56     50     57     61   5     0.00000     0.00000     1.25520  0.0
     56     50     57     62   5     0.00000     0.00000     1.25520  0.0
     50     57     58     59   5     0.00000     2.52295     0.00000  0.0
     50     57     58     60   5     5.02498     0.46861     2.18823  0.0
     61     57     58     59   5     0.00000     2.52295     0.00000  0.0
     61     57     58     60   5     5.02498     0.46861     2.18823  0.0
     62     57     58     59   5     0.00000     0.00000     0.00000  0.0
     62     57     58     60   5     0.00000     0.00000     0.00000  0.0
     50     57     61     66   5     0.00000     0.00000     1.25520  0.0
     50     57     61     67   5     0.00000     0.00000     1.25520  0.0
     50     57     61     68   5     4.74884    -0.63178     1.67360  0.0
     58     57     61     66   5     0.00000     0.00000    -0.94140  0.0
     58     57     61     67   5     0.00000     0.00000    -0.94140  0.0
     58     57     61     68   5    -8.00818    -1.52298     2.46438  0.0
     62     57     61     66   5     0.00000     0.00000     1.25520  0.0
     62     57     61     67   5     0.00000     0.00000     1.25520  0.0
     62     57     61     68   5     0.00000     0.00000     1.25520  0.0
     57     58     60     63   5     0.00000     0.00000     0.00000  0.0
     57     58     60     64   5     0.00000     0.00000     0.00000  0.0
     57     58     60     65   5     0.00000     0.00000     0.00000  0.0
     59     58     60     63   5     0.00000     0.00000     0.00000  0.0
     59     58     60     64   5     0.00000     0.00000     0.00000  0.0
     59     58     60     65   5     0.00000     0.00000     0.00000  0.0
     57     61     68     69   5    -8.00818    -1.52298     2.46438  0.0
     57     61     68     72   5     4.74884    -0.63178     1.67360  0.0
     57     61     68     73   5     0.00000     0.00000     1.25520  0.0
     66     61     68     69   5     0.00000     0.00000    -0.94140  0.0
     66     61     68     72   5     0.00000     0.00000     1.25520  0.0
     66     61     68     73   5     0.00000     0.00000     1.25520  0.0
     67     61     68     69   5     0.00000     0.00000    -0.94140  0.0
     67     61     68     72   5     0.00000     0.00000     1.25520  0.0
     67     61     68     73   5     0.00000     0.00000     1.25520  0.0
     61     68     69     70   5     0.00000     2.52295     0.00000  0.0
     61     68     69     71   5     5.02498     0.46861     2.18823  0.0
     72     68     69     70   5     0.00000     2.52295     0.00000  0.0
     72     68     69     71   5     5.02498     0.46861     2.18823  0.0
     73     68     69     70   5     0.00000     0.00000     0.00000  0.0
     73     68     69     71   5     0.00000     0.00000     0.00000  0.0
     61     68     72     77   5     0.00000     0.00000     1.25520  0.0
     61     68     72     78   5     0.00000     0.00000     1.25520  0.0
     61     68     72     79   5     4.74884    -0.63178     1.67360  0.0
     69     68     72     77   5     0.00000     0.00000    -0.94140  0.0
     69     68     72     78   5     0.00000     0.00000    -0.94140  0.0
     69     68     72     79   5    -8.00818    -1.52298     2.46438  0.0
     73     68     72     77   5     0.00000     0.00000     1.25520  0.0
     73     68     72     78   5     0.00000     0.00000     1.25520  0.0
     73     68     72     79   5     0.00000     0.00000     1.25520  0.0
     68     69     71     74   5     0.00000     0.00000     0.00000  0.0
     68     69     71     75   5     0.00000     0.00000     0.00000  0.0
     68     69     71     76   5     0.00000     0.00000     0.00000  0.0
     70     69     71     74   5     0.00000     0.00000     0.00000  0.0
     70     69     71     75   5     0.00000     0.00000     0.00000  0.0
     70     69     71     76   5     0.00000     0.00000     0.00000  0.0
     68     72     79     80   5    -8.00818    -1.52298     2.46438  0.0
     68     72     79     83   5     4.74884    -0.63178     1.67360  0.0
     68     72     79     84   5     0.00000     0.00000     1.25520  0.0
     77     72     79     80   5     0.00000     0.00000    -0.94140  0.0
     77     72     79     83   5     0.00000     0.00000     1.25520  0.0
     77     72     79     84   5     0.00000     0.00000     1.25520  0.0
     78     72     79     80   5     0.00000     0.00000    -0.94140  0.0
     78     72     79     83   5     0.00000     0.00000     1.25520  0.0
     78     72     79     84   5     0.00000     0.00000     1.25520  0.0
     72     79     80     81   5     0.00000     2.52295     0.00000  0.0
     72     79     80     82   5     5.02498     0.46861     2.18823  0.0
     83     79     80     81   5     0.00000     2.52295     0.00000  0.0
     83     79     80     82   5     5.02498     0.46861     2.18823  0.0
     84     79     80     81   5     0.00000     0.00000     0.00000  0.0
     84     79     80     82   5     0.00000     0.00000     0.00000  0.0
     72     79     83     88   5     0.00000     0.00000     1.25520  0.0
     72     79     83     89   5     0.00000     0.00000     1.25520  0.0
     72     79     83     90   5     4.74884    -0.63178     1.67360  0.0
     80     79     83     88   5     0.00000     0.00000    -0.94140  0.0
     80     79     83     89   5     0.00000     0.00000    -0.94140  0.0
     80     79     83     90   5    -8.00818    -1.52298     2.46438  0.0
     84     79     83     88   5     0.00000     0.00000     1.25520  0.0
     84     79     83     89   5     0.00000     0.00000     1.25520  0.0
     84     79     83     90   5     0.00000     0.00000     1.25520  0.0
     79     80     82     85   5     0.00000     0.00000     0.00000  0.0
     79     80     82     86   5     0.00000     0.00000     0.00000  0.0
     79     80     82     87   5     0.00000     0.00000     0.00000  0.0
     81     80     82     85   5     0.00000     0.00000     0.00000  0.0
     81     80     82     86   5     0.00000     0.00000     0.00000  0.0
     81     80     82     87   5     0.00000     0.00000     0.00000  0.0
     79     83     90     91   5    -8.00818    -1.52298     2.46438  0.0
     79     83     90     94   5     4.74884    -0.63178     1.67360  0.0
     79     83     90     95   5     0.00000     0.00000     1.25520  0.0
     88     83     90     91   5     0.00000     0.00000    -0.94140  0.0
     88     83     90     94   5     0.00000     0.00000     1.25520  0.0
     88     83     90     95   5     0.00000     0.00000     1.25520  0.0
     89     83     90     91   5     0.00000     0.00000    -0.94140  0.0
     89     83     90     94   5     0.00000     0.00000     1.25520  0.0
     89     83     90     95   5     0.00000     0.00000     1.25520  0.0
     83     90     91     92   5     0.00000     2.52295     0.00000  0.0
     83     90     91     93   5     5.02498     0.46861     2.18823  0.0
     94     90     91     92   5     0.00000     2.52295     0.00000  0.0
     94     90     91     93   5     5.02498     0.46861     2.18823  0.0
     95     90     91     92   5     0.00000     0.00000     0.00000  0.0
     95     90     91     93   5     0.00000     0.00000     0.00000  0.0
     83     90     94     99   5     0.00000     0.00000     1.25520  0.0
     83     90     94    100   5     0.00000     0.00000     1.25520  0.0
     83     90     94    101   5     4.74884    -0.63178     1.67360  0.0
     91     90     94     99   5     0.00000     0.00000    -0.94140  0.0
     91     90     94    100   5     0.00000     0.00000    -0.94140  0.0
     91     90     94    101   5    -8.00818    -1.52298     2.46438  0.0
     95     90     94     99   5     0.00000     0.00000     1.25520  0.0
     95     90     94    100   5     0.00000     0.00000     1.25520  0.0
     95     90     94    101   5     0.00000     0.00000     1.25520  0.0
     90     91     93     96   5     0.00000     0.00000     0.00000  0.0
     90     91     93     97   5     0.00000     0.00000     0.00000  0.0
     90     91     93     98   5     0.00000     0.00000     0.00000  0.0
     92     91     93     96   5     0.00000     0.00000     0.00000  0.0
     92     91     93     97   5     0.00000     0.00000     0.00000  0.0
     92     91     93     98   5     0.00000     0.00000     0.00000  0.0
     90     94    101    102   5    -8.00818    -1.52298     2.46438  0.0
     90     94    101    105   5     4.74884    -0.63178     1.67360  0.0
     90     94    101    106   5     0.00000     0.00000     1.25520  0.0
     99     94    101    102   5     0.00000     0.00000    -0.94140  0.0
     99     94    101    105   5     0.00000     0.00000     1.25520  0.0
     99     94    101    106   5     0.00000     0.00000     1.25520  0.0
    100     94    101    102   5     0.00000     0.00000    -0.94140  0.0
    100     94    101    105   5     0.00000     0.00000     1.25520  0.0
    100     94    101    106   5     0.00000     0.00000     1.25520  0.0
     94    101    102    103   5     0.00000     2.52295     0.00000  0.0
     94    101    102    104   5     5.02498     0.46861     2.18823  0.0
    105    101    102    103   5     0.00000     2.52295     0.00000  0.0
    105    101    102    104   5     5.02498     0.46861     2.18823  0.0
    106    101    102    103   5     0.00000     0.00000     0.00000  0.0
    106    101    102    104   5     0.00000     0.00000     0.00000  0.0
     94    101    105    110   5     0.00000     0.00000     1.25520  0.0
     94    101    105    111   5     0.00000     0.00000     1.25520  0.0
     94    101    105    112   5     4.74884    -0.63178     1.67360  0.0
    102    101    105    110   5     0.00000     0.00000    -0.94140  0.0
    102    101    105    111   5     0.00000     0.00000    -0.94140  0.0
    102    101    105    112   5    -8.00818    -1.52298     2.46438  0.0
    106    101    105    110   5     0.00000     0.00000     1.25520  0.0
    106    101    105    111   5     0.00000     0.00000     1.25520  0.0
    106    101    105    112   5     0.00000     0.00000     1.25520  0.0
    101    102    104    107   5     0.00000     0.00000     0.00000  0.0
    101    102    104    108   5     0.00000     0.00000     0.00000  0.0
    101    102    104    109   5     0.00000     0.00000     0.00000  0.0
    103    102    104    107   5     0.00000     0.00000     0.00000  0.0
    103    102    104    108   5     0.00000     0.00000     0.00000  0.0
    103    102    104    109   5     0.00000     0.00000     0.00000  0.0
    101    105    112    113   5    -8.00818    -1.52298     2.46438  0.0
    101    105    112    116   5     4.74884    -0.63178     1.67360  0.0
    101    105    112    117   5     0.00000     0.00000     1.25520  0.0
    110    105    112    113   5     0.00000     0.00000    -0.94140  0.0
    110    105    112    116   5     0.00000     0.00000     1.25520  0.0
    110    105    112    117   5     0.00000     0.00000     1.25520  0.0
    111    105    112    113   5     0.00000     0.00000    -0.94140  0.0
    111    105    112    116   5     0.00000     0.00000     1.25520  0.0
    111    105    112    117   5     0.00000     0.00000     1.25520  0.0
    105    112    113    114   5     0.00000     2.52295     0.00000  0.0
    105    112    113    115   5     5.02498     0.46861     2.18823  0.0
    116    112    113    114   5     0.00000     2.52295     0.00000  0.0
    116    112    113    115   5     5.02498     0.46861     2.18823  0.0
    117    112    113    114   5     0.00000     0.00000     0.00000  0.0
    117    112    113    115   5     0.00000     0.00000     0.00000  0.0
    105    112    116    121   5     0.00000     0.00000     1.25520  0.0
    105    112    116    122   5     0.00000     0.00000     1.25520  0.0
    105    112    116    123   5     4.74884    -0.63178     1.67360  0.0
    113    112    116    121   5     0.00000     0.00000    -0.94140  0.0
    113    112    116    122   5     0.00000     0.00000    -0.94140  0.0
    113    112    116    123   5    -8.00818    -1.52298     2.46438  0.0
    117    112    116    121   5     0.00000     0.00000     1.25520  0.0
    117    112    116    122   5     0.00000     0.00000     1.25520  0.0
    117    112    116    123   5     0.00000     0.00000     1.25520  0.0
    112    113    115    118   5     0.00000     0.00000     0.00000  0.0
    112    113    115    119   5     0.00000     0.00000     0.00000  0.0
    112    113    115    120   5     0.00000     0.00000     0.00000  0.0
    114    113    115    118   5     0.00000     0.00000     0.00000  0.0
    114    113    115    119   5     0.00000     0.00000     0.00000  0.0
    114    113    115    120   5     0.00000     0.00000     0.00000  0.0
    112    116    123    124   5    -8.00818    -1.52298     2.46438  0.0
    112    116    123    127   5     4.74884    -0.63178     1.67360  0.0
    112    116    123    128   5     0.00000     0.00000     1.25520  0.0
    121    116    123    124   5     0.00000     0.00000    -0.94140  0.0
    121    116    123    127   5     0.00000     0.00000     1.25520  0.0
    121    116    123    128   5     0.00000     0.00000     1.25520  0.0
    122    116    123    124   5     0.00000     0.00000    -0.94140  0.0
    122    116    123    127   5     0.00000     0.00000     1.25520  0.0
    122    116    123    128   5     0.00000     0.00000     1.25520  0.0
    116    123    124    125   5     0.00000     2.52295     0.00000  0.0
    116    123    124    126   5     5.02498     0.46861     2.18823  0.0
    127    123    124    125   5     0.00000     2.52295     0.00000  0.0
    127    123    124    126   5     5.02498     0.46861     2.18823  0.0
    128    123    124    125   5     0.00000     0.00000     0.00000  0.0
    128    123    124    126   5     0.00000     0.00000     0.00000  0.0
    116    123    127    132   5     0.00000     0.00000     1.25520  0.0
    116    123    127    133   5     0.00000     0.00000     1.25520  0.0
    116    123    127    134   5     4.74884    -0.63178     1.67360  0.0
    124    123    127    132   5     0.00000     0.00000    -0.94140  0.0
    124    123    127    133   5     0.00000     0.00000    -0.94140  0.0
    124    123    127    134   5    -8.00818    -1.52298     2.46438  0.0
    128    123    127    132   5     0.00000     0.00000     1.25520  0.0
    128    123    127    133   5     0.00000     0.00000     1.25520  0.0
    128    123    127    134   5     0.00000     0.00000     1.25520  0.0
    123    124    126    129   5     0.00000     0.00000     0.00000  0.0
    123    124    126    130   5     0.00000     0.00000     0.00000  0.0
    123    124    126    131   5     0.00000     0.00000     0.00000  0.0
    125    124    126    129   5     0.00000     0.00000     0.00000  0.0
    125    124    126    130   5     0.00000     0.00000     0.00000  0.0
    125    124    126    131   5     0.00000     0.00000     0.00000  0.0
    123    127    134    135   5    -8.00818    -1.52298     2.46438  0.0
    123    127    134    138   5     4.74884    -0.63178     1.67360  0.0
    123    127    134    139   5     0.00000     0.00000     1.25520  0.0
    132    127    134    135   5     0.00000     0.00000    -0.94140  0.0
    132    127    134    138   5     0.00000     0.00000     1.25520  0.0
    132    127    134    139   5     0.00000     0.00000     1.25520  0.0
    133    127    134    135   5     0.00000     0.00000    -0.94140  0.0
    133    127    134    138   5     0.00000     0.00000     1.25520  0.0
    133    127    134    139   5     0.00000     0.00000     1.25520  0.0
    127    134    135    136   5     0.00000     2.52295     0.00000  0.0
    127    134    135    137   5     5.02498     0.46861     2.18823  0.0
    138    134    135    136   5     0.00000     2.52295     0.00000  0.0
    138    134    135    137   5     5.02498     0.46861     2.18823  0.0
    139    134    135    136   5     0.00000     0.00000     0.00000  0.0
    139    134    135    137   5     0.00000     0.00000     0.00000  0.0
    127    134    138    143   5     0.00000     0.00000     1.25520  0.0
    127    134    138    144   5     0.00000     0.00000     1.25520  0.0
    127    134    138    145   5     4.74884    -0.63178     1.67360  0.0
    135    134    138    143   5     0.00000     0.00000    -0.94140  0.0
    135    134    138    144   5     0.00000     0.00000    -0.94140  0.0
    135    134    138    145   5    -8.00818    -1.52298     2.46438  0.0
    139    134    138    143   5     0.00000     0.00000     1.25520  0.0
    139    134    138    144   5     0.00000     0.00000     1.25520  0.0
    139    134    138    145   5     0.00000     0.00000     1.25520  0.0
    134    135    137    140   5     0.00000     0.00000     0.00000  0.0
    134    135    137    141   5     0.00000     0.00000     0.00000  0.0
    134    135    137    142   5     0.00000     0.00000     0.00000  0.0
    136    135    137    140   5     0.00000     0.00000     0.00000  0.0
    136    135    137    141   5     0.00000     0.00000     0.00000  0.0
    136    135    137    142   5     0.00000     0.00000     0.00000  0.0
    134    138    145    146   5    -8.00818    -1.52298     2.46438  0.0
    134    138    145    149   5     4.74884    -0.63178     1.67360  0.0
    134    138    145    150   5     0.00000     0.00000     1.25520  0.0
    143    138    145    146   5     0.00000     0.00000    -0.94140  0.0
    143    138    145    149   5     0.00000     0.00000     1.25520  0.0
    143    138    145    150   5     0.00000     0.00000     1.25520  0.0
    144    138    145    146   5     0.00000     0.00000    -0.94140  0.0
    144    138    145    149   5     0.00000     0.00000     1.25520  0.0
    144    138    145    150   5     0.00000     0.00000     1.25520  0.0
    138    145    146    147   5     0.00000     2.52295     0.00000  0.0
    138    145    146    148   5     5.02498     0.46861     2.18823  0.0
    149    145    146    147   5     0.00000     2.52295     0.00000  0.0
    149    145    146    148   5     5.02498     0.46861     2.18823  0.0
    150    145    146    147   5     0.00000     0.00000     0.00000  0.0
    150    145    146    148   5     0.00000     0.00000     0.00000  0.0
    138    145    149    154   5     0.00000     0.00000     1.25520  0.0
    138    145    149    155   5     0.00000     0.00000     1.25520  0.0
    138    145    149    156   5     4.74884    -0.63178     1.67360  0.0
    146    145    149    154   5     0.00000     0.00000    -0.94140  0.0
    146    145    149    155   5     0.00000     0.00000    -0.94140  0.0
    146    145    149    156   5    -8.00818    -1.52298     2.46438  0.0
    150    145    149    154   5     0.00000     0.00000     1.25520  0.0
    150    145    149    155   5     0.00000     0.00000     1.25520  0.0
    150    145    149    156   5     0.00000     0.00000     1.25520  0.0
    145    146    148    151   5     0.00000     0.00000     0.00000  0.0
    145    146    148    152   5     0.00000     0.00000     0.00000  0.0
    145    146    148    153   5     0.00000     0.00000     0.00000  0.0
    147    146    148    151   5     0.00000     0.00000     0.00000  0.0
    147    146    148    152   5     0.00000     0.00000     0.00000  0.0
    147    146    148    153   5     0.00000     0.00000     0.00000  0.0
    145    149    156    157   5    -8.00818    -1.52298     2.46438  0.0
    145    149    156    160   5     4.74884    -0.63178     1.67360  0.0
    145    149    156    161   5     0.00000     0.00000     1.25520  0.0
    154    149    156    157   5     0.00000     0.00000    -0.94140  0.0
    154    149    156    160   5     0.00000     0.00000     1.25520  0.0
    154    149    156    161   5     0.00000     0.00000     1.25520  0.0
    155    149    156    157   5     0.00000     0.00000    -0.94140  0.0
    155    149    156    160   5     0.00000     0.00000     1.25520  0.0
    155    149    156    161   5     0.00000     0.00000     1.25520  0.0
    149    156    157    158   5     0.00000     2.52295     0.00000  0.0
    149    156    157    159   5     5.02498     0.46861     2.18823  0.0
    160    156    157    158   5     0.00000     2.52295     0.00000  0.0
    160    156    157    159   5     5.02498     0.46861     2.18823  0.0
    161    156    157    158   5     0.00000     0.00000     0.00000  0.0
    161    156    157    159   5     0.00000     0.00000     0.00000  0.0
    149    156    160    165   5     0.00000     0.00000     1.25520  0.0
    149    156    160    166   5     0.00000     0.00000     1.25520  0.0
    149    156    160    167   5     4.74884    -0.63178     1.67360  0.0
    157    156    160    165   5     0.00000     0.00000    -0.94140  0.0
    157    156    160    166   5     0.00000     0.00000    -0.94140  0.0
    157    156    160    167   5    -8.00818    -1.52298     2.46438  0.0
    161    156    160    165   5     0.00000     0.00000     1.25520  0.0
    161    156    160    166   5     0.00000     0.00000     1.25520  0.0
    161    156    160    167   5     0.00000     0.00000     1.25520  0.0
    156    157    159    162   5     0.00000     0.00000     0.00000  0.0
    156    157    159    163   5     0.00000     0.00000     0.00000  0.0
    156    157    159    164   5     0.00000     0.00000     0.00000  0.0
    158    157    159    162   5     0.00000     0.00000     0.00000  0.0
    158    157    159    163   5     0.00000     0.00000     0.00000  0.0
    158    157    159    164   5     0.00000     0.00000     0.00000  0.0
    156    160    167    168   5    -8.00818    -1.52298     2.46438  0.0
    156    160    167    171   5     4.74884    -0.63178     1.67360  0.0
    156    160    167    172   5     0.00000     0.00000     1.25520  0.0
    165    160    167    168   5     0.00000     0.00000    -0.94140  0.0
    165    160    167    171   5     0.00000     0.00000     1.25520  0.0
    165    160    167    172   5     0.00000     0.00000     1.25520  0.0
    166    160    167    168   5     0.00000     0.00000    -0.94140  0.0
    166    160    167    171   5     0.00000     0.00000     1.25520  0.0
    166    160    167    172   5     0.00000     0.00000     1.25520  0.0
    160    167    168    169   5     0.00000     2.52295     0.00000  0.0
    160    167    168    170   5     5.02498     0.46861     2.18823  0.0
    171    167    168    169   5     0.00000     2.52295     0.00000  0.0
    171    167    168    170   5     5.02498     0.46861     2.18823  0.0
    172    167    168    169   5     0.00000     0.00000     0.00000  0.0
    172    167    168    170   5     0.00000     0.00000     0.00000  0.0
    160    167    171    176   5     0.00000     0.00000     1.25520  0.0
    160    167    171    177   5     0.00000     0.00000     1.25520  0.0
    160    167    171    178   5     4.74884    -0.63178     1.67360  0.0
    168    167    171    176   5     0.00000     0.00000    -0.94140  0.0
    168    167    171    177   5     0.00000     0.00000    -0.94140  0.0
    168    167    171    178   5    -8.00818    -1.52298     2.46438  0.0
    172    167    171    176   5     0.00000     0.00000     1.25520  0.0
    172    167    171    177   5     0.00000     0.00000     1.25520  0.0
    172    167    171    178   5     0.00000     0.00000     1.25520  0.0
    167    168    170    173   5     0.00000     0.00000     0.00000  0.0
    167    168    170    174   5     0.00000     0.00000     0.00000  0.0
    167    168    170    175   5     0.00000     0.00000     0.00000  0.0
    169    168    170    173   5     0.00000     0.00000     0.00000  0.0
    169    168    170    174   5     0.00000     0.00000     0.00000  0.0
    169    168    170    175   5     0.00000     0.00000     0.00000  0.0
    167    171    178    179   5    -8.00818    -1.52298     2.46438  0.0
    167    171    178    182   5     4.74884    -0.63178     1.67360  0.0
    167    171    178    183   5     0.00000     0.00000     1.25520  0.0
    176    171    178    179   5     0.00000     0.00000    -0.94140  0.0
    176    171    178    182   5     0.00000     0.00000     1.25520  0.0
    176    171    178    183   5     0.00000     0.00000     1.25520  0.0
    177    171    178    179   5     0.00000     0.00000    -0.94140  0.0
    177    171    178    182   5     0.00000     0.00000     1.25520  0.0
    177    171    178    183   5     0.00000     0.00000     1.25520  0.0
    171    178    179    180   5     0.00000     2.52295     0.00000  0.0
    171    178    179    181   5     5.02498     0.46861     2.18823  0.0
    182    178    179    180   5     0.00000     2.52295     0.00000  0.0
    182    178    179    181   5     5.02498     0.46861     2.18823  0.0
    183    178    179    180   5     0.00000     0.00000     0.00000  0.0
    183    178    179    181   5     0.00000     0.00000     0.00000  0.0
    171    178    182    187   5     0.00000     0.00000     1.25520  0.0
    171    178    182    188   5     0.00000     0.00000     1.25520  0.0
    171    178    182    189   5     4.74884    -0.63178     1.67360  0.0
    179    178    182    187   5     0.00000     0.00000    -0.94140  0.0
    179    178    182    188   5     0.00000     0.00000    -0.94140  0.0
    179    178    182    189   5    -8.00818    -1.52298     2.46438  0.0
    183    178    182    187   5     0.00000     0.00000     1.25520  0.0
    183    178    182    188   5     0.00000     0.00000     1.25520  0.0
    183    178    182    189   5     0.00000     0.00000     1.25520  0.0
    178    179    181    184   5     0.00000     0.00000     0.00000  0.0
    178    179    181    185   5     0.00000     0.00000     0.00000  0.0
    178    179    181    186   5     0.00000     0.00000     0.00000  0.0
    180    179    181    184   5     0.00000     0.00000     0.00000  0.0
    180    179    181    185   5     0.00000     0.00000     0.00000  0.0
    180    179    181    186   5     0.00000     0.00000     0.00000  0.0
    178    182    189    190   5    -8.00818    -1.52298     2.46438  0.0
    178    182    189    193   5     4.74884    -0.63178     1.67360  0.0
    178    182    189    194   5     0.00000     0.00000     1.25520  0.0
    187    182    189    190   5     0.00000     0.00000    -0.94140  0.0
    187    182    189    193   5     0.00000     0.00000     1.25520  0.0
    187    182    189    194   5     0.00000     0.00000     1.25520  0.0
    188    182    189    190   5     0.00000     0.00000    -0.94140  0.0
    188    182    189    193   5     0.00000     0.00000     1.25520  0.0
    188    182    189    194   5     0.00000     0.00000     1.25520  0.0
    182    189    190    191   5     0.00000     2.52295     0.00000  0.0
    182    189    190    192   5     5.02498     0.46861     2.18823  0.0
    193    189    190    191   5     0.00000     2.52295     0.00000  0.0
    193    189    190    192   5     5.02498     0.46861     2.18823  0.0
    194    189    190    191   5     0.00000     0.00000     0.00000  0.0
    194    189    190    192   5     0.00000     0.00000     0.00000  0.0
    182    189    193    198   5     0.00000     0.00000     1.25520  0.0
    182    189    193    199   5     0.00000     0.00000     1.25520  0.0
    182    189    193    200   5     4.74884    -0.63178     1.67360  0.0
    190    189    193    198   5     0.00000     0.00000    -0.94140  0.0
    190    189    193    199   5     0.00000     0.00000    -0.94140  0.0
    190    189    193    200   5    -8.00818    -1.52298     2.46438  0.0
    194    189    193    198   5     0.00000     0.00000     1.25520  0.0
    194    189    193    199   5     0.00000     0.00000     1.25520  0.0
    194    189    193    200   5     0.00000     0.00000     1.25520  0.0
    189    190    192    195   5     0.00000     0.00000     0.00000  0.0
    189    190    192    196   5     0.00000     0.00000     0.00000  0.0
    189    190    192    197   5     0.00000     0.00000     0.00000  0.0
    191    190    192    195   5     0.00000     0.00000     0.00000  0.0
    191    190    192    196   5     0.00000     0.00000     0.00000  0.0
    191    190    192    197   5     0.00000     0.00000     0.00000  0.0
    189    193    200    201   5    -8.00818    -1.52298     2.46438  0.0
    189    193    200    204   5     4.74884    -0.63178     1.67360  0.0
    189    193    200    205   5     0.00000     0.00000     1.25520  0.0
    198    193    200    201   5     0.00000     0.00000    -0.94140  0.0
    198    193    200    204   5     0.00000     0.00000     1.25520  0.0
    198    193    200    205   5     0.00000     0.00000     1.25520  0.0
    199    193    200    201   5     0.00000     0.00000    -0.94140  0.0
    199    193    200    204   5     0.00000     0.00000     1.25520  0.0
    199    193    200    205   5     0.00000     0.00000     1.25520  0.0
    193    200    201    202   5     0.00000     2.52295     0.00000  0.0
    193    200    201    203   5     5.02498     0.46861     2.18823  0.0
    204    200    201    202   5     0.00000     2.52295     0.00000  0.0
    204    200    201    203   5     5.02498     0.46861     2.18823  0.0
    205    200    201    202   5     0.00000     0.00000     0.00000  0.0
    205    200    201    203   5     0.00000     0.00000     0.00000  0.0
    193    200    204    209   5     0.00000     0.00000     1.25520  0.0
    193    200    204    210   5     0.00000     0.00000     1.25520  0.0
    193    200    204    211   5     4.74884    -0.63178     1.67360  0.0
    201    200    204    209   5     0.00000     0.00000    -0.94140  0.0
    201    200    204    210   5     0.00000     0.00000    -0.94140  0.0
    201    200    204    211   5    -8.00818    -1.52298     2.46438  0.0
    205    200    204    209   5     0.00000     0.00000     1.25520  0.0
    205    200    204    210   5     0.00000     0.00000     1.25520  0.0
    205    200    204    211   5     0.00000     0.00000     1.25520  0.0
    200    201    203    206   5     0.00000     0.00000     0.00000  0.0
    200    201    203    207   5     0.00000     0.00000     0.00000  0.0
    200    201    203    208   5     0.00000     0.00000     0.00000  0.0
    202    201    203    206   5     0.00000     0.00000     0.00000  0.0
    202    201    203    207   5     0.00000     0.00000     0.00000  0.0
    202    201    203    208   5     0.00000     0.00000     0.00000  0.0
    200    204    211    212   5    -8.00818    -1.52298     2.46438  0.0
    200    204    211    215   5     4.74884    -0.63178     1.67360  0.0
    200    204    211    216   5     0.00000     0.00000     1.25520  0.0
    209    204    211    212   5     0.00000     0.00000    -0.94140  0.0
    209    204    211    215   5     0.00000     0.00000     1.25520  0.0
    209    204    211    216   5     0.00000     0.00000     1.25520  0.0
    210    204    211    212   5     0.00000     0.00000    -0.94140  0.0
    210    204    211    215   5     0.00000     0.00000     1.25520  0.0
    210    204    211    216   5     0.00000     0.00000     1.25520  0.0
    204    211    212    213   5     0.00000     2.52295     0.00000  0.0
    204    211    212    214   5     5.02498     0.46861     2.18823  0.0
    215    211    212    213   5     0.00000     2.52295     0.00000  0.0
    215    211    212    214   5     5.02498     0.46861     2.18823  0.0
    216    211    212    213   5     0.00000     0.00000     0.00000  0.0
    216    211    212    214   5     0.00000     0.00000     0.00000  0.0
    204    211    215    220   5     0.00000     0.00000     1.25520  0.0
    204    211    215    221   5     0.00000     0.00000     1.25520  0.0
    204    211    215    222   5     0.00000     0.00000     1.25520  0.0
    212    211    215    220   5     0.00000     0.00000    -0.94140  0.0
    212    211    215    221   5     0.00000     0.00000    -0.94140  0.0
    212    211    215    222   5     0.00000     0.00000    -0.94140  0.0
    216    211    215    220   5     0.00000     0.00000     1.25520  0.0
    216    211    215    221   5     0.00000     0.00000     1.25520  0.0
    216    211    215    222   5     0.00000     0.00000     1.25520  0.0
    211    212    214    217   5     0.00000     0.00000     0.00000  0.0
    211    212    214    218   5     0.00000     0.00000     0.00000  0.0
    211    212    214    219   5     0.00000     0.00000     0.00000  0.0
    213    212    214    217   5     0.00000     0.00000     0.00000  0.0
    213    212    214    218   5     0.00000     0.00000     0.00000  0.0
    213    212    214    219   5     0.00000     0.00000     0.00000  0.0

[ dihedrals ]
; Improper dihedrals
; h   i   j   k   funct
      1      3      2      4   5     0.00000    87.86400     0.00000  0.0
     13     15     14     16   5     0.00000    87.86400     0.00000  0.0
     24     26     25     27   5     0.00000    87.86400     0.00000  0.0
     35     37     36     38   5     0.00000    87.86400     0.00000  0.0
     46     48     47     49   5     0.00000    87.86400     0.00000  0.0
     57     59     58     60   5     0.00000    87.86400     0.00000  0.0
     68     70     69     71   5     0.00000    87.86400     0.00000  0.0
     79     81     80     82   5     0.00000    87.86400     0.00000  0.0
     90     92     91     93   5     0.00000    87.86400     0.00000  0.0
    101    103    102    104   5     0.00000    87.86400     0.00000  0.0
    112    114    113    115   5     0.00000    87.86400     0.00000  0.0
    123    125    124    126   5     0.00000    87.86400     0.00000  0.0
    134    136    135    137   5     0.00000    87.86400     0.00000  0.0
    145    147    146    148   5     0.00000    87.86400     0.00000  0.0
    156    158    157    159   5     0.00000    87.86400     0.00000  0.0
    167    169    168    170   5     0.00000    87.86400     0.00000  0.0
    178    180    179    181   5     0.00000    87.86400     0.00000  0.0
    189    191    190    192   5     0.00000    87.86400     0.00000  0.0
    200    202    201    203   5     0.00000    87.86400     0.00000  0.0
    211    213    212    214   5     0.00000    87.86400     0.00000  0.0
