Control file title. For DL_FIELD 4.10
49950
    1MOL     C1    1   3.583   3.628   5.908 -0.5610 -0.4143  0.0733
    1MOL     C2    2   3.476   3.538   5.971 -0.8651  1.5598  0.1678
    1MOL     O3    3   3.370   3.509   5.917  0.1971 -0.0405 -0.1143
    1MOL     C4    4   3.526   3.471   6.108 -0.3016  0.0200 -0.0364
    1MOL     C5    5   3.532   3.736   5.808  0.8399  0.7863  1.2375
    1MOL     H6    6   3.638   3.678   5.989 -3.4792  1.7035  0.8379
    1MOL     H7    7   3.478   3.521   6.191 -0.9778 -3.6390  1.8957
    1MOL     H8    8   3.500   3.366   6.120 -1.1647 -0.0486 -2.3228
    1MOL     H9    9   3.635   3.480   6.117 -0.3885  0.3962  0.6864
    1MOL    H10   10   3.617   3.801   5.789  1.5711 -0.8557 -1.4815
    1MOL    H11   11   3.463   3.794   5.869 -0.6162  0.1989  0.1853
    1MOL    H12   12   3.657   3.576   5.848 -0.0533  3.7392 -3.1111
    1MOL    C13   13   3.482   3.673   5.676 -0.7943 -0.7348  0.5340
    1MOL    C14   14   3.604   3.649   5.582  0.1335  0.4534  0.3166
    1MOL    O15   15   3.723   3.657   5.621 -0.1921  0.4061  0.5703
    1MOL    C16   16   3.568   3.602   5.438 -0.4498 -0.4468 -0.0695
    1MOL    C17   17   3.358   3.751   5.614 -0.0036  0.8595 -0.3207
    1MOL    H18   18   3.456   3.575   5.715 -0.3380 -1.1705 -0.2474
    1MOL    H19   19   3.654   3.615   5.372  1.0669 -1.5124  1.6163
    1MOL    H20   20   3.532   3.499   5.432 -1.8192  0.0998 -1.4807
    1MOL    H21   21   3.497   3.674   5.397 -0.9017 -0.7732  0.1347
    1MOL    H22   22   3.345   3.741   5.506  3.4305  0.7456 -0.7886
    1MOL    H23   23   3.378   3.857   5.629 -0.6116  0.7708  1.1935
    1MOL    C24   24   3.221   3.715   5.689  0.5103 -1.0024  0.5622
    1MOL    C25   25   3.152   3.588   5.637  0.2466  0.8482 -0.9437
    1MOL    O26   26   3.121   3.576   5.516 -0.0853 -0.1743 -1.0731
    1MOL    C27   27   3.090   3.484   5.739 -0.0385  0.1160 -0.2247
    1MOL    C28   28   3.135   3.847   5.704 -0.7808  0.0884 -0.1928
    1MOL    H29   29   3.257   3.673   5.783  0.6101 -0.9044  0.5684
    1MOL    H30   30   3.136   3.385   5.738  2.1090  1.0779  0.6806
    1MOL    H31   31   3.093   3.506   5.846  2.7529  0.1172 -0.2565
    1MOL    H32   32   2.987   3.475   5.704  0.6928 -2.9039 -1.7866
    1MOL    H33   33   3.038   3.822   5.663 -1.2199 -2.2858  2.1710
    1MOL    H34   34   3.177   3.933   5.652 -2.5848 -0.8483 -3.2997
    1MOL    C35   35   3.108   3.892   5.852  1.1790 -0.0965  0.2446
    1MOL    C36   36   2.998   3.802   5.919  0.5873  0.8374  0.0061
    1MOL    O37   37   2.877   3.814   5.895 -0.3206  0.4645  0.6328
    1MOL    C38   38   3.054   3.701   6.017  0.0421  0.1353 -0.5905
    1MOL    C39   39   3.080   4.040   5.865 -0.2571  0.4513 -0.5545
    1MOL    H40   40   3.200   3.880   5.909  1.2105  1.0656  0.4644
    1MOL    H41   41   3.094   3.743   6.110  0.1066 -1.5474  0.1722
    1MOL    H42   42   2.978   3.624   6.029  0.7411 -0.7012 -1.4448
    1MOL    H43   43   3.144   3.661   5.969  0.0688  1.6240 -1.8336
    1MOL    H44   44   3.165   4.093   5.821  1.2067 -2.6658 -1.6825
    1MOL    H45   45   3.082   4.066   5.971 -1.6087  3.9428 -1.3385
    1MOL    C46   46   2.946   4.092   5.798  0.4808 -0.1056 -0.1133
    1MOL    C47   47   2.965   4.122   5.654  0.1388 -0.2972 -0.1858
    1MOL    O48   48   3.032   4.216   5.615  0.7352 -0.2636 -0.9492
    1MOL    C49   49   2.894   4.038   5.556  0.7264 -0.2108 -0.3452
    1MOL    C50   50   2.904   4.221   5.876 -0.0399 -0.0375 -0.1315
    1MOL    H51   51   2.868   4.018   5.816  1.9988 -1.5731  0.5470
    1MOL    H52   52   2.971   3.977   5.509 -0.5171 -1.6298 -0.5681
    1MOL    H53   53   2.818   3.979   5.608  0.6340 -1.5061 -1.9247
    1MOL    H54   54   2.842   4.101   5.484  2.2778 -0.3451 -1.5999
    1MOL    H55   55   2.986   4.291   5.862  0.2302 -0.0888  1.1295
    1MOL    H56   56   2.899   4.194   5.981  2.3470 -0.2593 -0.0541
    1MOL    C57   57   2.768   4.290   5.834 -0.5745 -0.1227  0.0253
    1MOL    C58   58   2.754   4.423   5.918 -0.0685 -0.0960 -0.3954
    1MOL    O59   59   2.707   4.429   6.029  0.0292  0.7116 -1.1181
    1MOL    C60   60   2.817   4.551   5.857 -0.3454 -0.3182 -0.0346
    1MOL    C61   61   2.647   4.194   5.859  1.0291 -0.8375 -0.3400
    1MOL    H62   62   2.768   4.322   5.730  0.4510  0.0548  0.0734
    1MOL    H63   63   2.865   4.535   5.761  0.7235  0.7575  0.3120
    1MOL    H64   64   2.741   4.626   5.841 -1.2022 -1.8595 -3.6130
    1MOL    H65   65   2.891   4.596   5.923  0.2781 -0.2420 -0.7833
    1MOL    H66   66   2.635   4.166   5.964  0.7794 -0.7139 -0.3352
    1MOL    H67   67   2.646   4.100   5.805  0.4605 -1.0783  0.0757
    1MOL    C68   68   2.514   4.257   5.806 -0.1803 -0.3770  0.3320
    1MOL    C69   69   2.396   4.185   5.877  0.0662  0.7185 -0.1113
    1MOL    O70   70   2.312   4.128   5.805  0.0403  0.3470 -0.4523
    1MOL    C71   71   2.374   4.206   6.030 -0.0727 -0.1025  0.9536
    1MOL    C72   72   2.507   4.262   5.648  0.8268 -0.7188 -0.1787
    1MOL    H73   73   2.495   4.357   5.847  0.1415 -0.5528  0.9218
    1MOL    H74   74   2.269   4.194   6.057 -0.2097 -0.1613  0.4012
    1MOL    H75   75   2.433   4.134   6.087  0.2239 -1.7753 -1.3994
    1MOL    H76   76   2.392   4.310   6.058 -0.0334 -0.0037  0.5587
    1MOL    H77   77   2.497   4.158   5.616  1.8768 -0.7186 -0.5450
    1MOL    H78   78   2.599   4.311   5.616  0.9405  0.5000  1.9294
    1MOL    C79   79   2.387   4.339   5.589 -0.0629 -1.1517  0.1847
    1MOL    C80   80   2.355   4.311   5.439  0.2037 -0.1001  0.3412
    1MOL    O81   81   2.409   4.372   5.352 -0.3914 -0.3946  0.3146
    1MOL    C82   82   2.254   4.202   5.405  0.3589  0.1760 -0.2291
    1MOL    C83   83   2.401   4.490   5.618 -0.1041 -0.3524 -0.0429
    1MOL    H84   84   2.308   4.309   5.658  0.2623  0.4247  1.2812
    1MOL    H85   85   2.156   4.235   5.369  0.5487 -0.8912 -1.7293
    1MOL    H86   86   2.285   4.127   5.332 -0.9869 -1.4024  0.7896
    1MOL    H87   87   2.243   4.145   5.497  0.9685 -1.8242 -1.3640
    1MOL    H88   88   2.484   4.543   5.572 -0.7560  2.5008  1.9621
    1MOL    H89   89   2.429   4.504   5.722  1.5272  0.9209 -0.6236
    1MOL    C90   90   2.274   4.575   5.595  0.0797  0.7040 -0.3853
    1MOL    C91   91   2.313   4.728   5.608  0.9534  0.2924 -0.0769
    1MOL    O92   92   2.390   4.762   5.701  0.1411 -0.2236 -0.2270
    1MOL    C93   93   2.264   4.831   5.504  0.3076  0.7153  0.5326
    1MOL    C94   94   2.158   4.537   5.706  0.6201  0.1228  0.4549
    1MOL    H95   95   2.238   4.553   5.494  0.3459  0.2139 -0.3737
    1MOL    H96   96   2.189   4.781   5.442 -0.0849  0.8624  0.8832
    1MOL    H97   97   2.213   4.914   5.553  1.0699  2.0340 -0.8725
    1MOL    H98   98   2.341   4.873   5.440 -0.2088 -1.7147 -1.7971
    1MOL    H99   99   2.125   4.623   5.765 -0.2474 -0.0933  0.2996
    1MOL   H100  100   2.211   4.471   5.775  0.3265 -0.7911 -0.1789
    1MOL   C101  101   2.030   4.465   5.651  0.6326  0.0936 -0.5974
    1MOL   C102  102   1.929   4.567   5.603  0.3557  0.3298 -0.2561
    1MOL   O103  103   1.826   4.590   5.664  0.1100  0.3244 -0.8109
    1MOL   C104  104   1.954   4.644   5.480 -0.3631 -0.2530  0.9341
    1MOL   C105  105   1.961   4.372   5.754  0.0848 -0.3551 -0.7853
    1MOL   H106  106   2.058   4.396   5.571 -0.5406 -1.7801  0.5754
    1MOL   H107  107   2.054   4.630   5.440 -0.0530  1.1808  1.1726
    1MOL   H108  108   1.884   4.618   5.401 -1.3215 -2.4305  2.4437
    1MOL   H109  109   1.956   4.750   5.506 -0.0916  0.3556 -1.4801
    1MOL   H110  110   1.916   4.432   5.833  1.2321  0.7919 -0.9780
    1MOL   H111  111   2.038   4.322   5.812 -0.1663  0.1351 -0.0165
    1MOL   C112  112   1.862   4.253   5.722 -0.3284  0.0723  0.5943
    1MOL   C113  113   1.931   4.145   5.627 -0.2423  0.0074  0.0930
    1MOL   O114  114   1.931   4.161   5.506 -0.3559  0.1037  0.5461
    1MOL   C115  115   2.002   4.030   5.696 -0.2113  0.2369 -0.0781
    1MOL   C116  116   1.726   4.297   5.667 -0.2625 -0.0670  0.4966
    1MOL   H117  117   1.844   4.197   5.814 -2.0034  0.5473  0.5684
    1MOL   H118  118   1.957   4.021   5.795 -0.8567  2.5995 -0.1269
    1MOL   H119  119   1.965   3.945   5.638  1.2933 -2.2226  2.4808
    1MOL   H120  120   2.110   4.040   5.687  0.0985 -2.8425 -0.3135
    1MOL   H121  121   1.684   4.205   5.624  0.1680 -1.9328  3.8871
    1MOL   H122  122   1.744   4.365   5.584 -1.0742  1.2220  1.3646
    1MOL   C123  123   1.624   4.353   5.770  0.7637  0.2535 -0.1115
    1MOL   C124  124   1.590   4.247   5.878 -0.1426 -0.1819  0.3996
    1MOL   O125  125   1.641   4.252   5.986 -0.2966 -0.4600 -0.3962
    1MOL   C126  126   1.468   4.158   5.851 -0.1772  0.4592 -0.6264
    1MOL   C127  127   1.505   4.419   5.698 -0.1241  0.3501 -0.1969
    1MOL   H128  128   1.672   4.440   5.814  0.6419  0.7477 -0.9354
    1MOL   H129  129   1.376   4.204   5.888 -1.9459 -1.2374 -2.7687
    1MOL   H130  130   1.448   4.126   5.749  2.4598 -1.9313 -0.4287
    1MOL   H131  131   1.477   4.072   5.916  0.0109  0.3734 -0.7681
    1MOL   H132  132   1.459   4.337   5.643 -0.3489  0.2707  0.1042
    1MOL   H133  133   1.543   4.498   5.634  0.0733 -0.3146 -0.9154
    1MOL   C134  134   1.400   4.486   5.798  0.0077 -0.4748 -0.1161
    1MOL   C135  135   1.267   4.412   5.785 -0.2868  0.0421 -0.1073
    1MOL   O136  136   1.240   4.354   5.684 -0.0567 -0.7378  0.8518
    1MOL   C137  137   1.180   4.408   5.914  0.2851 -0.1511  0.0363
    1MOL   C138  138   1.380   4.634   5.766 -0.1645 -0.6724  0.2261
    1MOL   H139  139   1.428   4.481   5.903 -0.2471  1.9819  0.1018
    1MOL   H140  140   1.076   4.392   5.884  0.9174 -1.2133 -1.6551
    1MOL   H141  141   1.204   4.327   5.981 -1.6330 -1.2135 -0.5171
    1MOL   H142  142   1.193   4.497   5.975  2.2720 -2.1369  2.5608
    1MOL   H143  143   1.282   4.671   5.796 -0.2942 -1.5431  0.9194
    1MOL   H144  144   1.361   4.640   5.659  3.1693 -2.7875 -0.5633
    1MOL   C145  145   1.490   4.723   5.826 -0.2651 -0.0556 -0.0689
    1MOL   C146  146   1.487   4.727   5.975 -0.3557 -0.0646  0.1540
    1MOL   O147  147   1.396   4.801   6.023 -0.0993  0.0840  0.2086
    1MOL   C148  148   1.585   4.651   6.061 -0.2860 -0.2658  0.2197
    1MOL   C149  149   1.490   4.863   5.759  0.4639  0.1239  0.1858
    1MOL   H150  150   1.588   4.687   5.797  1.3864  4.2598 -0.1637
    1MOL   H151  151   1.652   4.726   6.102  1.2884 -1.5690  0.1142
    1MOL   H152  152   1.536   4.595   6.140 -0.0969  2.0278  2.0132
    1MOL   H153  153   1.650   4.585   6.003  0.6585  1.1804 -0.3801
    1MOL   H154  154   1.390   4.907   5.762 -0.3333 -1.6205 -0.0286
    1MOL   H155  155   1.509   4.847   5.653 -1.8564 -1.0880 -0.0970
    1MOL   C156  156   1.596   4.955   5.807  0.4888 -0.8458 -0.8387
    1MOL   C157  157   1.576   5.098   5.757 -0.3535 -0.3096 -0.4421
    1MOL   O158  158   1.639   5.150   5.664  0.2162 -0.2968 -0.2306
    1MOL   C159  159   1.469   5.171   5.823  0.1531  0.1642  0.0579
    1MOL   C160  160   1.741   4.907   5.770  0.3917 -0.3105 -0.3781
    1MOL   H161  161   1.584   4.977   5.913 -0.5704 -1.8828 -0.7321
    1MOL   H162  162   1.509   5.258   5.875 -0.6813  1.2975 -1.1869
    1MOL   H163  163   1.387   5.209   5.763 -0.2759 -1.0866 -0.1590
    1MOL   H164  164   1.428   5.110   5.904 -0.0352 -1.1699 -1.0313
    1MOL   H165  165   1.743   4.922   5.662 -2.6563 -0.9973 -0.5832
    1MOL   H166  166   1.753   4.799   5.779  1.3863 -0.1183  0.6475
    1MOL   C167  167   1.858   4.952   5.853 -0.3113  0.1487 -0.0726
    1MOL   C168  168   1.952   5.036   5.763 -0.0532  0.3388 -0.1844
    1MOL   O169  169   2.009   4.989   5.666 -0.2922  0.1134 -0.1951
    1MOL   C170  170   1.959   5.184   5.802  0.0954 -0.0859 -0.2160
    1MOL   C171  171   1.937   4.842   5.936  0.6186 -0.0637  0.3335
    1MOL   H172  172   1.813   5.020   5.925  0.8282  0.7856  0.0505
    1MOL   H173  173   1.915   5.248   5.725 -0.7758 -1.0370 -0.5234
    1MOL   H174  174   1.911   5.195   5.899 -2.0734  0.0619 -1.2889
    1MOL   H175  175   2.059   5.226   5.817  0.2896 -0.7862  0.5283
    1MOL   H176  176   1.978   4.784   5.853 -0.6356 -0.7659  0.1939
    1MOL   H177  177   1.865   4.777   5.986 -0.6629  1.5590  0.6555
    1MOL   C178  178   2.045   4.891   6.034 -0.0594 -0.7138 -0.1275
    1MOL   C179  179   1.998   5.001   6.130 -0.5757 -0.0662  0.6535
    1MOL   O180  180   2.010   5.121   6.095  0.1681 -0.2926 -0.0327
    1MOL   C181  181   1.919   4.977   6.262  0.0537 -0.0707  0.5790
    1MOL   C182  182   2.178   4.922   5.967  0.5553  0.1558  0.4503
    1MOL   H183  183   2.056   4.804   6.099  2.8632 -1.3406 -1.3818
    1MOL   H184  184   1.863   5.068   6.286 -1.3902 -0.8397  0.1446
    1MOL   H185  185   1.859   4.889   6.239  0.3895  0.1615 -1.2358
    1MOL   H186  186   1.978   4.936   6.344 -0.5974 -0.2997  0.9374
    1MOL   H187  187   2.169   5.029   5.950 -1.9706  0.1434  1.4449
    1MOL   H188  188   2.179   4.879   5.867 -1.1076 -0.0608  0.5178
    1MOL   C189  189   2.299   4.873   6.042 -1.0757  0.4903 -0.3763
    1MOL   C190  190   2.315   4.719   6.051  0.8608  0.2594  0.0135
    1MOL   O191  191   2.219   4.646   6.076  0.7379  0.6507 -0.5758
    1MOL   C192  192   2.452   4.662   6.031  0.2466  0.2065 -0.1874
    1MOL   C193  193   2.322   4.939   6.179 -0.4484  0.2837  0.4296
    1MOL   H194  194   2.389   4.900   5.987 -0.2085  0.1698  0.8525
    1MOL   H195  195   2.512   4.706   6.111  0.4489  1.2151 -0.8860
    1MOL   H196  196   2.445   4.555   6.050  0.3389  0.3456  0.6625
    1MOL   H197  197   2.506   4.673   5.937  0.7255 -0.0686  0.0491
    1MOL   H198  198   2.393   4.875   6.231 -1.9036 -1.0656  0.7791
    1MOL   H199  199   2.230   4.934   6.238 -2.0859 -1.8989 -2.1916
    1MOL   C200  200   2.388   5.077   6.186  0.2937  0.1596  0.1168
    1MOL   C201  201   2.535   5.068   6.195 -0.2746 -0.0901  0.2188
    1MOL   O202  202   2.598   5.005   6.278 -0.3682 -0.5776 -0.2167
    1MOL   C203  203   2.622   5.137   6.093  0.3624  0.0062 -0.5965
    1MOL   C204  204   2.349   5.163   6.314  0.3677 -0.0678  0.2294
    1MOL   H205  205   2.361   5.126   6.092  2.6630 -0.8990 -1.1323
    1MOL   H206  206   2.580   5.097   6.001 -2.9085  2.1747 -0.1329
    1MOL   H207  207   2.598   5.243   6.107  1.8938  0.1486  1.2437
    1MOL   H208  208   2.729   5.125   6.110  0.3560  3.1240  2.2942
    1MOL   H209  209   2.435   5.227   6.339  0.2753  0.5440 -0.9705
    1MOL   H210  210   2.348   5.093   6.398  0.0123  0.7500  0.9231
    1MOL   C211  211   2.230   5.253   6.304  0.1835  0.1710  0.1886
    1MOL   C212  212   2.243   5.369   6.207  0.5330  0.0640  0.2710
    1MOL   O213  213   2.350   5.410   6.167  0.2780  0.1976 -0.6373
    1MOL   C214  214   2.114   5.440   6.162 -0.1509 -0.2701 -0.4543
    1MOL   C215  215   2.198   5.304   6.443  0.3412 -0.2312 -0.4813
    1MOL   H216  216   2.140   5.200   6.273  0.5559 -0.9835  1.0538
    1MOL   H217  217   2.116   5.450   6.053  1.2172 -1.9731 -0.5997
    1MOL   H218  218   2.029   5.382   6.197 -1.5505  1.6986 -0.4851
    1MOL   H219  219   2.109   5.538   6.210  1.9497  0.1597 -1.0787
    1MOL   H220  220   2.170   5.231   6.519  0.3281 -0.0886 -0.3488
    1MOL   H221  221   2.115   5.374   6.432  0.0119 -0.5667 -0.1059
    1MOL   H222  222   2.286   5.357   6.480 -0.7282  0.9001  0.4921
    2MOL     C1  223   4.320   0.799   4.792  0.2140 -0.1561 -0.4944
    2MOL     C2  224   4.469   0.834   4.772  0.4419 -0.2148  0.3511
    2MOL     O3  225   4.555   0.753   4.789 -0.1429 -0.1708 -0.3106
    2MOL     C4  226   4.498   0.986   4.744  0.8606 -0.1025 -0.4383
    2MOL     C5  227   4.300   0.647   4.786  0.4229 -0.3117 -0.2503
    2MOL     H6  228   4.279   0.839   4.884 -1.3261 -2.4331 -0.1300
    2MOL     H7  229   4.405   1.038   4.722  1.2524  1.1458  0.7908
    2MOL     H8  230   4.563   1.028   4.820  2.5430  1.6096 -2.7705
    2MOL     H9  231   4.552   0.996   4.650  1.6187  1.1633  0.1216
    2MOL    H10  232   4.359   0.610   4.870  1.0960  1.8665  0.2794
    2MOL    H11  233   4.345   0.607   4.695  0.6193  0.2237 -0.3897
    2MOL    H12  234   4.252   0.843   4.719 -1.8435 -0.7007  1.0512
    2MOL    C13  235   4.151   0.601   4.803 -0.5399 -0.2718  0.1725
    2MOL    C14  236   4.145   0.460   4.857  0.2414 -0.2614 -0.2437
    2MOL    O15  237   4.230   0.373   4.826  0.8557  0.3295 -0.3413
    2MOL    C16  238   4.041   0.439   4.968 -0.2466 -0.1029 -0.6014
    2MOL    C17  239   4.091   0.586   4.662 -0.0197 -0.2856  0.2261
    2MOL    H18  240   4.103   0.683   4.855  0.5957 -0.7559  2.0526
    2MOL    H19  241   4.101   0.418   5.056 -1.0506 -3.4458 -0.7994
    2MOL    H20  242   3.983   0.525   5.004 -1.4979 -1.9606  1.9648
    2MOL    H21  243   3.976   0.353   4.953 -0.8072  0.2837 -0.4121
    2MOL    H22  244   4.155   0.524   4.600  1.1130 -1.0715  2.1269
    2MOL    H23  245   4.104   0.676   4.603  1.8153 -1.0039 -0.4885
    2MOL    C24  246   3.939   0.541   4.650  0.3764 -0.0810 -0.3761
    2MOL    C25  247   3.927   0.420   4.557 -0.3416  0.4339 -0.4097
    2MOL    O26  248   3.919   0.429   4.436  0.1639 -0.4220  0.0640
    2MOL    C27  249   3.935   0.286   4.620 -0.7803 -0.5312 -0.1052
    2MOL    C28  250   3.845   0.668   4.617  0.3307 -0.0039 -0.4245
    2MOL    H29  251   3.911   0.496   4.746  4.3525 -0.1006  0.8552
    2MOL    H30  252   4.036   0.250   4.635 -0.9066 -0.4017  1.0729
    2MOL    H31  253   3.893   0.298   4.720  0.1482  1.0245  0.1110
    2MOL    H32  254   3.867   0.221   4.565 -1.4069  0.8987 -1.0576
    2MOL    H33  255   3.865   0.721   4.524 -0.1878 -1.3478 -1.3244
    2MOL    H34  256   3.875   0.737   4.696 -0.8032 -0.4416  0.4067
    2MOL    C35  257   3.701   0.652   4.665  0.6905 -0.1155  0.1595
    2MOL    C36  258   3.619   0.559   4.575 -0.3617  0.1755 -0.4023
    2MOL    O37  259   3.588   0.590   4.463  0.2622  0.2878  0.0383
    2MOL    C38  260   3.579   0.425   4.635  0.1602  0.0090 -0.3994
    2MOL    C39  261   3.621   0.778   4.695 -0.4199  0.2540  0.4713
    2MOL    H40  262   3.701   0.601   4.761  1.3884  0.7346  0.6303
    2MOL    H41  263   3.654   0.373   4.695 -0.7561 -2.3083 -1.1800
    2MOL    H42  264   3.479   0.430   4.680  0.8352 -2.4087  1.4986
    2MOL    H43  265   3.566   0.361   4.548 -0.7341  0.0271 -0.2873
    2MOL    H44  266   3.532   0.783   4.632  0.2905 -2.1546 -0.7824
    2MOL    H45  267   3.683   0.863   4.664 -0.1490  0.7523  2.3530
    2MOL    C46  268   3.574   0.794   4.845  0.1173  0.2628  0.5418
    2MOL    C47  269   3.479   0.683   4.891 -0.3866 -0.1348  0.5409
    2MOL    O48  270   3.393   0.630   4.818 -0.0302  0.3725 -0.2692
    2MOL    C49  271   3.490   0.631   5.032  0.5610  0.8284  0.4677
    2MOL    C50  272   3.516   0.933   4.879 -0.4088  0.1996 -0.1739
    2MOL    H51  273   3.662   0.788   4.908  1.0176  1.2400 -0.5855
    2MOL    H52  274   3.566   0.674   5.096  1.5938  0.0478 -0.2250
    2MOL    H53  275   3.394   0.620   5.083  0.5923 -0.0309  0.3580
    2MOL    H54  276   3.523   0.528   5.019  0.3420  0.7271  0.7109
    2MOL    H55  277   3.591   1.012   4.865 -0.0380 -0.4284 -1.9494
    2MOL    H56  278   3.494   0.935   4.985  3.3294 -2.3484  0.7292
    2MOL    C57  279   3.392   0.965   4.781  1.1793 -0.4279 -0.0854
    2MOL    C58  280   3.440   1.027   4.646 -0.8158  0.3251  0.1976
    2MOL    O59  281   3.534   1.108   4.640  0.2464  0.1970 -0.4618
    2MOL    C60  282   3.352   0.991   4.527 -0.4600  0.3645 -0.8072
    2MOL    C61  283   3.297   1.064   4.851  0.0840 -0.1646  0.2260
    2MOL    H62  284   3.347   0.875   4.739 -0.5702  0.5947 -0.4346
    2MOL    H63  285   3.268   1.058   4.541 -0.1798  0.6614 -0.5418
    2MOL    H64  286   3.404   1.003   4.431  0.5081 -2.1398 -0.6368
    2MOL    H65  287   3.331   0.886   4.545 -0.1739  0.4381 -0.0217
    2MOL    H66  288   3.228   1.098   4.773  0.0562  0.8400  0.6742
    2MOL    H67  289   3.363   1.141   4.891  1.8797 -1.9655  0.8224
    2MOL    C68  290   3.206   1.011   4.966  0.6870  0.1935  0.2147
    2MOL    C69  291   3.273   1.022   5.104  0.1091 -0.0590 -0.4433
    2MOL    O70  292   3.312   0.923   5.161  0.4888  0.2216  0.1684
    2MOL    C71  293   3.276   1.161   5.169  0.1355  0.1244  0.4751
    2MOL    C72  294   3.140   0.876   4.935 -1.0450  0.5926 -0.4799
    2MOL    H73  295   3.125   1.085   4.967  0.5664  0.0634  0.0220
    2MOL    H74  296   3.299   1.164   5.276 -0.9276 -1.3894  0.7578
    2MOL    H75  297   3.343   1.223   5.110  1.0053 -0.3072  0.9992
    2MOL    H76  298   3.189   1.217   5.135  1.3061 -0.2393 -3.2701
    2MOL    H77  299   3.088   0.838   5.023  2.1773 -3.2190 -0.0480
    2MOL    H78  300   3.217   0.800   4.923 -1.6321 -0.0623 -0.1331
    2MOL    C79  301   3.048   0.872   4.813  0.2469 -0.4649 -0.1580
    2MOL    C80  302   2.940   0.977   4.809 -0.7718  0.2863 -0.3541
    2MOL    O81  303   2.900   1.034   4.910  0.1615  0.1425  0.2299
    2MOL    C82  304   2.886   1.013   4.671 -0.3037 -0.1562  0.5560
    2MOL    C83  305   2.981   0.741   4.780 -0.3898  0.2179  0.3228
    2MOL    H84  306   3.116   0.889   4.729 -0.2750 -0.4404 -0.5732
    2MOL    H85  307   2.946   1.097   4.635  2.6873 -2.1791  0.6390
    2MOL    H86  308   2.900   0.928   4.604  0.2329  0.8573 -0.6516
    2MOL    H87  309   2.780   1.035   4.662 -0.7273 -2.6668 -1.1420
    2MOL    H88  310   2.890   0.751   4.721 -0.6772 -0.7443  0.5873
    2MOL    H89  311   2.939   0.682   4.862 -0.4070 -1.8819 -1.1583
    2MOL    C90  312   3.074   0.638   4.704 -0.4658  0.2336  0.6431
    2MOL    C91  313   3.123   0.687   4.567 -0.1201  0.6642  0.2847
    2MOL    O92  314   3.064   0.778   4.506 -0.3367 -0.6205 -0.3629
    2MOL    C93  315   3.247   0.622   4.503  0.1029 -0.9681 -0.3842
    2MOL    C94  316   2.997   0.503   4.688 -0.0007 -0.3190 -0.3490
    2MOL    H95  317   3.169   0.637   4.757  0.5709  1.9274 -1.0993
    2MOL    H96  318   3.308   0.558   4.567  0.2160  2.5140  3.1276
    2MOL    H97  319   3.223   0.568   4.412  0.8219  1.9959 -2.3956
    2MOL    H98  320   3.307   0.710   4.480 -0.9837 -0.0436  0.2742
    2MOL    H99  321   3.037   0.452   4.601 -1.7470  0.6721 -1.7856
    2MOL   H100  322   2.888   0.511   4.683  0.0411  0.0832 -0.6793
    2MOL   C101  323   3.027   0.422   4.813 -0.1516 -0.4302  1.0791
    2MOL   C102  324   3.163   0.344   4.792  0.4326  0.2174  0.4175
    2MOL   O103  325   3.205   0.318   4.682 -0.6467  0.1646 -0.3283
    2MOL   C104  326   3.229   0.314   4.924  0.3571  0.4294  0.0314
    2MOL   C105  327   2.917   0.326   4.855  0.9220 -0.3351 -0.2280
    2MOL   H106  328   3.045   0.490   4.896  0.7587 -1.8413  2.0717
    2MOL   H107  329   3.153   0.299   5.001 -0.4276  0.8828 -0.6481
    2MOL   H108  330   3.277   0.218   4.907 -1.7396 -0.5203 -0.7583
    2MOL   H109  331   3.294   0.400   4.942  0.6209  0.2680 -0.1533
    2MOL   H110  332   2.820   0.374   4.845  0.9181 -0.6468 -1.9682
    2MOL   H111  333   2.914   0.312   4.963 -2.0343 -0.6573 -0.2984
    2MOL   C112  334   2.903   0.190   4.771  0.2257 -0.2123  0.2254
    2MOL   C113  335   2.841   0.212   4.636  0.1346  0.2106 -0.0076
    2MOL   O114  336   2.719   0.225   4.627 -0.0582 -0.0384 -0.5315
    2MOL   C115  337   2.938   0.198   4.518 -0.4090  0.0272 -0.2358
    2MOL   C116  338   2.826   0.068   4.845  0.5783 -0.1884 -0.7732
    2MOL   H117  339   3.005   0.159   4.749 -0.6433  0.3296 -5.1366
    2MOL   H118  340   2.957   0.093   4.494  1.3251 -0.1173  1.6633
    2MOL   H119  341   2.905   0.253   4.429  1.9714  0.2241 -1.0341
    2MOL   H120  342   3.035   0.237   4.550 -0.8997 -1.0148  2.6609
    2MOL   H121  343   2.719   0.092   4.841  0.5875 -0.0513 -0.2908
    2MOL   H122  344   2.836   0.077   4.953 -1.9004 -3.0036 -0.2424
    2MOL   C123  345   2.858   7.766   4.787  0.5589 -0.9702  0.9461
    2MOL   C124  346   2.793   7.734   4.648  0.2654  0.1661 -0.4236
    2MOL   O125  347   2.858   7.733   4.543 -0.4024 -0.7428 -0.3729
    2MOL   C126  348   2.652   7.685   4.652  0.9672  0.6368 -0.2900
    2MOL   C127  349   2.845   7.652   4.895  0.0119  0.4299 -0.2964
    2MOL   H128  350   2.963   7.774   4.762  0.2358 -2.3211 -0.9637
    2MOL   H129  351   2.634   7.588   4.699  0.3310 -0.6904 -3.1651
    2MOL   H130  352   2.595   7.764   4.702 -1.2357 -0.7819 -0.5213
    2MOL   H131  353   2.611   7.698   4.552 -0.3513  2.7772  0.4924
    2MOL   H132  354   2.834   7.556   4.846  2.5223 -0.1145  0.1623
    2MOL   H133  355   2.751   7.671   4.948  0.6545  1.1638  0.5990
    2MOL   C134  356   2.961   7.641   5.000 -0.1581  0.1962 -0.0666
    2MOL   C135  357   3.102   7.622   4.940 -0.3800  0.7636 -0.1935
    2MOL   O136  358   3.116   7.562   4.828 -0.7869 -0.2288  0.2427
    2MOL   C137  359   3.221   7.651   5.025  0.2139 -0.3331 -0.1189
    2MOL   C138  360   2.923   7.541   5.111 -0.5728 -0.4893  0.0015
    2MOL   H139  361   2.971   7.742   5.040  0.9347  0.0168  0.1385
    2MOL   H140  362   3.212   7.600   5.121 -1.1402 -0.4306 -0.2798
    2MOL   H141  363   3.307   7.625   4.963 -0.1470  0.2031 -0.8538
    2MOL   H142  364   3.217   7.758   5.044  0.0660 -0.7276  2.1842
    2MOL   H143  365   2.830   7.578   5.155  0.9660  0.3091  2.6975
    2MOL   H144  366   2.992   7.546   5.194 -4.1683 -2.8328  3.3048
    2MOL   C145  367   2.910   7.389   5.078 -0.2541  0.0579  0.2853
    2MOL   C146  368   2.794   7.364   4.977  1.1859  0.4435 -0.4762
    2MOL   O147  369   2.679   7.386   5.015  0.2628  0.0991  0.1571
    2MOL   C148  370   2.820   7.286   4.855  0.2286 -0.4432 -0.5874
    2MOL   C149  371   2.884   7.303   5.211  0.4400  0.0702 -0.0486
    2MOL   H150  372   2.997   7.357   5.021 -1.3433 -1.5612 -0.5309
    2MOL   H151  373   2.732   7.319   4.799  0.0526  0.9558  0.4688
    2MOL   H152  374   2.903   7.330   4.801 -1.1349  1.5149 -1.1487
    2MOL   H153  375   2.828   7.179   4.872 -0.4082 -0.1838  1.6157
    2MOL   H154  376   2.824   7.212   5.201  1.8905 -0.8518 -0.4884
    2MOL   H155  377   2.815   7.366   5.267  1.7100  0.4083  1.1408
    2MOL   C156  378   3.012   7.267   5.286 -0.4112  0.9143 -0.1872
    2MOL   C157  379   3.098   7.171   5.200 -0.2522 -0.3437 -0.1411
    2MOL   O158  380   3.206   7.220   5.158  0.0524  0.4260  0.0335
    2MOL   C159  381   3.064   7.023   5.163 -0.0279 -0.3150 -0.3737
    2MOL   C160  382   2.984   7.217   5.427  0.5800  0.2107 -0.2231
    2MOL   H161  383   3.064   7.361   5.300 -0.9431  0.9142  1.9591
    2MOL   H162  384   3.092   6.968   5.252 -3.3325  0.3476  1.1199
    2MOL   H163  385   2.962   7.014   5.127  0.3343 -1.2475 -1.2011
    2MOL   H164  386   3.128   6.990   5.081  2.1583  0.4796  0.9749
    2MOL   H165  387   2.950   7.113   5.426 -0.7627  0.6054  1.7880
    2MOL   H166  388   2.896   7.262   5.473 -0.1708 -0.1174 -1.3047
    2MOL   C167  389   3.100   7.224   5.525  0.5525 -0.0123 -0.4875
    2MOL   C168  390   3.207   7.114   5.515  0.2120  0.4249  0.1825
    2MOL   O169  391   3.187   7.001   5.547 -0.2119  0.5062 -0.0679
    2MOL   C170  392   3.342   7.150   5.468 -0.9683  0.0350  0.0724
    2MOL   C171  393   3.038   7.228   5.668  0.0450  0.4249  0.8131
    2MOL   H172  394   3.134   7.328   5.518  2.0351 -0.4636 -0.1749
    2MOL   H173  395   3.423   7.146   5.541  1.3266  3.9760 -2.0683
    2MOL   H174  396   3.363   7.092   5.379  1.1890 -0.7914  1.0787
    2MOL   H175  397   3.333   7.255   5.440  1.1453  0.4117  0.6546
    2MOL   H176  398   3.039   7.126   5.706  2.2017 -0.2616 -0.9507
    2MOL   H177  399   2.934   7.263   5.667  0.2844  1.2551 -2.4357
    2MOL   C178  400   3.102   7.320   5.783  0.4689  0.3344 -0.3367
    2MOL   C179  401   3.052   7.466   5.766  0.3159  0.6369 -0.6962
    2MOL   O180  402   2.936   7.496   5.794  0.2622 -0.1173 -0.2409
    2MOL   C181  403   3.147   7.580   5.715 -0.6834 -0.1860 -0.2415
    2MOL   C182  404   3.252   7.300   5.792  0.0424  0.5336 -0.0060
    2MOL   H183  405   3.044   7.295   5.872 -0.3320  0.4840 -0.8235
    2MOL   H184  406   3.249   7.550   5.691 -1.2423 -0.9074 -1.7504
    2MOL   H185  407   3.100   7.641   5.637 -0.1501 -0.1878 -0.5617
    2MOL   H186  408   3.164   7.651   5.796  1.9074  1.9321 -2.5319
    2MOL   H187  409   3.288   7.397   5.827  0.9424  0.3130 -0.3239
    2MOL   H188  410   3.295   7.301   5.692 -0.1779  1.8650 -0.0946
    2MOL   C189  411   3.312   7.189   5.884 -0.1668 -0.2410  0.0314
    2MOL   C190  412   3.270   7.204   6.031  0.5388  0.0516  0.1645
    2MOL   O191  413   3.270   7.313   6.084  0.0061 -0.0025 -0.0459
    2MOL   C192  414   3.220   7.081   6.104  0.0739  0.1981 -0.2974
    2MOL   C193  415   3.470   7.161   5.870 -0.3817  0.0782  0.3070
    2MOL   H194  416   3.275   7.089   5.861  0.7417 -0.0643 -2.3109
    2MOL   H195  417   3.202   7.003   6.029  1.0569  1.2095 -1.6061
    2MOL   H196  418   3.299   7.054   6.174 -1.0640 -1.2159  0.4859
    2MOL   H197  419   3.131   7.094   6.164  0.4466 -0.0858  0.3276
    2MOL   H198  420   3.492   7.135   5.767 -0.7826  1.5814 -0.1751
    2MOL   H199  421   3.483   7.070   5.929  0.9171 -1.2832 -2.0317
    2MOL   C200  422   3.569   7.270   5.919  0.2127 -0.9258  0.2779
    2MOL   C201  423   3.566   7.399   5.836 -0.3134  0.0764  0.1938
    2MOL   O202  424   3.546   7.401   5.714 -0.0622  0.0076  0.0314
    2MOL   C203  425   3.588   7.532   5.907  1.0074  0.6473  0.4697
    2MOL   C204  426   3.711   7.209   5.919 -0.1972 -0.2558 -0.4109
    2MOL   H205  427   3.543   7.309   6.017 -0.5614  0.5247 -0.4900
    2MOL   H206  428   3.577   7.617   5.839 -0.1569  0.3379  0.2748
    2MOL   H207  429   3.533   7.549   6.000 -0.9571  0.7486 -0.6924
    2MOL   H208  430   3.694   7.536   5.932  0.5421 -0.7534  2.7899
    2MOL   H209  431   3.794   7.277   5.939  0.7315 -2.4626  4.0187
    2MOL   H210  432   3.742   7.166   5.824  0.9078 -2.9809  1.1144
    2MOL   C211  433   3.731   7.096   6.021 -0.1932 -0.2223  1.0225
    2MOL   C212  434   3.735   7.147   6.164  0.2708 -0.1223  0.0681
    2MOL   O213  435   3.837   7.144   6.228  0.6891 -0.2466 -0.4366
    2MOL   C214  436   3.598   7.186   6.233 -0.3252 -0.5124 -0.5154
    2MOL   C215  437   3.852   7.024   5.977 -0.6856  0.1648 -0.7437
    2MOL   H216  438   3.652   7.022   6.022 -0.5617  0.1436 -0.0933
    2MOL   H217  439   3.523   7.117   6.194 -1.0479 -1.1179  1.8662
    2MOL   H218  440   3.596   7.189   6.342  0.7739  2.5549 -0.5235
    2MOL   H219  441   3.568   7.289   6.211  0.2804 -0.0342  0.8466
    2MOL   H220  442   3.871   6.950   6.054 -1.2547  0.0066 -0.7518
    2MOL   H221  443   3.942   7.085   5.987 -2.4100  2.5305  0.5901
    2MOL   H222  444   3.853   6.976   5.879  0.2870  1.1792 -1.2497
    3MOL     C1  445   5.389   5.193   6.237 -0.1473  0.6728 -0.2020
    3MOL     C2  446   5.357   5.221   6.382 -0.6329  0.3281 -0.0662
    3MOL     O3  447   5.433   5.175   6.469 -0.2154  0.2199  0.0338
    3MOL     C4  448   5.231   5.301   6.412  0.3016  0.0804 -0.2773
    3MOL     C5  449   5.534   5.213   6.203 -0.4548 -0.0098 -1.2122
    3MOL     H6  450   5.348   5.094   6.216 -2.5593  1.6819 -0.3964
    3MOL     H7  451   5.267   5.403   6.409 -2.9574  1.3365  0.6250
    3MOL     H8  452   5.149   5.293   6.340 -0.6154  0.0785  0.7498
    3MOL     H9  453   5.184   5.268   6.505 -1.7095  0.9582 -0.9387
    3MOL    H10  454   5.552   5.176   6.102  2.2849  0.0125 -0.7645
    3MOL    H11  455   5.588   5.151   6.274 -1.3065  0.5304 -0.0823
    3MOL    H12  456   5.340   5.261   6.167  1.1520  1.8009 -0.0310
    3MOL    C13  457   5.599   5.351   6.230  0.4228 -0.6267  0.3949
    3MOL    C14  458   5.531   5.456   6.153  0.1419  0.2860 -0.2663
    3MOL    O15  459   5.513   5.433   6.033 -0.7803  0.0983 -0.2194
    3MOL    C16  460   5.481   5.586   6.218  0.3915  0.2198  0.3408
    3MOL    C17  461   5.748   5.354   6.209 -0.4444  0.0595  1.1347
    3MOL    H18  462   5.584   5.385   6.332 -2.0653  1.0289 -0.4600
    3MOL    H19  463   5.552   5.609   6.297  0.0295  0.6756  0.5354
    3MOL    H20  464   5.477   5.668   6.147 -0.7283 -0.1337 -0.0220
    3MOL    H21  465   5.380   5.566   6.254  0.5502 -2.4667 -0.5976
    3MOL    H22  466   5.780   5.457   6.199  0.1614 -0.4301 -2.8913
    3MOL    H23  467   5.777   5.294   6.122  0.4112  1.1132  0.6795
    3MOL    C24  468   5.840   5.301   6.319 -0.0116 -0.1041  0.5610
    3MOL    C25  469   5.848   5.395   6.439 -0.5749  1.1326  0.0184
    3MOL    O26  470   5.863   5.517   6.435 -0.2102 -0.9008 -0.1763
    3MOL    C27  471   5.843   5.325   6.575 -0.5998  0.2979 -0.0634
    3MOL    C28  472   5.981   5.250   6.275 -0.6119 -0.1175  0.2962
    3MOL    H29  473   5.784   5.215   6.356  0.2286  0.3559  2.0275
    3MOL    H30  474   5.899   5.389   6.643  1.5657 -0.0918 -1.4395
    3MOL    H31  475   5.741   5.315   6.611 -0.2835 -3.0312  0.1073
    3MOL    H32  476   5.898   5.231   6.579  0.0073  0.5683 -1.8497
    3MOL    H33  477   5.959   5.176   6.198  0.1261 -0.7038  0.6352
    3MOL    H34  478   6.019   5.193   6.359 -0.4079  1.8931  1.6106
    3MOL    C35  479   6.084   5.364   6.233  0.2588  0.2534 -0.1641
    3MOL    C36  480   6.128   5.339   6.086 -0.4833 -0.0831 -0.2517
    3MOL    O37  481   6.228   5.269   6.069  0.5222  0.0460 -0.8812
    3MOL    C38  482   6.057   5.405   5.975 -0.0368  0.0839 -0.2861
    3MOL    C39  483   6.204   5.375   6.330  0.0183 -0.0131 -0.5111
    3MOL    H40  484   6.027   5.457   6.243 -1.6224 -0.9899  0.9047
    3MOL    H41  485   6.051   5.510   6.003  0.1025 -0.4849  1.9962
    3MOL    H42  486   6.113   5.385   5.884 -0.6365  0.9686 -0.8431
    3MOL    H43  487   5.955   5.373   5.956  0.5230 -1.8046 -0.2081
    3MOL    H44  488   6.271   5.292   6.306  1.0240  0.6927 -0.1914
    3MOL    H45  489   6.182   5.356   6.435 -2.1129 -1.1979 -1.1532
    3MOL    C46  490   6.288   5.505   6.314  0.1951 -0.6000 -0.5505
    3MOL    C47  491   6.436   5.470   6.330 -0.4846 -0.7569 -0.3813
    3MOL    O48  492   6.504   5.512   6.427  0.0013  0.2785 -0.3329
    3MOL    C49  493   6.502   5.394   6.218 -0.0813  0.2197 -0.2236
    3MOL    C50  494   6.247   5.620   6.407 -0.1830  0.4772 -0.8896
    3MOL    H51  495   6.294   5.540   6.211 -0.2705 -0.4243 -0.5173
    3MOL    H52  496   6.600   5.372   6.261 -1.1002  0.0751  2.1245
    3MOL    H53  497   6.452   5.301   6.188 -2.3571  2.1964 -2.7791
    3MOL    H54  498   6.501   5.450   6.125  0.2399 -0.5640 -0.7004
    3MOL    H55  499   6.261   5.590   6.511  0.3957  1.9026 -0.5510
    3MOL    H56  500   6.139   5.631   6.401 -0.1418  0.3226 -2.0237
    3MOL    C57  501   6.322   5.750   6.378 -0.2471  0.0920 -0.2650
    3MOL    C58  502   6.326   5.838   6.516  0.3568  0.9648  0.0367
    3MOL    O59  503   6.213   5.876   6.557  0.1668  0.2408  0.8426
    3MOL    C60  504   6.458   5.874   6.573  0.3083 -0.5894 -0.2935
    3MOL    C61  505   6.263   5.831   6.261 -0.0301  0.1711  0.9268
    3MOL    H62  506   6.424   5.726   6.348  0.0732  0.2295  0.6954
    3MOL    H63  507   6.459   5.815   6.664  1.5025 -0.5911 -0.3016
    3MOL    H64  508   6.537   5.849   6.502 -0.4504 -2.8335 -0.3870
    3MOL    H65  509   6.451   5.982   6.591 -1.6810 -0.4952 -1.4727
    3MOL    H66  510   6.168   5.875   6.293  0.8380  0.6939  2.8834
    3MOL    H67  511   6.237   5.769   6.175 -0.9613  2.2692 -0.3551
    3MOL    C68  512   6.349   5.954   6.209 -0.7925 -0.4266 -0.2688
    3MOL    C69  513   6.251   6.066   6.159 -0.2846 -0.0776  0.3943
    3MOL    O70  514   6.201   6.055   6.049  0.1413 -0.2203  0.3013
    3MOL    C71  515   6.216   6.183   6.252  0.3265 -0.4971 -0.6052
    3MOL    C72  516   6.461   5.914   6.103 -0.6384  0.9363  0.0788
    3MOL    H73  517   6.390   5.994   6.302 -0.0576  1.4186 -1.3579
    3MOL    H74  518   6.189   6.154   6.353  1.8297 -0.7183 -0.2560
    3MOL    H75  519   6.292   6.259   6.271 -1.0775  0.1971  2.4263
    3MOL    H76  520   6.129   6.227   6.204  1.2367  1.2920 -0.6321
    3MOL    H77  521   6.414   5.927   6.005 -1.3812  2.0493  0.5651
    3MOL    H78  522   6.489   5.810   6.115  0.1933  1.2169  0.5781
    3MOL    C79  523   6.586   5.999   6.110 -0.1907  0.0384  0.4740
    3MOL    C80  524   6.674   5.976   6.240  0.0559  0.4567  0.2179
    3MOL    O81  525   6.717   6.063   6.315 -0.7341  0.2866 -0.3191
    3MOL    C82  526   6.708   5.831   6.259  0.1530 -0.4701  0.5144
    3MOL    C83  527   6.560   6.145   6.070 -0.4523  0.4543  0.7602
    3MOL    H84  528   6.652   5.962   6.032 -2.0266  0.4785 -1.3198
    3MOL    H85  529   6.622   5.776   6.298 -0.2612 -0.7531 -0.7583
    3MOL    H86  530   6.740   5.789   6.163  0.8087  1.3001 -0.0529
    3MOL    H87  531   6.788   5.822   6.332  0.0768 -2.2394  0.4108
    3MOL    H88  532   6.653   6.199   6.088 -0.7946  0.0934  3.9917
    3MOL    H89  533   6.485   6.190   6.135  0.5200  1.2284  1.3633
    3MOL    C90  534   6.516   6.164   5.914 -0.0912  0.3828 -0.1861
    3MOL    C91  535   6.638   6.135   5.830  0.5747  0.3054  0.4828
    3MOL    O92  536   6.626   6.056   5.733 -0.3339  0.5325  0.3504
    3MOL    C93  537   6.769   6.208   5.861 -0.0451 -0.1705  0.6287
    3MOL    C94  538   6.455   6.305   5.864 -0.0852 -0.0283  0.2862
    3MOL    H95  539   6.435   6.097   5.885  2.2165 -1.2788 -3.0620
    3MOL    H96  540   6.820   6.250   5.774 -1.3177  2.1096  0.9230
    3MOL    H97  541   6.755   6.293   5.928 -2.2217 -1.1972  1.4996
    3MOL    H98  542   6.831   6.133   5.910 -0.0219 -1.0459 -0.7270
    3MOL    H99  543   6.513   6.386   5.907 -0.1774 -0.4544  1.2319
    3MOL   H100  544   6.365   6.308   5.926 -0.9897  0.7690 -1.0433
    3MOL   C101  545   6.422   6.332   5.718  0.0697 -0.2819  0.3998
    3MOL   C102  546   6.406   6.481   5.692  0.5693 -0.8521 -0.1730
    3MOL   O103  547   6.316   6.547   5.735 -0.0722 -0.0032 -0.1968
    3MOL   C104  548   6.504   6.541   5.591 -0.4621  0.2125 -0.7154
    3MOL   C105  549   6.296   6.244   5.671 -0.2058 -0.1100 -0.0064
    3MOL   H106  550   6.514   6.307   5.666  0.6911  0.3216  1.1781
    3MOL   H107  551   6.605   6.531   5.628 -0.7000 -1.9763 -0.5861
    3MOL   H108  552   6.497   6.477   5.502  0.5267 -0.6946 -0.1537
    3MOL   H109  553   6.479   6.638   5.548 -0.9231  0.6757  0.5707
    3MOL   H110  554   6.227   6.311   5.621 -0.1534 -1.4654 -1.9754
    3MOL   H111  555   6.233   6.215   5.755  1.4429 -1.9106  0.6637
    3MOL   C112  556   6.337   6.118   5.579  0.0191  0.3701 -0.5864
    3MOL   C113  557   6.398   6.153   5.444  0.2058  0.4241  0.3694
    3MOL   O114  558   6.354   6.246   5.374  0.1855  0.1142  0.2751
    3MOL   C115  559   6.512   6.058   5.401 -0.4190  0.3388 -0.7843
    3MOL   C116  560   6.218   6.025   5.535 -0.3227  0.2499  0.4902
    3MOL   H117  561   6.416   6.058   5.623 -1.7534 -1.5085  0.0821
    3MOL   H118  562   6.598   6.108   5.356 -0.4420  0.4026 -0.7556
    3MOL   H119  563   6.550   5.994   5.481 -1.5065  1.3502  0.5618
    3MOL   H120  564   6.476   5.982   5.331 -0.8125  0.2654 -0.5033
    3MOL   H121  565   6.234   5.964   5.446 -0.1400  1.3135 -0.2329
    3MOL   H122  566   6.131   6.086   5.508  0.0240  0.6797  0.3220
    3MOL   C123  567   6.169   5.926   5.649 -0.8652 -0.0851 -0.1178
    3MOL   C124  568   6.278   5.823   5.706  0.1163  0.4905  0.5069
    3MOL   O125  569   6.380   5.793   5.638 -0.2164 -0.3976  0.2404
    3MOL   C126  570   6.251   5.758   5.838  0.0111 -0.3598  0.7340
    3MOL   C127  571   6.047   5.838   5.601  0.4848 -0.6662 -0.0968
    3MOL   H128  572   6.132   5.984   5.733 -2.4989 -2.1022  0.5879
    3MOL   H129  573   6.348   5.732   5.881  0.8504  0.6226 -0.5319
    3MOL   H130  574   6.211   5.830   5.910  1.7968  0.3781  1.0043
    3MOL   H131  575   6.190   5.668   5.847 -0.5714  0.0203  0.6336
    3MOL   H132  576   6.058   5.730   5.605 -0.4349 -0.7551  0.1916
    3MOL   H133  577   6.041   5.854   5.494  0.8149 -2.4409 -0.3960
    3MOL   C134  578   5.908   5.863   5.669 -0.1677 -0.9025  0.0305
    3MOL   C135  579   5.910   5.834   5.813 -0.1550  0.2577 -0.4640
    3MOL   O136  580   5.924   5.720   5.850 -0.1849 -0.5870 -0.0696
    3MOL   C137  581   5.921   5.947   5.913  0.0044  0.5720  0.4791
    3MOL   C138  582   5.805   5.780   5.588 -0.5548 -0.0343  0.1441
    3MOL   H139  583   5.897   5.971   5.655  1.3577 -0.9197 -1.5574
    3MOL   H140  584   5.975   6.023   5.856  3.3184 -2.0749 -0.0868
    3MOL   H141  585   5.831   6.004   5.935 -0.1311 -0.3703  2.4527
    3MOL   H142  586   5.971   5.923   6.006  0.0584  0.7061  0.4858
    3MOL   H143  587   5.830   5.675   5.608 -0.3043 -0.4368 -2.1057
    3MOL   H144  588   5.814   5.794   5.480  1.8397 -0.9516  0.1897
    3MOL   C145  589   5.660   5.791   5.617 -0.7839  0.6625  0.0507
    3MOL   C146  590   5.598   5.925   5.616 -1.1950  0.0732  0.3200
    3MOL   O147  591   5.566   5.987   5.717 -0.1225  0.1744 -0.2598
    3MOL   C148  592   5.579   5.992   5.485 -0.4713 -0.6030  0.5652
    3MOL   C149  593   5.615   5.710   5.748 -0.1620  0.2567  0.2185
    3MOL   H150  594   5.608   5.741   5.535 -0.5329 -3.0750  2.0269
    3MOL   H151  595   5.655   5.962   5.412 -1.0310  3.4346 -1.8780
    3MOL   H152  596   5.487   5.957   5.438  0.0635  0.1038 -1.0448
    3MOL   H153  597   5.587   6.101   5.487 -0.7607 -0.4940 -1.9649
    3MOL   H154  598   5.634   5.769   5.838  1.2004  0.5868 -0.2739
    3MOL   H155  599   5.689   5.630   5.755  1.1518  1.4852  0.7044
    3MOL   C156  600   5.469   5.648   5.747  0.3128 -0.2372 -0.3768
    3MOL   C157  601   5.476   5.519   5.660  0.3915  0.1273 -0.4052
    3MOL   O158  602   5.461   5.531   5.539  0.0037 -0.0409  1.0488
    3MOL   C159  603   5.491   5.386   5.726  0.0781  0.8106 -0.1364
    3MOL   C160  604   5.341   5.728   5.706  0.9343 -0.2697  0.4446
    3MOL   H161  605   5.448   5.625   5.851  0.0411  3.7061  0.5155
    3MOL   H162  606   5.401   5.375   5.785 -0.7536  1.3602 -1.2802
    3MOL   H163  607   5.482   5.318   5.642  0.8449  0.9470 -0.3368
    3MOL   H164  608   5.573   5.365   5.795  0.5068 -4.1245 -1.9904
    3MOL   H165  609   5.349   5.763   5.603  1.6108 -0.0169  0.5800
    3MOL   H166  610   5.332   5.816   5.769  3.0104  0.0658  0.3182
    3MOL   C167  611   5.206   5.649   5.716  0.7721  0.2193 -0.1785
    3MOL   C168  612   5.083   5.730   5.671  0.1844  0.5417  0.4713
    3MOL   O169  613   4.990   5.757   5.749  0.1647  0.1901 -0.3611
    3MOL   C170  614   5.065   5.768   5.520  0.8426 -0.5279  0.0405
    3MOL   C171  615   5.191   5.573   5.856 -0.5310 -0.1221  0.2653
    3MOL   H172  616   5.208   5.568   5.643 -0.3904 -0.0475  0.0806
    3MOL   H173  617   4.975   5.734   5.469  0.7720  1.1590 -1.0004
    3MOL   H174  618   5.068   5.876   5.513 -0.0178 -0.5332 -0.4260
    3MOL   H175  619   5.138   5.722   5.453 -0.5738 -1.0667 -1.1402
    3MOL   H176  620   5.173   5.645   5.936  0.7924 -0.6215  1.0325
    3MOL   H177  621   5.283   5.515   5.866  0.0040  0.7297  0.4098
    3MOL   C178  622   5.076   5.469   5.866  0.8507  0.6638  0.2211
    3MOL   C179  623   5.071   5.404   6.010 -0.3724 -0.0431 -0.3239
    3MOL   O180  624   5.148   5.313   6.041 -0.6481  0.5996 -0.0500
    3MOL   C181  625   4.988   5.466   6.120 -0.1617 -0.0247 -0.1753
    3MOL   C182  626   5.086   5.353   5.773  0.1861  0.0528 -0.3771
    3MOL   H183  627   4.978   5.516   5.862  0.3881 -0.2766  0.5101
    3MOL   H184  628   4.927   5.385   6.161 -2.3791  2.0911  0.7492
    3MOL   H185  629   5.048   5.501   6.204  1.6060 -0.9316 -1.0199
    3MOL   H186  630   4.922   5.546   6.088 -1.1459 -0.8791 -0.2917
    3MOL   H187  631   5.068   5.255   5.817 -0.6836 -0.1326 -1.1337
    3MOL   H188  632   5.188   5.342   5.737  0.1256 -1.1607 -0.2098
    3MOL   C189  633   4.997   5.359   5.647  1.0642 -0.6270  0.7846
    3MOL   C190  634   4.849   5.364   5.676  0.1764  0.2134 -0.2306
    3MOL   O191  635   4.789   5.272   5.727  0.3628  0.0758  0.4311
    3MOL   C192  636   4.778   5.496   5.647 -0.8549 -0.1063  0.2777
    3MOL   C193  637   5.026   5.248   5.543 -0.5161 -0.3426  0.1376
    3MOL   H194  638   5.005   5.458   5.603 -0.2610 -0.7763  0.1701
    3MOL   H195  639   4.803   5.573   5.720 -2.4102  0.2922  0.3916
    3MOL   H196  640   4.801   5.525   5.544 -0.6121 -0.9344  0.0961
    3MOL   H197  641   4.675   5.475   5.672 -1.0447  0.4077 -0.0527
    3MOL   H198  642   4.976   5.158   5.580 -2.5672  1.0087  0.6896
    3MOL   H199  643   5.131   5.216   5.542  0.5121  2.9187 -1.2278
    3MOL   C200  644   4.980   5.287   5.406 -0.1951 -0.0345 -0.3359
    3MOL   C201  645   4.957   5.167   5.317 -0.4720  1.3290 -0.1066
    3MOL   O202  646   5.042   5.080   5.316  0.7660  0.4029  0.1910
    3MOL   C203  647   4.826   5.158   5.240 -0.1863  0.3207 -0.4152
    3MOL   C204  648   5.084   5.393   5.356  0.0910 -0.2755  0.8713
    3MOL   H205  649   4.881   5.333   5.404  0.0505  0.4408 -1.6782
    3MOL   H206  650   4.821   5.057   5.200  0.7758  1.0132 -2.3767
    3MOL   H207  651   4.746   5.181   5.309  0.6961 -0.1430  0.7838
    3MOL   H208  652   4.829   5.210   5.144 -1.9691 -0.3637 -0.8598
    3MOL   H209  653   5.187   5.361   5.370  0.4317  1.0050  1.3782
    3MOL   H210  654   5.099   5.478   5.423 -0.6084  1.5914 -1.2656
    3MOL   C211  655   5.053   5.455   5.217 -0.2456  0.3779  0.2949
    3MOL   C212  656   4.906   5.514   5.193  0.2764 -1.0200 -0.4924
    3MOL   O213  657   4.837   5.542   5.282  0.9041 -0.1440  0.2186
    3MOL   C214  658   4.868   5.557   5.045 -0.0011  0.0552  0.0842
    3MOL   C215  659   5.093   5.366   5.093  0.1167  0.0212  0.4538
    3MOL   H216  660   5.129   5.533   5.221 -0.2650  0.4064  0.1154
    3MOL   H217  661   4.767   5.593   5.024  1.3200  3.5714 -0.6669
    3MOL   H218  662   4.938   5.639   5.032 -0.3986  0.8518  2.6420
    3MOL   H219  663   4.893   5.481   4.971 -1.7570  0.0317 -0.4993
    3MOL   H220  664   5.021   5.286   5.080  1.0635 -0.8745  0.6643
    3MOL   H221  665   5.194   5.328   5.108 -0.4280 -2.2709 -1.3901
    3MOL   H222  666   5.090   5.419   4.997  0.7551 -0.7598  0.0047
    4MOL     C1  667   3.300   5.667   6.125  0.5936 -0.0983  0.1468
    4MOL     C2  668   3.361   5.699   5.987  0.1488 -1.0036 -0.1413
    4MOL     O3  669   3.395   5.814   5.954 -0.5673  0.5221  0.2590
    4MOL     C4  670   3.378   5.593   5.887  0.6094  0.2704  0.3749
    4MOL     C5  671   3.144   5.648   6.135 -0.2255  0.3101 -0.5372
    4MOL     H6  672   3.352   5.581   6.167  1.5965  1.4925  2.2060
    4MOL     H7  673   3.342   5.496   5.921 -0.9592  1.3508  1.8956
    4MOL     H8  674   3.344   5.624   5.787  0.2670 -0.5432  0.2287
    4MOL     H9  675   3.484   5.572   5.880  0.6294  0.0229  1.4370
    4MOL    H10  676   3.118   5.565   6.068  1.4967 -0.5983 -0.0950
    4MOL    H11  677   3.108   5.743   6.097  1.2437  1.2048  0.2731
    4MOL    H12  678   3.325   5.736   6.205  1.7919 -2.1990  1.6296
    4MOL    C13  679   3.094   5.625   6.285 -0.1255 -0.1981  0.9057
    4MOL    C14  680   3.135   5.485   6.337  0.4280  0.0427  0.2297
    4MOL    O15  681   3.068   5.385   6.301 -0.1510  0.0516  0.1547
    4MOL    C16  682   3.249   5.474   6.433  0.4809  0.0912 -0.7248
    4MOL    C17  683   2.936   5.649   6.284 -0.6150  0.2870 -0.1115
    4MOL    H18  684   3.138   5.702   6.348 -3.0844  0.3011  2.4433
    4MOL    H19  685   3.229   5.523   6.528  0.0049 -2.1413  0.3503
    4MOL    H20  686   3.274   5.370   6.456 -0.3165 -0.1988 -1.1633
    4MOL    H21  687   3.340   5.513   6.387  1.2574  1.0120  1.5183
    4MOL    H22  688   2.886   5.561   6.245  0.4527 -0.7232  0.7578
    4MOL    H23  689   2.915   5.737   6.223  1.1591  1.7913  1.3506
    4MOL    C24  690   2.881   5.690   6.419 -0.4562  0.2841  0.6851
    4MOL    C25  691   2.849   5.562   6.500  0.2676 -0.3405 -0.9050
    4MOL    O26  692   2.927   5.527   6.587 -0.5438 -0.1575 -0.3708
    4MOL    C27  693   2.719   5.485   6.469  0.4930  0.3829  0.3577
    4MOL    C28  694   2.776   5.802   6.404 -0.1433 -0.1521  0.5907
    4MOL    H29  695   2.964   5.748   6.459  0.7041 -0.4342 -0.6332
    4MOL    H30  696   2.629   5.545   6.464 -0.5083 -1.2586 -2.4961
    4MOL    H31  697   2.727   5.425   6.378  2.0307 -0.1489  0.8308
    4MOL    H32  698   2.711   5.406   6.543 -0.3038 -0.1636 -0.3048
    4MOL    H33  699   2.707   5.784   6.322  1.8894  1.7117 -1.6109
    4MOL    H34  700   2.832   5.887   6.363 -0.3765 -0.2594  0.0546
    4MOL    C35  701   2.707   5.842   6.541  0.1250 -0.4088 -0.4569
    4MOL    C36  702   2.579   5.922   6.500 -0.8715  0.7544  0.0090
    4MOL    O37  703   2.590   6.018   6.428  0.5538 -0.4193  0.0174
    4MOL    C38  704   2.439   5.859   6.524  0.8067  0.4997 -0.3524
    4MOL    C39  705   2.801   5.924   6.640 -0.2705  0.1645 -0.4030
    4MOL    H40  706   2.673   5.755   6.596 -1.3939  2.1068  2.7275
    4MOL    H41  707   2.428   5.769   6.464  1.1578 -1.4341  2.3987
    4MOL    H42  708   2.428   5.834   6.630  0.3127 -1.3236 -0.8153
    4MOL    H43  709   2.361   5.931   6.500  0.0173 -0.3616 -0.4008
    4MOL    H44  710   2.799   6.028   6.605  0.3044 -0.0139 -0.9692
    4MOL    H45  711   2.906   5.896   6.628 -0.0703  0.9341 -0.5144
    4MOL    C46  712   2.771   5.915   6.793  0.5013 -0.3890  0.9238
    4MOL    C47  713   2.791   5.765   6.835  1.2083 -0.0346  0.5924
    4MOL    O48  714   2.698   5.681   6.811  0.1340  0.3638 -0.2285
    4MOL    C49  715   2.905   5.722   6.921 -0.2621 -0.6510 -0.3671
    4MOL    C50  716   2.642   5.984   6.837 -0.5279 -0.0420  0.4595
    4MOL    H51  717   2.855   5.956   6.848  2.1819 -1.6481 -0.6407
    4MOL    H52  718   2.960   5.802   6.970  0.1382 -1.4631  0.5179
    4MOL    H53  719   2.886   5.647   6.997  2.6023 -0.3143  0.7450
    4MOL    H54  720   2.975   5.685   6.845  0.5254 -1.9425  0.9645
    4MOL    H55  721   2.540   5.962   6.805 -0.6568 -1.1116  1.6066
    4MOL    H56  722   2.651   6.078   6.781  0.8877  0.3443  1.3204
    4MOL    C57  723   2.638   6.030   6.988 -0.2147  0.5928  0.1695
    4MOL    C58  724   2.761   6.109   7.030  0.5389  0.0463 -0.1153
    4MOL    O59  725   2.838   6.056   7.104 -0.1697  1.3956  0.1202
    4MOL    C60  726   2.784   6.254   6.970  0.1215 -0.2682  0.0501
    4MOL    C61  727   2.595   5.917   7.091 -0.3543 -0.1761 -0.6729
    4MOL    H62  728   2.559   6.106   6.987 -1.6102 -0.7873  1.8752
    4MOL    H63  729   2.889   6.267   6.943  0.8183  0.2475  2.8240
    4MOL    H64  730   2.711   6.250   6.890 -0.4903  1.5721  0.5064
    4MOL    H65  731   2.751   6.335   7.035 -0.7575 -0.9825  0.5045
    4MOL    H66  732   2.576   5.950   7.193 -2.5831 -0.4880 -0.9678
    4MOL    H67  733   2.676   5.846   7.107 -0.7997 -0.2074  1.6947
    4MOL    C68  734   2.479   5.828   7.045  0.7273 -0.0397 -0.0274
    4MOL    C69  735   2.343   5.904   7.026 -0.1855  1.0660 -0.8312
    4MOL    O70  736   2.303   5.976   7.118  0.1039  1.0469 -0.6941
    4MOL    C71  737   2.272   5.875   6.899  0.6037  0.4026  0.0164
    4MOL    C72  738   2.464   5.703   7.137  0.4177  0.0608  0.0355
    4MOL    H73  739   2.510   5.791   6.948  1.8554 -0.6632  0.5602
    4MOL    H74  740   2.332   5.819   6.827 -3.0938 -1.5122 -1.7000
    4MOL    H75  741   2.178   5.821   6.910  0.8423 -0.0744 -0.2483
    4MOL    H76  742   2.259   5.978   6.868 -1.4033  0.0535 -0.3463
    4MOL    H77  743   2.473   5.747   7.236  1.3502 -0.0035 -0.0097
    4MOL    H78  744   2.555   5.646   7.120  1.0282  1.1515 -0.4707
    4MOL    C79  745   2.347   5.595   7.122 -0.5896 -0.2485  0.1839
    4MOL    C80  746   2.266   5.577   7.253 -0.2380  0.1593 -0.2685
    4MOL    O81  747   2.324   5.593   7.364  0.3218  0.2691  0.6509
    4MOL    C82  748   2.122   5.538   7.243 -0.7558 -1.0843  0.0285
    4MOL    C83  749   2.401   5.455   7.084 -0.1243 -0.2518 -0.6379
    4MOL    H84  750   2.286   5.642   7.045 -1.0461  2.1296  1.9209
    4MOL    H85  751   2.072   5.615   7.184  3.5350  1.0105 -1.0878
    4MOL    H86  752   2.109   5.437   7.206 -1.6827 -0.2048 -2.1558
    4MOL    H87  753   2.076   5.550   7.341  2.8007  1.3120  1.5166
    4MOL    H88  754   2.316   5.387   7.087  0.0596 -0.4360  0.4560
    4MOL    H89  755   2.475   5.419   7.156 -0.6276  3.3888  1.8463
    4MOL    C90  756   2.459   5.434   6.937 -0.1334  0.4408  0.3725
    4MOL    C91  757   2.353   5.458   6.823 -0.6428  0.1157 -0.5575
    4MOL    O92  758   2.260   5.383   6.811 -0.7570  0.0689  0.3105
    4MOL    C93  759   2.394   5.544   6.701 -0.2965 -0.0724  0.6103
    4MOL    C94  760   2.519   5.289   6.922  1.4444 -0.5101  0.4996
    4MOL    H95  761   2.533   5.513   6.927 -1.1914  1.6076  1.5335
    4MOL    H96  762   2.413   5.648   6.725  0.4550  0.2057 -1.1009
    4MOL    H97  763   2.482   5.498   6.657  1.0084  1.5043  1.5381
    4MOL    H98  764   2.305   5.547   6.638  0.4353  0.5965 -0.4013
    4MOL    H99  765   2.528   5.271   6.815 -2.3909 -1.2781  0.2197
    4MOL   H100  766   2.457   5.210   6.965 -0.0264  0.6890  0.6282
    4MOL   C101  767   2.669   5.271   6.969 -0.4898 -0.0088 -0.0168
    4MOL   C102  768   2.679   5.272   7.119 -0.3786 -0.4745  0.3872
    4MOL   O103  769   2.734   5.360   7.182  0.2906 -0.0110  0.0263
    4MOL   C104  770   2.616   5.151   7.189  0.4230 -0.6227 -0.0740
    4MOL   C105  771   2.771   5.363   6.903 -0.0379 -0.6401  0.2433
    4MOL   H106  772   2.693   5.169   6.941 -3.0468 -0.4692 -0.6137
    4MOL   H107  773   2.538   5.184   7.258 -1.1409 -0.3647 -1.9242
    4MOL   H108  774   2.567   5.083   7.120 -0.6973  0.2811 -0.1705
    4MOL   H109  775   2.704   5.105   7.236  0.1737 -0.3910  0.6232
    4MOL   H110  776   2.799   5.443   6.972  1.1670 -0.9320  0.1150
    4MOL   H111  777   2.737   5.427   6.822  1.2999 -0.5786 -0.2840
    4MOL   C112  778   2.891   5.290   6.833 -0.4825 -0.0826  0.2250
    4MOL   C113  779   2.851   5.224   6.704  0.5453 -0.7936 -0.0466
    4MOL   O114  780   2.735   5.180   6.689  0.0471  0.1069 -0.0283
    4MOL   C115  781   2.961   5.198   6.604  0.2672  0.2813  0.5394
    4MOL   C116  782   2.966   5.197   6.928 -0.1291 -0.9851 -0.2357
    4MOL   H117  783   2.961   5.370   6.811  0.9402 -0.7529  2.1350
    4MOL   H118  784   3.047   5.265   6.618  1.0281 -0.5150 -0.2494
    4MOL   H119  785   3.007   5.100   6.615  0.6301  0.5761  1.7171
    4MOL   H120  786   2.920   5.208   6.504 -0.8150 -1.6214  0.7770
    4MOL   H121  787   3.028   5.134   6.863 -0.8672 -0.4975 -1.4335
    4MOL   H122  788   2.916   5.123   6.990  0.6750 -1.6180 -0.3303
    4MOL   C123  789   3.062   5.286   7.015  0.4810  0.1421  0.2218
    4MOL   C124  790   3.195   5.305   6.944 -0.0109 -0.8202 -0.3862
    4MOL   O125  791   3.280   5.216   6.944  0.5976  0.6281  0.1020
    4MOL   C126  792   3.220   5.429   6.862  0.1442  0.1612 -0.3687
    4MOL   C127  793   3.072   5.241   7.165 -0.5835 -0.0111 -0.0051
    4MOL   H128  794   3.035   5.392   7.015  0.7887  0.2253  1.0293
    4MOL   H129  795   3.134   5.496   6.850  1.0343  1.6328  1.2664
    4MOL   H130  796   3.304   5.485   6.902 -1.4133  2.1072  0.2840
    4MOL   H131  797   3.252   5.400   6.762 -3.5496  1.8305 -2.1690
    4MOL   H132  798   3.113   5.141   7.174  3.0802  1.3806 -0.5373
    4MOL   H133  799   2.968   5.243   7.200 -0.4100 -0.0859  0.5153
    4MOL   C134  800   3.157   5.328   7.262 -0.5363  0.2282  0.5849
    4MOL   C135  801   3.309   5.300   7.256 -0.5148 -0.0532  0.5276
    4MOL   O136  802   3.350   5.187   7.289  0.0183 -0.1277 -0.0782
    4MOL   C137  803   3.402   5.412   7.218 -0.2214 -0.9678  0.3865
    4MOL   C138  804   3.104   5.329   7.409 -0.9018  0.1699  0.3728
    4MOL   H139  805   3.139   5.426   7.218 -0.6746 -0.2744 -0.4965
    4MOL   H140  806   3.487   5.411   7.287  0.6458 -2.0045 -0.6873
    4MOL   H141  807   3.446   5.369   7.129 -0.1912 -2.4137  1.0931
    4MOL   H142  808   3.354   5.510   7.217 -0.0812 -0.9088 -0.6044
    4MOL   H143  809   3.187   5.330   7.479 -0.6387 -2.3428  0.1515
    4MOL   H144  810   3.055   5.234   7.432 -2.0362  0.5952 -0.2124
    4MOL   C145  811   2.996   5.439   7.449  0.1021 -0.3478  0.0350
    4MOL   C146  812   3.039   5.582   7.424  0.1947  0.1388 -0.0012
    4MOL   O147  813   3.108   5.647   7.499  0.2976  0.6569  0.6730
    4MOL   C148  814   2.978   5.646   7.299 -0.0679 -0.1182  0.5872
    4MOL   C149  815   2.948   5.419   7.594 -0.2511 -0.7215 -0.1662
    4MOL   H150  816   2.910   5.421   7.385 -0.7466  1.2160  0.7156
    4MOL   H151  817   2.895   5.711   7.323 -1.1284 -1.7218  1.3836
    4MOL   H152  818   3.058   5.708   7.260  1.1859 -0.3968  2.6493
    4MOL   H153  819   2.952   5.574   7.221  1.2293  0.7514 -0.6857
    4MOL   H154  820   2.929   5.520   7.630  0.0863 -0.5815 -0.3779
    4MOL   H155  821   3.024   5.370   7.655 -0.4767 -1.0389 -0.1436
    4MOL   C156  822   2.826   5.328   7.619  0.4916 -0.4713 -0.2091
    4MOL   C157  823   2.695   5.397   7.567  0.2523  0.0841 -0.3634
    4MOL   O158  824   2.679   5.520   7.567  0.5426  0.5347  0.1548
    4MOL   C159  825   2.594   5.310   7.496 -0.3529  0.1798 -0.4938
    4MOL   C160  826   2.823   5.285   7.770 -0.0149  0.6170 -0.3602
    4MOL   H161  827   2.845   5.231   7.574  0.9385 -0.7808  0.6272
    4MOL   H162  828   2.534   5.379   7.437  1.2624  0.7492 -1.4729
    4MOL   H163  829   2.631   5.246   7.416  0.4765  1.2411 -0.9602
    4MOL   H164  830   2.545   5.258   7.579  0.9282 -1.0646 -0.5031
    4MOL   H165  831   2.803   5.372   7.832  1.6962  0.2612  0.7521
    4MOL   H166  832   2.924   5.257   7.801 -0.1549 -1.3734 -1.6437
    4MOL   C167  833   2.718   5.173   7.801 -0.3940 -0.7299  0.4059
    4MOL   C168  834   2.676   5.185   0.107  0.2937  0.4660  0.3749
    4MOL   O169  835   2.733   5.129   0.198 -0.1745  0.0284 -0.8021
    4MOL   C170  836   2.567   5.279   0.135  0.1927 -0.0381 -0.0276
    4MOL   C171  837   2.764   5.025   7.782  0.0008  0.3456 -0.0050
    4MOL   H172  838   2.636   5.203   7.736  0.9628  0.3067 -0.8515
    4MOL   H173  839   2.593   5.321   0.232  1.9322  0.5759 -0.7273
    4MOL   H174  840   2.570   5.366   0.070 -1.3201  0.4260  0.5025
    4MOL   H175  841   2.468   5.236   0.125  0.1848  0.6573 -3.5583
    4MOL   H176  842   2.824   4.989   0.024  0.3222  0.8377 -0.0207
    4MOL   H177  843   2.839   5.021   7.704  1.8379 -0.2612  1.7453
    4MOL   C178  844   2.662   4.917   7.753  0.2166  0.0792  0.4159
    4MOL   C179  845   2.560   4.963   7.642  0.0604  0.0344 -0.7225
    4MOL   O180  846   2.456   5.019   7.675  0.4026 -0.2705  0.0250
    4MOL   C181  847   2.599   4.938   7.497 -0.7944 -0.4339  0.0547
    4MOL   C182  848   2.588   4.870   0.042  0.3963  0.0386  0.6124
    4MOL   H183  849   2.712   4.825   7.722 -1.2790 -0.3426 -0.7602
    4MOL   H184  850   2.572   4.837   7.464  0.6519 -0.8037 -0.0400
    4MOL   H185  851   2.536   5.000   7.434  0.3133  2.4636  1.6959
    4MOL   H186  852   2.703   4.964   7.476 -0.4985  0.1457  2.1400
    4MOL   H187  853   2.545   4.959   0.087  1.6750  0.4967  0.9603
    4MOL   H188  854   2.655   4.833   0.120 -0.7159 -0.4313  1.3480
    4MOL   C189  855   2.479   4.764   0.030 -0.5503 -0.0430  0.3024
    4MOL   C190  856   2.425   4.712   0.168  0.0328  0.0425 -0.0882
    4MOL   O191  857   2.500   4.670   0.257  0.0347 -0.4775 -0.0127
    4MOL   C192  858   2.275   4.684   0.178  0.1376 -0.2780 -0.5902
    4MOL   C193  859   2.532   4.639   7.787 -0.0396 -0.0268  0.5158
    4MOL   H194  860   2.390   4.798   7.820  0.3545 -0.0611 -1.2921
    4MOL   H195  861   2.214   4.701   0.090 -0.2140 -0.2615 -0.3459
    4MOL   H196  862   2.243   4.590   0.223 -0.7680  0.2609 -0.0827
    4MOL   H197  863   2.227   4.757   0.243 -0.3192 -2.3331  1.4557
    4MOL   H198  864   2.614   4.597   0.002 -0.4046 -1.6775 -0.1454
    4MOL   H199  865   2.571   4.657   7.687 -0.8904 -0.2404  0.1434
    4MOL   C200  866   2.427   4.525   7.754 -0.2483 -0.0375 -0.0840
    4MOL   C201  867   2.499   4.394   7.728 -0.0374  0.8138 -0.4988
    4MOL   O202  868   2.495   4.334   7.621 -0.5993 -0.5672  0.0173
    4MOL   C203  869   2.576   4.322   7.840  0.0920  0.2577 -0.2229
    4MOL   C204  870   2.314   4.567   7.653  0.1855  0.3746 -0.5021
    4MOL   H205  871   2.377   4.508   0.008  0.9356  0.1248  0.5766
    4MOL   H206  872   2.539   4.353   0.095 -0.6346  1.0077 -0.7275
    4MOL   H207  873   2.567   4.214   7.830  1.1921  0.3434 -2.5567
    4MOL   H208  874   2.682   4.341   7.827 -0.2099  1.7176 -0.6492
    4MOL   H209  875   2.344   4.568   7.548  2.4331  0.6405  0.1162
    4MOL   H210  876   2.296   4.673   7.670 -0.1790 -0.0627  1.9530
    4MOL   C211  877   2.174   4.498   7.679  0.9519 -0.3389  0.2513
    4MOL   C212  878   2.129   4.433   7.547  0.6519  0.1125  0.0542
    4MOL   O213  879   2.041   4.477   7.474 -0.0524  0.3912  0.5725
    4MOL   C214  880   2.205   4.306   7.512  0.6155 -0.2669 -0.5079
    4MOL   C215  881   2.057   4.580   7.738 -0.2096  0.2236  0.2168
    4MOL   H216  882   2.176   4.426   7.761 -1.2713 -0.5577  0.1411
    4MOL   H217  883   2.253   4.258   7.597  2.7071  1.2856 -0.7555
    4MOL   H218  884   2.137   4.242   7.456 -0.9255  1.5534 -0.7958
    4MOL   H219  885   2.291   4.332   7.450  1.1649  1.9332  1.0942
    4MOL   H220  886   2.066   4.587   0.004  1.8052  3.3802 -0.1050
    4MOL   H221  887   1.961   4.531   7.721  0.1561 -1.4752  2.7452
    4MOL   H222  888   2.057   4.680   7.694  0.6152  0.1497  0.0432
    5MOL     C1  889   7.302   0.808   3.456 -0.1852  0.0195  0.5471
    5MOL     C2  890   7.264   0.720   3.337  0.4771 -0.6159 -0.4053
    5MOL     O3  891   7.160   0.657   3.327  0.5880 -0.0559  0.7371
    5MOL     C4  892   7.369   0.706   3.223 -0.0663  0.2278  0.1155
    5MOL     C5  893   7.341   0.729   3.578 -0.5366  0.7479 -0.9707
    5MOL     H6  894   7.391   0.860   3.421  0.1371 -0.2264  0.9880
    5MOL     H7  895   7.346   0.753   3.127 -0.4692  0.4677  0.3303
    5MOL     H8  896   7.461   0.749   3.263  0.1348  1.9074 -2.0734
    5MOL     H9  897   7.404   0.604   3.201 -2.1752 -0.0115 -2.4511
    5MOL    H10  898   7.432   0.669   3.567 -0.5422  0.8508 -1.5742
    5MOL    H11  899   7.263   0.654   3.593  0.0141  0.7133  1.9233
    5MOL    H12  900   7.224   0.882   3.474 -1.0170 -0.2468 -1.8604
    5MOL    C13  901   7.345   0.803   3.715  0.4779  0.8295  0.4752
    5MOL    C14  902   7.215   0.867   3.758  0.2533  0.7019 -0.7289
    5MOL    O15  903   7.193   0.988   3.755 -0.3888  0.8384  0.1441
    5MOL    C16  904   7.106   0.772   3.796 -0.0394  0.6683  0.3294
    5MOL    C17  905   7.459   0.907   3.717 -0.2521  0.3698  0.1914
    5MOL    H18  906   7.370   0.729   3.791 -2.9137  0.3281  1.1711
    5MOL    H19  907   7.006   0.812   3.778 -1.3914 -2.3910  0.5639
    5MOL    H20  908   7.110   0.679   3.739  1.0798  1.3979 -0.8198
    5MOL    H21  909   7.105   0.753   3.903 -1.5051 -0.9019  0.0755
    5MOL    H22  910   7.486   0.941   3.818 -1.4771  2.3063 -0.1092
    5MOL    H23  911   7.424   0.996   3.665 -2.7072 -0.9458 -0.4960
    5MOL    C24  912   7.594   0.860   3.667  0.3318 -0.1060 -0.3396
    5MOL    C25  913   7.660   0.752   3.755  0.2140  0.6227 -0.5218
    5MOL    O26  914   7.665   0.771   3.875 -0.4310 -0.6337 -0.0659
    5MOL    C27  915   7.719   0.628   3.701 -0.1483 -0.5228 -0.4765
    5MOL    C28  916   7.688   0.987   3.660  0.4670 -0.0878 -0.4492
    5MOL    H29  917   7.579   0.825   3.565  0.3815  2.0580 -1.1092
    5MOL    H30  918   7.827   0.612   3.706 -0.1030  0.1349  0.8155
    5MOL    H31  919   7.673   0.550   3.761  0.7432 -0.3241  0.4768
    5MOL    H32  920   7.686   0.614   3.598  0.4672  1.0014 -0.9052
    5MOL    H33  921   7.758   0.988   3.744 -1.3271  0.4929  1.0708
    5MOL    H34  922   7.633   1.074   3.695  1.1574  0.1849 -0.0326
    5MOL    C35  923   7.757   1.011   3.522  0.0910  0.2855 -0.0094
    5MOL    C36  924   7.657   1.049   3.414  0.3839 -0.0115 -0.6985
    5MOL    O37  925   7.602   0.965   3.342  0.0505 -0.4098 -0.1311
    5MOL    C38  926   7.610   1.194   3.400 -0.3399 -0.1744 -0.0846
    5MOL    C39  927   0.009   0.896   3.478  0.0871  0.0566 -0.1699
    5MOL    H40  928   7.825   1.093   3.545 -0.1724  0.7422 -0.8497
    5MOL    H41  929   7.681   1.241   3.332 -0.7102 -1.3783 -1.3170
    5MOL    H42  930   7.510   1.200   3.358 -0.3695 -1.3195 -0.1997
    5MOL    H43  931   7.610   1.256   3.490 -0.6121  1.0762 -0.9287
    5MOL    H44  932   7.802   0.809   3.434 -0.3167  1.1038 -1.8302
    5MOL    H45  933   0.037   0.851   3.573 -1.2458 -0.4519 -0.0043
    5MOL    C46  934   0.141   0.934   3.394 -0.7009  0.0830 -0.1205
    5MOL    C47  935   0.231   1.044   3.456 -0.5446  0.1901  0.0922
    5MOL    O48  936   0.226   1.158   3.420  0.2672 -0.1473 -0.1257
    5MOL    C49  937   0.329   1.002   3.566  0.2637 -0.0593 -0.1431
    5MOL    C50  938   0.104   0.970   3.243  0.7962 -0.0996 -0.4734
    5MOL    H51  939   0.201   0.844   3.389 -0.0493  0.5390 -0.6035
    5MOL    H52  940   0.344   0.895   3.562  1.6764  0.1135  0.2765
    5MOL    H53  941   0.426   1.051   3.556 -0.1516  0.9187  0.4748
    5MOL    H54  942   0.275   1.028   3.657  1.6705  0.1117  0.6640
    5MOL    H55  943   0.063   1.070   3.249  1.9474  0.3360  0.3060
    5MOL    H56  944   0.040   0.892   3.202  0.1828  0.5184 -0.6928
    5MOL    C57  945   0.223   0.984   3.145 -0.3947 -0.1740 -0.4005
    5MOL    C58  946   0.187   1.057   3.012  0.2509  0.0189  0.5025
    5MOL    O59  947   0.238   1.167   2.981  0.4482  0.8478 -0.9008
    5MOL    C60  948   0.084   0.995   2.916 -0.0065  0.1093  0.0075
    5MOL    C61  949   0.306   0.852   3.120 -0.2932  0.1522 -0.4929
    5MOL    H62  950   0.293   1.056   3.187 -0.6975 -0.5498  0.7642
    5MOL    H63  951   7.825   1.008   2.955 -0.3105 -2.7632  0.2866
    5MOL    H64  952   0.082   1.039   2.816  0.4116 -1.5354 -0.7435
    5MOL    H65  953   0.105   0.889   2.904 -0.6490 -0.0664  0.4115
    5MOL    H66  954   0.263   0.799   3.036  3.2466 -1.0846 -1.5923
    5MOL    H67  955   0.277   0.787   3.203 -0.3910  0.5277 -0.2316
    5MOL    C68  956   0.461   0.873   3.112  0.2644  0.0629 -0.2691
    5MOL    C69  957   0.531   0.798   2.997 -1.1080  0.0782  0.2785
    5MOL    O70  958   0.538   0.672   2.990 -0.1127  0.1443  0.0998
    5MOL    C71  959   0.596   0.892   2.895  0.4965 -0.1956 -0.4711
    5MOL    C72  960   0.538   0.861   3.249 -0.1305  0.1775  0.1278
    5MOL    H73  961   0.480   0.979   3.093 -0.0202 -0.6111 -4.9203
    5MOL    H74  962   0.697   0.904   2.934  0.8356 -0.0914 -1.3701
    5MOL    H75  963   0.606   0.849   2.795  2.5389 -0.6707 -0.0734
    5MOL    H76  964   0.550   0.991   2.888  1.5514  0.3553  0.2841
    5MOL    H77  965   0.568   0.757   3.264 -0.3975 -0.2650 -2.2395
    5MOL    H78  966   0.465   0.881   3.327 -0.2948  3.0984 -0.6931
    5MOL    C79  967   0.643   0.972   3.277  0.1237 -0.4755  0.9135
    5MOL    C80  968   0.726   0.933   3.406  0.4782 -0.1519  0.4342
    5MOL    O81  969   0.679   0.944   3.519 -0.2154  0.3337  0.5996
    5MOL    C82  970   0.871   0.892   3.383 -0.1819  0.6202  0.2109
    5MOL    C83  971   0.594   1.123   3.294 -0.0713  0.4023  0.4391
    5MOL    H84  972   0.706   0.975   3.188 -0.3979  1.1315  0.5771
    5MOL    H85  973   0.894   0.898   3.276  0.0678 -0.6881  0.1773
    5MOL    H86  974   0.946   0.942   3.444  0.1378 -0.4926  0.7372
    5MOL    H87  975   0.883   0.785   3.397 -0.5505  0.4163 -0.9737
    5MOL    H88  976   0.568   1.143   3.398  0.4881  0.7348  0.5125
    5MOL    H89  977   0.500   1.145   3.243  0.8790 -0.1694 -1.6135
    5MOL    C90  978   0.686   1.234   3.249 -0.5904 -0.0405  0.3192
    5MOL    C91  979   0.741   1.215   3.111  0.0094  0.4832 -0.4622
    5MOL    O92  980   0.853   1.169   3.086  0.1480 -0.0511  0.0757
    5MOL    C93  981   0.645   1.250   3.000  0.0491 -0.2196  0.3438
    5MOL    C94  982   0.799   1.274   3.349 -0.0912  0.7635  0.1916
    5MOL    H95  983   0.629   1.326   3.237 -0.0800  0.4579  1.5922
    5MOL    H96  984   0.699   1.272   2.908  0.1006 -1.1644  0.1447
    5MOL    H97  985   0.572   1.170   2.991  0.0945 -0.4952  2.1378
    5MOL    H98  986   0.590   1.338   3.033 -0.0251  0.7794 -2.3351
    5MOL    H99  987   0.850   1.182   3.379 -1.1470  0.0799 -0.0888
    5MOL   H100  988   0.753   1.314   3.439  0.9496 -0.4957  1.2943
    5MOL   C101  989   0.906   1.379   3.304 -0.1230  0.5190 -0.2610
    5MOL   C102  990   1.050   1.332   3.344 -0.0315 -0.3868  0.5216
    5MOL   O103  991   1.125   1.408   3.412 -0.8012  0.4724  0.1038
    5MOL   C104  992   1.097   1.198   3.301  0.5120 -0.3613  0.7109
    5MOL   C105  993   0.880   1.516   3.369 -0.3379 -0.5811 -0.1392
    5MOL   H106  994   0.907   1.401   3.197 -2.5228 -1.5180 -0.7326
    5MOL   H107  995   1.023   1.125   3.268 -0.4028  0.8700 -0.0151
    5MOL   H108  996   1.171   1.205   3.221  0.9097  0.3764  1.1370
    5MOL   H109  997   1.147   1.167   3.393  1.5564 -1.6884 -0.2699
    5MOL   H110  998   0.897   1.511   3.476  3.2235 -1.7455 -0.6798
    5MOL   H111  999   0.777   1.547   3.350  0.0333  0.0054 -1.2521
    5MOL   C112 1000   0.968   1.629   3.314  0.3983  0.0836  0.0954
    5MOL   C113 1001   0.970   1.753   3.406 -0.1489  0.5037 -0.0568
    5MOL   O114 1002   0.868   1.809   3.441 -0.3007  0.1373 -0.6052
    5MOL   C115 1003   1.104   1.798   3.460 -0.1323 -0.0906 -0.0509
    5MOL   C116 1004   0.938   1.673   3.166  0.1645  0.7572 -0.0970
    5MOL   H117 1005   1.075   1.604   3.312  0.3617 -0.2057  1.5435
    5MOL   H118 1006   1.136   1.895   3.423 -0.2996 -0.2069 -0.5132
    5MOL   H119 1007   1.106   1.825   3.565 -0.4305 -0.1869 -0.0210
    5MOL   H120 1008   1.187   1.727   3.455  0.7344  0.7741  1.7097
    5MOL   H121 1009   0.921   1.589   3.099 -1.4684  1.0794 -0.0991
    5MOL   H122 1010   1.031   1.723   3.136  0.1471  1.1550  0.5020
    5MOL   C123 1011   0.816   1.772   3.134 -0.9993  0.4215 -0.1486
    5MOL   C124 1012   0.674   1.705   3.138  0.2205 -0.2795 -0.0872
    5MOL   O125 1013   0.652   1.586   3.120 -0.1068 -0.0210 -0.1080
    5MOL   C126 1014   0.556   1.803   3.151 -0.0703  0.5277 -0.1337
    5MOL   C127 1015   0.842   1.833   2.997  0.1930 -0.6045 -0.4872
    5MOL   H128 1016   0.814   1.853   3.207  1.6327  2.4139 -2.2072
    5MOL   H129 1017   0.562   1.877   3.071  1.2191  0.5152 -0.0518
    5MOL   H130 1018   0.458   1.756   3.138 -0.0256  0.1983  0.6856
    5MOL   H131 1019   0.561   1.861   3.244  0.7454  0.0201  0.1411
    5MOL   H132 1020   0.752   1.873   2.949  2.1145  2.7093 -1.5547
    5MOL   H133 1021   0.890   1.758   2.935 -0.7000 -2.3034  0.8548
    5MOL   C134 1022   0.946   1.954   3.000  0.0600  0.3073  0.6346
    5MOL   C135 1023   0.909   2.070   3.085  0.5243  0.3539  0.4257
    5MOL   O136 1024   0.791   2.105   3.088 -0.4578 -0.5553  0.6506
    5MOL   C137 1025   1.027   2.161   3.131 -0.2964 -0.0565  0.1188
    5MOL   C138 1026   0.993   1.985   2.849  0.2779  0.1723 -0.5876
    5MOL   H139 1027   1.034   1.916   3.050 -0.3253 -2.3618 -0.6042
    5MOL   H140 1028   1.036   2.248   3.067 -1.2225 -0.7758 -1.0082
    5MOL   H141 1029   1.008   2.201   3.230 -0.6021  2.8713 -1.0835
    5MOL   H142 1030   1.121   2.106   3.139 -1.8091 -2.3330  3.9639
    5MOL   H143 1031   1.010   2.093   2.841 -1.6438  0.5299 -0.1054
    5MOL   H144 1032   0.914   1.961   2.778  1.6468 -0.3649 -1.9429
    5MOL   C145 1033   1.124   1.918   2.796  0.9274 -0.8253 -0.3680
    5MOL   C146 1034   1.245   1.919   2.894 -0.0577  0.0225  0.2660
    5MOL   O147 1035   1.250   1.992   2.995 -0.5721 -0.2911  0.8938
    5MOL   C148 1036   1.369   1.836   2.865 -0.6679 -0.1875 -0.1787
    5MOL   C149 1037   1.167   1.979   2.659 -0.4009 -0.4333 -0.3140
    5MOL   H150 1038   1.099   1.812   2.793 -1.3511 -0.3788  1.6736
    5MOL   H151 1039   1.409   1.810   2.963  0.1672 -0.3005 -0.5420
    5MOL   H152 1040   1.354   1.751   2.798 -2.5095  0.9399 -1.2444
    5MOL   H153 1041   1.447   1.905   2.831 -0.5726 -0.4005 -0.4034
    5MOL   H154 1042   1.260   2.031   2.680 -0.6759  0.1958 -0.6439
    5MOL   H155 1043   1.087   2.047   2.629  1.4121  1.3174 -1.2600
    5MOL   C156 1044   1.183   1.866   2.550  0.2726  0.5720 -0.0985
    5MOL   C157 1045   1.318   1.883   2.469 -0.3853  0.4748 -0.5202
    5MOL   O158 1046   1.365   1.993   2.444 -0.2486  0.8614  0.0279
    5MOL   C159 1047   1.393   1.759   2.411 -0.6227  0.4812 -0.0191
    5MOL   C160 1048   1.070   1.858   2.438 -0.0200  0.1024  0.0138
    5MOL   H161 1049   1.184   1.769   2.599  1.8240  0.2261 -0.7587
    5MOL   H162 1050   1.490   1.783   2.367 -0.1539  1.1721  1.3782
    5MOL   H163 1051   1.397   1.675   2.481  3.0518  0.9259  0.4086
    5MOL   H164 1052   1.328   1.724   2.330  0.8265 -1.6412 -0.3181
    5MOL   H165 1053   1.085   1.781   2.362 -1.3442 -0.0336 -0.1180
    5MOL   H166 1054   1.075   1.952   2.383 -0.1639  0.0113 -0.1553
    5MOL   C167 1055   0.931   1.826   2.492 -0.2822  0.4477 -0.3151
    5MOL   C168 1056   0.941   1.683   2.550 -0.4627 -0.3844  0.3802
    5MOL   O169 1057   1.000   1.596   2.493 -0.1233  0.2450  0.4288
    5MOL   C170 1058   0.854   1.659   2.670  0.1968 -0.3241  0.3269
    5MOL   C171 1059   0.813   1.842   2.382 -0.0702 -0.1111  0.1854
    5MOL   H172 1060   0.923   1.881   2.586  2.1813 -1.3535  0.9990
    5MOL   H173 1061   0.774   1.595   2.635  1.1380 -2.2591  1.5914
    5MOL   H174 1062   0.910   1.619   2.755 -1.6499 -3.2931  0.2038
    5MOL   H175 1063   0.797   1.739   2.717 -0.9891 -0.6477 -0.5509
    5MOL   H176 1064   0.818   1.764   2.306  1.5438  0.1381  0.0204
    5MOL   H177 1065   0.826   1.932   2.322  0.0170  0.2583  0.7594
    5MOL   C178 1066   0.674   1.814   2.444 -0.2797 -0.6045 -0.6824
    5MOL   C179 1067   0.574   1.792   2.329 -0.6188 -0.4043 -0.4823
    5MOL   O180 1068   0.565   1.880   2.243 -0.1527 -0.2204  0.4929
    5MOL   C181 1069   0.508   1.659   2.303  0.2372 -0.8941  0.3379
    5MOL   C182 1070   0.623   1.935   2.529  0.1839 -0.3922  0.9229
    5MOL   H183 1071   0.665   1.721   2.501  1.4086 -1.2290 -1.3769
    5MOL   H184 1072   0.582   1.580   2.295 -0.3597 -1.3652 -0.5416
    5MOL   H185 1073   0.436   1.644   2.384 -2.7527  0.4584 -1.9590
    5MOL   H186 1074   0.451   1.652   2.211  0.1923 -0.6429  0.3464
    5MOL   H187 1075   0.634   2.029   2.475  0.3492 -1.6625 -1.3212
    5MOL   H188 1076   0.695   1.950   2.610  1.4859 -0.5150 -0.1831
    5MOL   C189 1077   0.485   1.910   2.595  0.4393  0.0865 -0.6808
    5MOL   C190 1078   0.470   1.788   2.681  0.1048  0.6834 -0.2372
    5MOL   O191 1079   0.437   1.676   2.630  0.3520  0.4767  0.1000
    5MOL   C192 1080   0.497   1.805   2.833 -0.0918 -0.3407  0.4635
    5MOL   C193 1081   0.359   1.941   2.515 -0.4652  0.5434 -0.0642
    5MOL   H194 1082   0.461   1.987   2.668 -3.6481 -0.3324 -1.4434
    5MOL   H195 1083   0.525   1.709   2.876  1.8562  0.0623  0.1273
    5MOL   H196 1084   0.570   1.882   2.857  1.0484 -1.7612  1.6692
    5MOL   H197 1085   0.407   1.845   2.881 -1.8094 -0.6584 -2.4264
    5MOL   H198 1086   0.272   1.908   2.571 -0.5356  0.8435  0.0046
    5MOL   H199 1087   0.355   1.873   2.430 -2.0123 -0.2422  0.6109
    5MOL   C200 1088   0.340   2.085   2.464 -0.2906  0.2692 -0.0118
    5MOL   C201 1089   0.274   2.174   2.570  0.2719  0.0200 -0.1177
    5MOL   O202 1090   0.164   2.151   2.622 -0.4127 -0.2762  0.0308
    5MOL   C203 1091   0.346   2.299   2.618 -0.3616 -0.9459  0.4065
    5MOL   C204 1092   0.261   2.092   2.328 -0.8100  0.1612 -0.5257
    5MOL   H205 1093   0.439   2.129   2.456 -0.4502  0.8423  1.0971
    5MOL   H206 1094   0.374   2.364   2.535 -0.2832  0.1115  1.2559
    5MOL   H207 1095   0.293   2.365   2.687 -0.2159  0.5999 -0.9346
    5MOL   H208 1096   0.436   2.261   2.666 -0.0103 -0.7508 -0.0888
    5MOL   H209 1097   0.159   2.060   2.349 -1.0138 -0.1493 -1.9242
    5MOL   H210 1098   0.292   2.012   2.261 -1.8744  0.3047 -1.1987
    5MOL   C211 1099   0.268   2.226   2.250  0.1950  0.2936  0.1244
    5MOL   C212 1100   0.177   2.237   2.134  0.0106 -0.4787  1.4084
    5MOL   O213 1101   0.098   2.330   2.124 -0.5135  0.4141 -0.0337
    5MOL   C214 1102   0.186   2.124   2.031 -0.0925  0.2858 -0.3549
    5MOL   C215 1103   0.406   2.265   2.204  1.0195 -0.8228 -0.2917
    5MOL   H216 1104   0.231   2.310   2.309 -1.2607 -0.2039 -0.0562
    5MOL   H217 1105   0.129   2.155   1.943  1.4431 -1.2067 -1.8987
    5MOL   H218 1106   0.284   2.091   1.999  0.8778  0.6650  2.1310
    5MOL   H219 1107   0.154   2.034   2.083 -0.3750  0.9329  0.6157
    5MOL   H220 1108   0.468   2.263   2.294  0.0121  1.7206  0.4939
    5MOL   H221 1109   0.415   2.370   2.176 -1.0533 -0.1568  1.3493
    5MOL   H222 1110   0.452   2.211   2.122 -0.8341 -0.3021 -1.7047
    6MOL     C1 1111   5.424   6.618   1.478 -0.5740  0.4393  0.0475
    6MOL     C2 1112   5.544   6.660   1.558 -0.4248 -0.1620 -0.2628
    6MOL     O3 1113   5.619   6.750   1.523  0.0439 -0.2578  0.4499
    6MOL     C4 1114   5.572   6.582   1.688 -0.0261 -0.2764  0.4240
    6MOL     C5 1115   5.411   6.698   1.346 -1.1240  0.7849 -0.2610
    6MOL     H6 1116   5.427   6.513   1.450 -1.1947  0.2672  0.6099
    6MOL     H7 1117   5.543   6.478   1.670 -0.6153  0.0512 -0.5741
    6MOL     H8 1118   5.680   6.587   1.703  0.3204 -0.3806 -1.8141
    6MOL     H9 1119   5.527   6.623   1.778  3.0098  0.2304  1.7631
    6MOL    H10 1120   5.333   6.657   1.282  1.4789 -4.0493 -0.5457
    6MOL    H11 1121   5.499   6.668   1.289 -2.3021  0.9143 -2.1781
    6MOL    H12 1122   5.335   6.633   1.539  0.2163  1.3005  0.9988
    6MOL    C13 1123   5.396   6.851   1.352 -0.5982 -0.7469 -0.1318
    6MOL    C14 1124   5.311   6.906   1.472  0.4597 -0.1946  0.3589
    6MOL    O15 1125   5.189   6.893   1.468  0.1075 -0.6590  0.2318
    6MOL    C16 1126   5.378   6.980   1.590 -0.4616  0.6648 -0.4825
    6MOL    C17 1127   5.336   6.894   1.223  0.1976  0.4763  0.4735
    6MOL    H18 1128   5.492   6.899   1.368 -0.6238 -0.2492 -1.3962
    6MOL    H19 1129   5.482   6.947   1.585 -0.7555 -0.1732 -1.2048
    6MOL    H20 1130   5.360   7.087   1.589 -0.9768  0.6336  2.5933
    6MOL    H21 1131   5.332   6.939   1.680 -0.8529 -0.2948 -1.1089
    6MOL    H22 1132   5.319   7.002   1.226  1.9204  0.9235 -2.4756
    6MOL    H23 1133   5.232   6.863   1.214  0.4479 -0.2131 -0.0972
    6MOL    C24 1134   5.417   6.873   1.087  0.1192 -0.6342 -0.3196
    6MOL    C25 1135   5.559   6.940   1.097 -0.0398  0.7980  0.4899
    6MOL    O26 1136   5.590   7.057   1.060  0.6235  0.2392 -1.4586
    6MOL    C27 1137   5.667   6.846   1.159  0.3105  0.1477 -0.8768
    6MOL    C28 1138   5.336   6.940   0.968  0.0543  0.1739 -0.1648
    6MOL    H29 1139   5.416   6.768   1.059 -0.5086  0.4194 -4.6696
    6MOL    H30 1140   5.767   6.871   1.125  0.1533  0.5874 -1.0126
    6MOL    H31 1141   5.675   6.867   1.266  1.4264 -0.8090 -0.7629
    6MOL    H32 1142   5.648   6.741   1.137  0.3024  0.1197 -0.7372
    6MOL    H33 1143   5.344   7.048   0.974 -0.7368  0.1939  0.7599
    6MOL    H34 1144   5.228   6.925   0.972  0.4353 -2.6126  1.0621
    6MOL    C35 1145   5.379   6.886   0.827 -0.4313 -0.3286 -0.3531
    6MOL    C36 1146   5.350   6.985   0.721  0.6182  0.1059  0.0542
    6MOL    O37 1147   5.250   6.973   0.650 -0.1426 -0.0627 -0.5624
    6MOL    C38 1148   5.442   7.105   0.709  0.3998  0.3746  0.1626
    6MOL    C39 1149   5.324   6.739   0.791 -0.3931  0.2950  0.0785
    6MOL    H40 1150   5.487   6.872   0.829  0.1129  3.3989 -0.2516
    6MOL    H41 1151   5.396   7.197   0.747  0.6649 -0.2941  2.1485
    6MOL    H42 1152   5.540   7.093   0.755 -0.6121 -0.5162  2.1525
    6MOL    H43 1153   5.470   7.121   0.605 -1.4377  1.2716 -0.2223
    6MOL    H44 1154   5.222   6.747   0.753 -0.3829 -0.5163 -0.1280
    6MOL    H45 1155   5.307   6.691   0.887 -3.5221  2.5681  0.7635
    6MOL    C46 1156   5.408   6.649   0.701  0.5716 -0.3059 -0.3398
    6MOL    C47 1157   5.534   6.595   0.779  0.0314 -0.1203  1.3605
    6MOL    O48 1158   5.579   6.650   0.877 -0.2638 -0.0444  0.0838
    6MOL    C49 1159   5.611   6.477   0.725  0.8056  0.1537 -0.1710
    6MOL    C50 1160   5.437   6.688   0.563 -0.1516 -0.1645 -0.7112
    6MOL    H51 1161   5.342   6.563   0.692 -0.0446  0.1225  0.0983
    6MOL    H52 1162   5.706   6.507   0.681  0.6298  2.3339  0.8503
    6MOL    H53 1163   5.641   6.408   0.803  2.0035  0.4938 -0.3227
    6MOL    H54 1164   5.555   6.422   0.649 -1.3518  3.3416 -1.0192
    6MOL    H55 1165   5.517   6.629   0.518 -0.6210  0.8925 -3.0265
    6MOL    H56 1166   5.488   6.785   0.560 -2.1288  0.9414  0.7152
    6MOL    C57 1167   5.321   6.687   0.459 -0.0026  0.5978  0.2244
    6MOL    C58 1168   5.234   6.561   0.466  0.1973 -0.4250  0.3778
    6MOL    O59 1169   5.284   6.444   0.468  0.2809  0.3750  0.1864
    6MOL    C60 1170   5.079   6.584   0.470  0.3409 -0.4697 -0.0517
    6MOL    C61 1171   5.378   6.699   0.320 -0.2568 -0.1666 -0.6294
    6MOL    H62 1172   5.257   6.773   0.474  0.3409  1.1372 -1.2318
    6MOL    H63 1173   5.056   6.639   0.561 -0.6078  0.6008 -0.9332
    6MOL    H64 1174   5.057   6.635   0.377 -2.9589 -1.6669 -0.0048
    6MOL    H65 1175   5.034   6.485   0.461 -0.8457  0.1941 -1.5126
    6MOL    H66 1176   5.291   6.685   0.256 -2.0496  0.0181  1.6593
    6MOL    H67 1177   5.455   6.622   0.313  1.0911  1.0569  0.2810
    6MOL    C68 1178   5.447   6.836   0.296 -0.6187  0.5929  0.6834
    6MOL    C69 1179   5.345   6.957   0.302 -0.1170  0.4271 -0.0021
    6MOL    O70 1180   5.370   7.057   0.365 -0.6952 -0.6554  0.1750
    6MOL    C71 1181   5.211   6.939   0.229  0.4178 -0.1790 -0.3271
    6MOL    C72 1182   5.517   6.831   0.161 -0.4610  0.3489 -0.5604
    6MOL    H73 1183   5.521   6.861   0.372 -1.1546  1.2946  0.9846
    6MOL    H74 1184   5.132   6.874   0.266 -1.9110  2.0287 -1.2746
    6MOL    H75 1185   5.171   7.039   0.213  1.0168  0.2870  1.0242
    6MOL    H76 1186   5.232   6.897   0.131 -0.0317  1.2238 -1.0362
    6MOL    H77 1187   5.438   6.824   0.087 -1.4705  0.2296  0.5231
    6MOL    H78 1188   5.559   6.731   0.151 -0.8560  0.0605  0.5674
    6MOL    C79 1189   5.627   6.935   0.130 -0.1666 -0.0190 -0.6074
    6MOL    C80 1190   5.644   6.963   7.825  0.2711 -0.5849  0.3742
    6MOL    O81 1191   5.586   6.894   7.742 -0.4157 -0.1883  0.1185
    6MOL    C82 1192   5.725   7.084   7.777 -0.3214 -0.4003 -0.2413
    6MOL    C83 1193   5.759   6.909   0.206  0.5914 -0.0542 -0.5281
    6MOL    H84 1194   5.580   7.029   0.158  0.2632 -0.1156  0.4399
    6MOL    H85 1195   5.684   7.116   7.681 -0.7605 -0.7079 -0.1580
    6MOL    H86 1196   5.715   7.176   7.834 -1.0965 -0.6839  0.0943
    6MOL    H87 1197   5.831   7.061   7.778 -0.0142  1.0182  1.3012
    6MOL    H88 1198   5.847   6.939   0.149  0.7299 -0.2443 -0.4114
    6MOL    H89 1199   5.770   6.802   0.223 -0.9100 -0.3418 -1.2696
    6MOL    C90 1200   5.782   6.984   0.338 -0.0666  1.1069  0.2783
    6MOL    C91 1201   5.782   7.137   0.309 -0.4885  0.2630  0.4682
    6MOL    O92 1202   5.866   7.181   0.230  0.1533 -0.0430  0.9165
    6MOL    C93 1203   5.675   7.228   0.363 -0.4019  0.5353 -0.5258
    6MOL    C94 1204   5.911   6.934   0.416  0.5759 -0.0073 -0.3797
    6MOL    H95 1205   5.702   6.970   0.410  0.3912  0.8410  0.7359
    6MOL    H96 1206   5.631   7.170   0.444 -1.9676 -1.8031 -2.9649
    6MOL    H97 1207   5.718   7.316   0.411 -0.5761 -0.4804  1.5907
    6MOL    H98 1208   5.600   7.254   0.289 -0.2271  3.4813  0.2672
    6MOL    H99 1209   6.001   6.985   0.380  2.4547 -1.4305  2.0797
    6MOL   H100 1210   5.918   6.826   0.401 -1.5523 -0.1879 -0.2025
    6MOL   C101 1211   5.921   6.972   0.565 -0.0723  0.7484 -0.2366
    6MOL   C102 1212   5.815   6.902   0.648 -0.3561  1.4906 -0.1822
    6MOL   O103 1213   5.701   6.944   0.657 -0.2087  0.1211  0.0261
    6MOL   C104 1214   5.859   6.792   0.743  0.8391 -0.5588  0.1854
    6MOL   C105 1215   5.922   7.120   0.609 -0.3187 -0.0712  0.1369
    6MOL   H106 1216   6.018   6.928   0.588 -2.1287 -2.6751  2.2741
    6MOL   H107 1217   5.966   6.799   0.762  1.0681 -1.1315 -0.8554
    6MOL   H108 1218   5.798   6.788   0.833  0.3080 -1.8983 -0.2241
    6MOL   H109 1219   5.843   6.696   0.694 -1.2148 -0.1431  0.0122
    6MOL   H110 1220   5.916   7.123   0.718  0.7787  0.6724  0.1842
    6MOL   H111 1221   5.827   7.162   0.576  1.0651  1.1643 -2.3909
    6MOL   C112 1222   6.035   7.212   0.561  0.7355  0.1932  0.3518
    6MOL   C113 1223   6.166   7.172   0.633  0.4946 -0.7598 -0.2364
    6MOL   O114 1224   6.160   7.133   0.749 -0.0617 -0.5341 -0.0417
    6MOL   C115 1225   6.291   7.180   0.554  0.2380 -0.4922  0.1391
    6MOL   C116 1226   5.997   7.362   0.586 -1.0359 -0.5776  0.2862
    6MOL   H117 1227   6.044   7.184   0.456 -1.5941  0.9714 -0.0920
    6MOL   H118 1228   6.296   7.268   0.490  0.9274 -0.7856 -0.2244
    6MOL   H119 1229   6.367   7.177   0.632  2.1061 -0.6597 -1.6416
    6MOL   H120 1230   6.311   7.088   0.498  1.9026 -0.0154 -0.0828
    6MOL   H121 1231   6.018   7.386   0.690 -1.1255  0.3599  0.1011
    6MOL   H122 1232   5.890   7.377   0.574 -0.7804  1.1626 -0.0902
    6MOL   C123 1233   6.076   7.461   0.496 -0.1944  0.1970 -0.0942
    6MOL   C124 1234   6.055   7.604   0.543  0.8363  0.0414  0.9767
    6MOL   O125 1235   5.946   7.641   0.593 -0.1706 -0.5733 -0.2915
    6MOL   C126 1236   6.170   7.697   0.528  0.1723  0.1214  0.1872
    6MOL   C127 1237   6.044   7.436   0.341 -0.2294  0.2829  0.2092
    6MOL   H128 1238   6.182   7.446   0.512 -0.4180  0.4765  1.7813
    6MOL   H129 1239   6.189   7.744   0.625 -1.2020  0.3427  0.3533
    6MOL   H130 1240   6.261   7.656   0.485  0.3296 -0.6453  1.2553
    6MOL   H131 1241   6.134   7.775   0.460 -1.0155 -0.4588  0.1436
    6MOL   H132 1242   5.935   7.434   0.335 -0.2341  0.7195  0.0866
    6MOL   H133 1243   6.071   7.336   0.307 -0.1264  0.6479 -0.7969
    6MOL   C134 1244   6.101   7.534   0.243 -0.0445 -0.2128  0.0183
    6MOL   C135 1245   6.029   7.519   0.108  0.4215 -0.1636 -0.1480
    6MOL   O136 1246   5.968   7.614   0.056 -0.2316  0.5952  0.3534
    6MOL   C137 1247   6.035   7.387   0.039  0.4484 -0.2871 -0.1010
    6MOL   C138 1248   6.258   7.537   0.233  0.7424  0.6216  0.7007
    6MOL   H139 1249   6.075   7.636   0.272 -1.3299 -0.8335  1.0502
    6MOL   H140 1250   6.118   7.399   7.811  0.0451 -1.6242 -0.8263
    6MOL   H141 1251   6.074   7.309   0.106  0.2290  0.0531  0.4249
    6MOL   H142 1252   5.941   7.359   7.833  0.4199 -0.5708  0.1158
    6MOL   H143 1253   6.272   7.431   0.210 -0.3037  0.4229  0.9379
    6MOL   H144 1254   6.302   7.544   0.332  0.2081  0.4778  0.9477
    6MOL   C145 1255   6.331   7.631   0.131  0.1989  0.6779  0.4268
    6MOL   C146 1256   6.466   7.564   0.098  0.0069 -0.6348 -0.9515
    6MOL   O147 1257   6.560   7.571   0.179 -0.1864  0.2084 -0.0537
    6MOL   C148 1258   6.477   7.463   7.829  0.6268 -0.1012 -0.5061
    6MOL   C149 1259   6.342   7.767   0.181  0.0142 -0.1015  0.0039
    6MOL   H150 1260   6.280   7.634   0.035  1.0895  0.4182 -0.0650
    6MOL   H151 1261   6.504   7.492   7.727 -0.8300 -2.2595 -1.5444
    6MOL   H152 1262   6.562   7.398   0.006  0.2973  0.3097  2.5672
    6MOL   H153 1263   6.385   7.407   7.813 -0.1077  1.1889 -0.8861
    6MOL   H154 1264   6.421   7.813   0.121 -1.2520  2.0588 -0.0704
    6MOL   H155 1265   6.369   7.779   0.286 -0.6064 -2.1589  0.4287
    6MOL   C156 1266   6.223   0.016   0.154  0.5560 -0.6858 -0.5340
    6MOL   C157 1267   6.221   0.061   0.007  0.3625 -0.8138  0.6178
    6MOL   O158 1268   6.304   0.139   7.807  0.5564  0.6574  0.0571
    6MOL   C159 1269   6.111   0.006   7.763  0.1594  1.0037 -0.0434
    6MOL   C160 1270   6.202   0.132   0.254 -0.5199  0.4463  0.1112
    6MOL   H161 1271   6.131   7.799   0.166  0.5092 -0.5580 -0.2671
    6MOL   H162 1272   6.022   7.841   7.825 -0.6081 -0.8009 -1.3112
    6MOL   H163 1273   6.089   0.078   7.683 -2.7384  1.0857  0.7644
    6MOL   H164 1274   6.135   7.753   7.714  0.4789  0.7547  0.5926
    6MOL   H165 1275   6.214   0.085   0.351  1.1949 -1.5379 -1.0369
    6MOL   H166 1276   6.097   0.162   0.253 -0.0398  2.3264  2.2170
    6MOL   C167 1277   6.301   0.253   0.253 -0.8616  0.3963 -0.0599
    6MOL   C168 1278   6.443   0.221   0.291  0.8602  0.4638  0.4304
    6MOL   O169 1279   6.472   0.159   0.390  0.0153  0.2574  0.3722
    6MOL   C170 1280   6.554   0.285   0.207  0.3382  0.4269  0.2014
    6MOL   C171 1281   6.252   0.349   0.361 -0.4285 -0.4170  0.6599
    6MOL   H172 1282   6.294   0.299   0.155 -3.7784 -1.9308 -1.0177
    6MOL   H173 1283   6.529   0.335   0.113 -0.4625  0.7895  0.5969
    6MOL   H174 1284   6.595   0.366   0.268  0.5474  1.0244 -0.7325
    6MOL   H175 1285   6.625   0.204   0.192 -0.8798 -0.7564  0.6534
    6MOL   H176 1286   6.298   0.315   0.454  2.0279 -0.7695 -0.6390
    6MOL   H177 1287   6.146   0.331   0.376 -0.4616 -0.4926  0.3172
    6MOL   C178 1288   6.289   0.502   0.333  0.0809 -0.6132  0.0638
    6MOL   C179 1289   6.333   0.575   0.461  0.2866 -0.1317  0.0532
    6MOL   O180 1290   6.248   0.611   0.541  0.1159  0.4420  0.2743
    6MOL   C181 1291   6.479   0.596   0.485  0.4339  0.0797  0.4646
    6MOL   C182 1292   6.176   0.574   0.251 -0.1649 -0.0344  0.1416
    6MOL   H183 1293   6.378   0.508   0.269 -0.8459 -0.2261 -1.2064
    6MOL   H184 1294   6.482   0.700   0.453 -1.6364  0.5725  1.7886
    6MOL   H185 1295   6.506   0.581   0.590  1.3457 -1.2224  0.0578
    6MOL   H186 1296   6.543   0.537   0.419 -0.6369 -0.3094 -0.2409
    6MOL   H187 1297   6.084   0.586   0.309  0.6959  1.6282  1.1827
    6MOL   H188 1298   6.149   0.491   0.185 -0.2079 -2.3115  2.9291
    6MOL   C189 1299   6.212   0.713   0.183  0.9485 -0.1493 -0.5224
    6MOL   C190 1300   6.192   0.836   0.278  0.1102  1.0714 -0.4979
    6MOL   O191 1301   6.100   0.856   0.357 -0.0109  0.8793  0.0262
    6MOL   C192 1302   6.297   0.942   0.273  0.2477  0.2067  0.2890
    6MOL   C193 1303   6.132   0.737   0.052  0.6220 -0.0496 -0.1606
    6MOL   H194 1304   6.314   0.689   0.154  0.8066  0.4907 -1.5804
    6MOL   H195 1305   6.252   1.033   0.233  0.6052 -0.1434 -0.9334
    6MOL   H196 1306   6.311   0.953   0.380  1.3543  0.7118  0.1023
    6MOL   H197 1307   6.382   0.905   0.215  0.1773  1.8537 -0.8989
    6MOL   H198 1308   6.147   0.837   0.013  0.2973 -0.2529 -0.8192
    6MOL   H199 1309   6.026   0.742   0.079  1.0496  1.5469  1.3192
    6MOL   C200 1310   6.148   0.633   7.778 -0.1169  0.3638 -0.1083
    6MOL   C201 1311   6.290   0.614   7.726 -0.1361 -0.6159 -0.2701
    6MOL   O202 1312   6.378   0.693   7.752 -0.2671  0.5425 -0.3184
    6MOL   C203 1313   6.328   0.484   7.659  0.9613  0.8008 -1.2091
    6MOL   C204 1314   6.047   0.644   7.668  0.4019  0.2256 -0.6210
    6MOL   H205 1315   6.133   0.533   7.819  1.6902  0.7454  1.5832
    6MOL   H206 1316   6.331   0.500   7.552 -0.6152  1.4460 -1.1647
    6MOL   H207 1317   6.427   0.476   7.705  0.8114 -1.4803 -1.2093
    6MOL   H208 1318   6.273   0.399   7.699  0.5375  1.3148 -0.6960
    6MOL   H209 1319   5.950   0.627   7.714  0.8168 -0.6740 -0.0608
    6MOL   H210 1320   6.058   0.566   7.592 -0.8785 -0.2110 -0.3654
    6MOL   C211 1321   6.044   0.779   7.584 -0.2175  0.7520 -0.1897
    6MOL   C212 1322   5.953   0.885   7.633 -0.8037 -0.0729 -0.1688
    6MOL   O213 1323   5.873   0.868   7.722 -0.5144  0.1061  0.0757
    6MOL   C214 1324   5.978   1.027   7.583 -0.4785 -1.1639 -0.7851
    6MOL   C215 1325   6.019   0.753   7.437  1.0132  0.6750 -0.0888
    6MOL   H216 1326   6.144   0.820   7.596 -0.2528  0.6965  0.3267
    6MOL   H217 1327   5.892   1.063   7.526 -2.2205 -1.1503  1.7626
    6MOL   H218 1328   5.998   1.087   7.671 -0.2991 -1.2966 -0.7340
    6MOL   H219 1329   6.066   1.034   7.518  0.1582  1.9240  0.3359
    6MOL   H220 1330   5.977   0.838   7.383 -0.2888  0.5713  0.7302
    6MOL   H221 1331   5.956   0.666   7.418  0.0668  0.9520  1.6471
    6MOL   H222 1332   6.106   0.728   7.377 -0.5883 -2.3347 -1.2588
    7MOL     C1 1333   6.455   1.867   4.825  0.0770 -0.2814 -0.2004
    7MOL     C2 1334   6.415   1.722   4.837  0.5025 -0.2997 -0.0335
    7MOL     O3 1335   6.502   1.634   4.841 -0.2911  0.4117 -0.7993
    7MOL     C4 1336   6.267   1.683   4.851  0.1857 -0.4837  0.1920
    7MOL     C5 1337   6.495   1.907   4.680  0.8492 -0.6304 -0.1254
    7MOL     H6 1338   6.369   1.923   4.862 -0.1241 -2.0360  2.0933
    7MOL     H7 1339   6.244   1.589   4.802 -0.9939  0.0852 -0.3624
    7MOL     H8 1340   6.263   1.677   4.960 -0.4027 -1.4147  0.1239
    7MOL     H9 1341   6.194   1.756   4.816 -1.2153  0.0084  3.8608
    7MOL    H10 1342   6.520   2.012   4.695 -3.0246  0.2559  0.6232
    7MOL    H11 1343   6.408   1.905   4.614  0.3413 -1.2605  0.5604
    7MOL    H12 1344   6.530   1.885   4.902  0.9140 -0.7522 -0.8969
    7MOL    C13 1345   6.621   1.845   4.619  1.2347 -0.3240 -0.1284
    7MOL    C14 1346   6.745   1.869   4.707 -0.5301 -0.1385  0.1841
    7MOL    O15 1347   6.804   1.976   4.711  0.1123 -0.2220 -0.0412
    7MOL    C16 1348   6.791   1.740   4.780 -0.5863 -0.7209 -0.5024
    7MOL    C17 1349   6.644   1.884   4.476  0.4631 -0.6993 -0.2135
    7MOL    H18 1350   6.603   1.738   4.613  1.8298 -0.3370 -1.8443
    7MOL    H19 1351   6.790   1.654   4.712  3.5033 -1.1913 -0.0711
    7MOL    H20 1352   6.893   1.759   4.813 -0.6686 -3.4047  1.5248
    7MOL    H21 1353   6.731   1.726   4.870 -1.4955  1.7600 -0.6943
    7MOL    H22 1354   6.666   1.991   4.478  2.1534 -1.0390  0.4943
    7MOL    H23 1355   6.545   1.881   4.430 -1.2326  3.0485  2.8733
    7MOL    C24 1356   6.746   1.811   4.387  0.1601  0.1539 -0.7664
    7MOL    C25 1357   6.761   1.662   4.414  0.3901 -0.5820  0.8383
    7MOL    O26 1358   6.865   1.622   4.474  0.5648  0.0687  0.6128
    7MOL    C27 1359   6.650   1.569   4.370  0.0359 -0.3322  0.0059
    7MOL    C28 1360   6.878   1.889   4.395  0.5903  0.2519 -0.5805
    7MOL    H29 1361   6.710   1.814   4.285 -2.0704 -0.7030 -0.0189
    7MOL    H30 1362   6.685   1.466   4.375  1.6191  0.1993  0.0197
    7MOL    H31 1363   6.559   1.584   4.427  0.3484  0.3928  0.3107
    7MOL    H32 1364   6.608   1.608   4.277 -1.0928 -0.2245  0.5476
    7MOL    H33 1365   6.964   1.829   4.364  0.2486 -0.8903  0.6423
    7MOL    H34 1366   6.907   1.921   4.495  3.8474  1.7572 -1.9284
    7MOL    C35 1367   6.895   2.009   4.290 -0.1030 -0.5201  0.0246
    7MOL    C36 1368   6.900   1.963   4.143  0.3221 -0.0437 -0.1421
    7MOL    O37 1369   6.946   1.851   4.107 -0.2882  0.3616  0.7674
    7MOL    C38 1370   6.839   2.052   4.040 -0.1400  0.3313  0.1363
    7MOL    C39 1371   7.017   2.099   4.322  0.6738  0.1311 -0.4296
    7MOL    H40 1372   6.807   2.074   4.294  0.4860  0.1627  2.9329
    7MOL    H41 1373   6.916   2.113   3.994 -0.2406 -1.3900 -2.3655
    7MOL    H42 1374   6.801   1.990   3.959 -0.7084  1.8230 -0.7643
    7MOL    H43 1375   6.761   2.106   4.094  0.2752 -0.8387  1.9406
    7MOL    H44 1376   7.039   2.166   4.238  3.0270 -0.3369 -0.2022
    7MOL    H45 1377   7.099   2.028   4.325 -0.3944 -1.2057 -1.8271
    7MOL    C46 1378   7.002   2.179   4.454  0.1902 -0.2222  0.8832
    7MOL    C47 1379   6.883   2.280   4.455  0.9172 -0.4734  0.0446
    7MOL    O48 1380   6.876   2.378   4.377  0.6693 -0.4587  0.0836
    7MOL    C49 1381   6.761   2.266   4.553 -0.2272 -0.1724  0.6237
    7MOL    C50 1382   7.134   2.257   4.455 -0.4152  0.6539 -0.2404
    7MOL    H51 1383   6.998   2.116   4.542 -1.0870  0.5159  1.3621
    7MOL    H52 1384   6.695   2.182   4.531  1.3344 -0.4209 -3.5173
    7MOL    H53 1385   6.796   2.245   4.655 -0.1848  1.9168  1.0536
    7MOL    H54 1386   6.707   2.359   4.541 -0.9366 -0.4872  1.3008
    7MOL    H55 1387   7.139   2.330   4.374 -0.9832  0.8762 -0.0703
    7MOL    H56 1388   7.218   2.191   4.431 -1.3360 -0.2538 -1.0096
    7MOL    C57 1389   7.158   2.329   4.593  0.2128  0.6475 -0.2877
    7MOL    C58 1390   7.173   2.482   4.581 -0.2579 -0.2000 -0.3111
    7MOL    O59 1391   7.283   2.536   4.589 -0.3670 -0.1552 -0.4187
    7MOL    C60 1392   7.054   2.574   4.547 -0.8558  0.3582  0.6053
    7MOL    C61 1393   7.277   2.258   4.666 -0.2915  0.4478 -0.3854
    7MOL    H62 1394   7.073   2.304   4.657  0.9046  2.1518  1.2595
    7MOL    H63 1395   6.971   2.542   4.610 -2.0852  1.5220 -0.3834
    7MOL    H64 1396   7.074   2.682   4.545  1.1179  0.0245  0.8084
    7MOL    H65 1397   7.033   2.560   4.441 -1.1011 -0.4998  0.7643
    7MOL    H66 1398   7.312   2.313   4.753 -1.1977  0.7016 -0.1726
    7MOL    H67 1399   7.355   2.254   4.590 -0.4313 -4.7954 -0.4505
    7MOL    C68 1400   7.252   2.113   4.729 -1.0300  0.2633 -0.2701
    7MOL    C69 1401   7.177   2.131   4.859  0.4379 -0.2356 -0.3960
    7MOL    O70 1402   7.233   2.160   4.965  0.7293  0.0887  0.5148
    7MOL    C71 1403   7.026   2.101   4.853  0.5972  0.0348  0.5891
    7MOL    C72 1404   7.384   2.030   4.745 -0.2249  0.4820  0.1000
    7MOL    H73 1405   7.185   2.058   4.663  0.2491 -1.7404  0.0367
    7MOL    H74 1406   7.022   2.001   4.810 -0.1515  0.8505 -1.3007
    7MOL    H75 1407   6.985   2.100   4.953 -2.4362  0.9336 -0.6057
    7MOL    H76 1408   6.966   2.161   4.784 -0.5659 -0.3126  1.2861
    7MOL    H77 1409   7.399   1.999   4.848 -2.8459 -2.1013 -0.2340
    7MOL    H78 1410   7.471   2.093   4.725  0.0594  0.7360  2.0417
    7MOL    C79 1411   7.385   1.903   4.647 -0.1733 -0.2254  0.0813
    7MOL    C80 1412   7.262   1.817   4.673 -0.3032  0.9318 -0.1215
    7MOL    O81 1413   7.215   1.795   4.791  0.1678  0.5489  0.0640
    7MOL    C82 1414   7.187   1.762   4.553  0.4810 -0.7878  0.0096
    7MOL    C83 1415   7.522   1.829   4.648 -0.2217  0.5934  0.2888
    7MOL    H84 1416   7.386   1.941   4.545 -1.3714 -1.6120 -0.4626
    7MOL    H85 1417   7.191   1.843   4.480  0.6850 -1.0106 -0.2277
    7MOL    H86 1418   7.235   1.673   4.512 -0.7906 -0.7308 -1.6735
    7MOL    H87 1419   7.082   1.756   4.580  0.8714 -1.0053  1.5328
    7MOL    H88 1420   7.534   1.789   4.749 -1.8425 -3.5462 -1.0344
    7MOL    H89 1421   7.597   1.907   4.640  1.3067 -1.0767 -2.4131
    7MOL    C90 1422   7.545   1.723   4.530 -0.2207 -0.1103 -0.3410
    7MOL    C91 1423   7.672   1.651   4.552  0.0314  0.1060 -0.3739
    7MOL    O92 1424   7.663   1.533   4.596  0.3921 -0.1661  0.0893
    7MOL    C93 1425   7.806   1.715   4.504 -0.2516  0.6255 -0.2601
    7MOL    C94 1426   7.528   1.795   4.393  0.4644 -0.2291 -0.0357
    7MOL    H95 1427   7.465   1.650   4.531 -0.0437 -0.3016  0.0232
    7MOL    H96 1428   7.829   1.669   4.408 -1.4102  0.6649 -0.5700
    7MOL    H97 1429   7.811   1.824   4.503  0.2716  0.6002 -0.3964
    7MOL    H98 1430   0.042   1.685   4.574 -0.5474  0.9826  0.2237
    7MOL    H99 1431   7.590   1.884   4.390 -0.1136  0.1586 -1.0043
    7MOL   H100 1432   7.423   1.824   4.384  0.3686 -1.1497 -2.2593
    7MOL   C101 1433   7.549   1.704   4.271  0.3512 -0.3806  0.8122
    7MOL   C102 1434   7.596   1.794   4.155  0.2175 -0.7978 -0.2738
    7MOL   O103 1435   7.526   1.894   4.118  0.4134  0.3685  0.0794
    7MOL   C104 1436   7.741   1.778   4.096 -0.0403  0.1944 -0.0897
    7MOL   C105 1437   7.419   1.633   4.240 -0.2185 -0.3875  1.0732
    7MOL   H106 1438   7.627   1.630   4.287 -1.0260 -2.3455 -1.2995
    7MOL   H107 1439   7.810   1.847   4.145  0.7694 -0.8173  0.2021
    7MOL   H108 1440   7.766   1.674   4.117  1.5549  0.8081  1.1220
    7MOL   H109 1441   7.743   1.793   3.988 -2.8750  0.9985 -0.0790
    7MOL   H110 1442   7.331   1.696   4.247  1.9715  3.0101 -0.6359
    7MOL   H111 1443   7.394   1.559   4.316 -0.9977 -0.3035  0.9026
    7MOL   C112 1444   7.417   1.549   4.097 -0.1764 -0.2194 -0.8373
    7MOL   C113 1445   7.267   1.519   4.052 -0.0595  0.1379  0.1423
    7MOL   O114 1446   7.235   1.506   3.935 -0.1391  0.6213  0.1395
    7MOL   C115 1447   7.169   1.480   4.152 -0.2492  0.5155 -0.1422
    7MOL   C116 1448   7.516   1.428   4.100  0.1276 -0.9112 -0.2229
    7MOL   H117 1449   7.446   1.627   4.026  0.4436  0.8067  0.5196
    7MOL   H118 1450   7.117   1.572   4.179 -0.8533  0.2929 -0.5251
    7MOL   H119 1451   7.092   1.408   4.123  0.6356 -0.1058 -1.0137
    7MOL   H120 1452   7.220   1.440   4.240 -0.2719  1.8179  0.4624
    7MOL   H121 1453   7.470   1.355   4.167  0.6787 -2.3156 -1.3433
    7MOL   H122 1454   7.611   1.447   4.149 -0.3736 -0.1700  0.4910
    7MOL   C123 1455   7.548   1.368   3.963 -0.4867  0.7106 -0.2572
    7MOL   C124 1456   7.618   1.233   3.975  0.5399  0.3706  0.4491
    7MOL   O125 1457   7.736   1.212   3.951  0.3830  0.0653  0.6163
    7MOL   C126 1458   7.522   1.131   4.027 -0.9234 -0.3065 -0.2879
    7MOL   C127 1459   7.629   1.466   3.875 -0.1771 -0.6216  0.8108
    7MOL   H128 1460   7.452   1.362   3.911 -0.7883 -0.0726  0.3825
    7MOL   H129 1461   7.521   1.143   4.136  1.5959  3.7657 -0.6148
    7MOL   H130 1462   7.419   1.145   3.996 -0.5761 -0.9537 -1.7707
    7MOL   H131 1463   7.561   1.038   3.986  0.8559 -0.5487  1.8233
    7MOL   H132 1464   7.724   1.482   3.926 -0.3028 -1.1674  1.2182
    7MOL   H133 1465   7.581   1.564   3.867 -0.1106 -0.7071 -0.9986
    7MOL   C134 1466   7.646   1.428   3.724 -0.0017  0.2737 -0.2601
    7MOL   C135 1467   7.800   1.431   3.694  0.1897  0.3894 -0.0523
    7MOL   O136 1468   0.018   1.537   3.680  0.1755 -0.4682  0.5689
    7MOL   C137 1469   0.037   1.296   3.681 -0.8590  0.2241 -0.2748
    7MOL   C138 1470   7.572   1.526   3.628  0.1972 -0.4013 -0.5201
    7MOL   H139 1471   7.592   1.335   3.707  1.3491 -0.4522 -0.6386
    7MOL   H140 1472   0.124   1.299   3.747 -0.8624  0.3228 -0.2756
    7MOL   H141 1473   7.808   1.221   3.716 -0.2204 -0.1816  0.1716
    7MOL   H142 1474   0.054   1.286   3.574 -3.1491  2.8466 -0.9195
    7MOL   H143 1475   7.591   1.505   3.523 -1.2484 -0.0930 -0.8541
    7MOL   H144 1476   7.619   1.623   3.646 -0.2717 -0.4501  0.9872
    7MOL   C145 1477   7.421   1.537   3.642  0.7549 -0.4354  0.7374
    7MOL   C146 1478   7.366   1.404   3.596  1.1497  0.5048 -0.2066
    7MOL   O147 1479   7.365   1.380   3.480  0.2780  0.9167 -0.0823
    7MOL   C148 1480   7.325   1.295   3.705 -0.3509  0.0739  0.5198
    7MOL   C149 1481   7.382   1.662   3.566 -0.6296  0.2158  0.3457
    7MOL   H150 1482   7.391   1.547   3.747  0.3628 -1.2704  0.6998
    7MOL   H151 1483   7.279   1.350   3.787 -1.1374  3.2040 -1.9146
    7MOL   H152 1484   7.250   1.229   3.663 -0.0403 -0.1769  0.3622
    7MOL   H153 1485   7.412   1.232   3.727 -0.4661  0.0550  0.9312
    7MOL   H154 1486   7.283   1.639   3.527 -1.4313  4.4168 -0.2659
    7MOL   H155 1487   7.451   1.667   3.481 -0.8312 -0.4565  0.1369
    7MOL   C156 1488   7.378   1.796   3.638  0.2118  0.7173  0.3233
    7MOL   C157 1489   7.254   1.813   3.723  0.2490  0.4658  0.4074
    7MOL   O158 1490   7.149   1.749   3.706  0.4890 -0.0737 -0.5550
    7MOL   C159 1491   7.270   1.900   3.846  0.3560  0.0644 -0.2409
    7MOL   C160 1492   7.393   1.926   3.546 -0.4047  0.7839 -0.4523
    7MOL   H161 1493   7.459   1.790   3.710  0.0427 -2.6823  0.2978
    7MOL   H162 1494   7.171   1.913   3.892  0.2137  0.5820 -0.6942
    7MOL   H163 1495   7.324   1.854   3.929 -0.9981 -0.6936  0.2425
    7MOL   H164 1496   7.306   1.997   3.814  0.6520 -0.5861 -1.9414
    7MOL   H165 1497   7.364   2.015   3.601 -1.0027  0.6382 -0.5211
    7MOL   H166 1498   7.324   1.926   3.462 -0.5065  0.3330 -0.3707
    7MOL   C167 1499   7.544   1.954   3.507 -0.5629  0.3220  0.6440
    7MOL   C168 1500   7.621   2.010   3.624  0.3575  1.1326 -0.2005
    7MOL   O169 1501   7.594   2.119   3.669  0.4305  0.2408 -0.3544
    7MOL   C170 1502   7.714   1.920   3.698  0.1553 -0.2254  0.6364
    7MOL   C171 1503   7.551   2.043   3.385 -0.4745 -0.3572 -0.5530
    7MOL   H172 1504   7.592   1.859   3.483 -1.7223 -0.1675  0.2086
    7MOL   H173 1505   7.810   1.946   3.652  0.5487 -2.5801  0.0565
    7MOL   H174 1506   7.719   1.928   3.807 -0.6800 -1.3063  0.7597
    7MOL   H175 1507   7.705   1.815   3.671 -2.3855  0.1472 -0.0124
    7MOL   H176 1508   7.654   2.079   3.396 -0.8665  0.2172  1.4026
    7MOL   H177 1509   7.489   2.132   3.396 -0.3715 -0.3774  0.1993
    7MOL   C178 1510   7.542   1.969   3.246 -0.2178  0.1929  0.2087
    7MOL   C179 1511   7.652   1.863   3.227 -0.4695 -0.4427 -0.2161
    7MOL   O180 1512   7.771   1.883   3.245  0.0041 -0.5201  0.0779
    7MOL   C181 1513   7.607   1.728   3.183  0.5114 -0.5341  0.2993
    7MOL   C182 1514   7.544   2.076   3.133 -0.3579 -0.4489 -0.0901
    7MOL   H183 1515   7.450   1.911   3.251  0.5053 -0.9202  1.0119
    7MOL   H184 1516   7.602   1.656   3.264  1.3220 -0.4437  0.4365
    7MOL   H185 1517   7.511   1.737   3.133  1.7599 -1.7023 -2.3971
    7MOL   H186 1518   7.675   1.691   3.106  0.8834  2.9336 -1.1266
    7MOL   H187 1519   7.594   2.031   3.047  0.4303  0.0450  0.1057
    7MOL   H188 1520   7.608   2.163   3.148 -2.5426  1.1256  0.3109
    7MOL   C189 1521   7.404   2.137   3.089  0.1205  0.7337  0.3348
    7MOL   C190 1522   7.289   2.040   3.065 -0.5014 -0.1656 -0.0133
    7MOL   O191 1523   7.298   1.948   2.985  0.4888 -0.4937  0.3072
    7MOL   C192 1524   7.162   2.061   3.157  0.2332 -0.4378  0.2044
    7MOL   C193 1525   7.409   2.240   2.973  0.2887  0.1146 -0.1770
    7MOL   H194 1526   7.372   2.185   3.181  0.9157  2.7604 -0.4188
    7MOL   H195 1527   7.121   2.162   3.151  0.1338 -0.4060  1.4292
    7MOL   H196 1528   7.094   1.979   3.133 -0.9007  0.2453  1.0043
    7MOL   H197 1529   7.200   2.053   3.258 -0.0246  0.2467  0.3597
    7MOL   H198 1530   7.492   2.302   3.007 -0.4279  1.0126 -0.0796
    7MOL   H199 1531   7.323   2.305   2.968 -0.3057 -0.7354 -1.2247
    7MOL   C200 1532   7.438   2.189   2.833  0.4029 -0.1007 -0.1386
    7MOL   C201 1533   7.558   2.261   2.769  0.1009  0.0050  0.1098
    7MOL   O202 1534   7.549   2.373   2.717 -0.0527  0.4827  0.0621
    7MOL   C203 1535   7.692   2.179   2.768  0.4112  0.0232  0.0485
    7MOL   C204 1536   7.316   2.208   2.743 -0.3198  0.2103  0.5010
    7MOL   H205 1537   7.475   2.086   2.841  1.9185  0.3438 -1.1670
    7MOL   H206 1538   7.735   2.160   2.866  1.7245  1.2479 -0.2752
    7MOL   H207 1539   7.663   2.086   2.720 -3.1640 -0.7422  3.4396
    7MOL   H208 1540   7.768   2.231   2.710 -1.3215  2.8563  0.2185
    7MOL   H209 1541   7.304   2.314   2.720  3.5934  0.9034  1.2142
    7MOL   H210 1542   7.228   2.177   2.799 -0.7750  0.0297 -0.2936
    7MOL   C211 1543   7.327   2.137   2.604 -0.1107 -0.7685 -1.0781
    7MOL   C212 1544   7.203   2.167   2.515  0.3615 -0.1318 -0.4991
    7MOL   O213 1545   7.092   2.202   2.566 -0.4666  0.4357 -0.5054
    7MOL   C214 1546   7.226   2.143   2.365  0.1576 -0.2913 -0.2062
    7MOL   C215 1547   7.361   1.984   2.609 -0.3274 -0.2542 -0.7594
    7MOL   H216 1548   7.409   2.187   2.552 -0.2749  0.9475  0.3028
    7MOL   H217 1549   7.134   2.161   2.311  1.1511 -0.2075 -1.9132
    7MOL   H218 1550   7.297   2.211   2.318 -0.5927  0.7098  0.0956
    7MOL   H219 1551   7.263   2.043   2.342  0.4715 -0.2713  0.1893
    7MOL   H220 1552   7.312   1.929   2.688  0.9386  1.0256  0.9556
    7MOL   H221 1553   7.469   1.976   2.622 -0.0094  2.2102 -1.5949
    7MOL   H222 1554   7.331   1.940   2.514  1.4977 -0.2020 -1.3938
    8MOL     C1 1555   3.989   0.071   6.823  0.5956  0.1933 -0.4863
    8MOL     C2 1556   3.996   0.034   6.966 -0.7984 -0.1699  0.4645
    8MOL     O3 1557   4.054   7.773   7.008  0.4033  0.2332 -0.2888
    8MOL     C4 1558   3.901   0.120   7.055  0.0524  0.0337 -1.2666
    8MOL     C5 1559   4.027   7.795   6.727 -0.0734  0.3683  0.5123
    8MOL     H6 1560   3.888   0.096   6.789 -0.7064 -0.4433  2.6826
    8MOL     H7 1561   3.855   0.043   7.117  2.3708 -0.2810  0.1147
    8MOL     H8 1562   3.951   0.194   7.118  0.2527 -1.2241  0.0835
    8MOL     H9 1563   3.816   0.163   7.001  0.2519 -1.7388 -3.0197
    8MOL    H10 1564   3.995   7.820   6.626  0.0534 -0.5127  0.2526
    8MOL    H11 1565   3.966   7.706   6.747 -2.4732  1.2947 -2.2445
    8MOL    H12 1566   4.055   0.156   6.811  2.4152 -1.0079  0.6937
    8MOL    C13 1567   4.180   7.769   6.724  0.0896 -0.6137 -1.2307
    8MOL    C14 1568   4.250   0.052   6.669  0.2966 -0.3749  0.0819
    8MOL    O15 1569   4.312   0.126   6.749 -0.3311  0.2436 -0.1065
    8MOL    C16 1570   4.228   0.084   6.517 -0.2223 -0.6210 -0.5527
    8MOL    C17 1571   4.225   7.646   6.643 -0.0468 -0.8686 -0.3338
    8MOL    H18 1572   4.215   7.763   6.827 -1.0210 -0.5245 -0.8471
    8MOL    H19 1573   4.306   0.033   6.460  0.9791 -1.5729  1.9114
    8MOL    H20 1574   4.124   0.069   6.485 -0.8742  0.6272  0.8788
    8MOL    H21 1575   4.247   0.189   6.494 -2.7716 -0.0601 -0.3453
    8MOL    H22 1576   4.324   7.663   6.602  0.1001 -0.5672  0.1466
    8MOL    H23 1577   4.156   7.637   6.559  1.3546  3.3523 -2.0472
    8MOL    C24 1578   4.230   7.517   6.727 -0.1086  0.1386 -0.0326
    8MOL    C25 1579   4.361   7.498   6.804  1.0851 -0.6060 -0.4288
    8MOL    O26 1580   4.470   7.490   6.745  0.0790 -0.1655  0.2860
    8MOL    C27 1581   4.358   7.485   6.952  0.2098 -0.1730  0.3853
    8MOL    C28 1582   4.206   7.389   6.637 -0.1726 -0.7380  0.2979
    8MOL    H29 1583   4.149   7.515   6.800  0.3553  3.5300  0.6823
    8MOL    H30 1584   4.259   7.473   6.997 -0.6306  1.5077 -0.9526
    8MOL    H31 1585   4.417   7.397   6.977 -0.5684 -0.8833 -0.2195
    8MOL    H32 1586   4.387   7.581   6.995 -1.1091 -0.0806  1.0990
    8MOL    H33 1587   4.288   7.317   6.630 -2.1889 -3.0169 -0.5071
    8MOL    H34 1588   4.209   7.424   6.534  1.9283 -1.1317  0.2021
    8MOL    C35 1589   4.077   7.310   6.673 -0.0013 -0.0262  0.3181
    8MOL    C36 1590   4.087   7.247   6.805  0.4269 -0.2305  0.6932
    8MOL    O37 1591   4.012   7.272   6.904 -1.0078  0.2512  0.0683
    8MOL    C38 1592   4.181   7.128   6.818  0.1006  0.1959  0.0456
    8MOL    C39 1593   4.021   7.215   6.559  0.1188  0.8416 -0.3086
    8MOL    H40 1594   3.997   7.382   6.689  0.4813  0.9984 -1.7454
    8MOL    H41 1595   4.198   7.081   6.721 -0.5743  1.0575 -0.4937
    8MOL    H42 1596   4.267   7.157   6.878 -1.2654  0.3768  1.9440
    8MOL    H43 1597   4.128   7.051   6.874  2.5294 -1.7197 -0.1769
    8MOL    H44 1598   4.089   7.130   6.556 -0.4430  0.2902  1.6431
    8MOL    H45 1599   4.033   7.275   6.469  0.3342  0.6344 -0.4197
    8MOL    C46 1600   3.878   7.155   6.557 -0.0314  0.1410 -0.2044
    8MOL    C47 1601   3.780   7.276   6.570  0.0972  1.0713  0.9479
    8MOL    O48 1602   3.737   7.314   6.677 -0.3039  0.6106  0.2274
    8MOL    C49 1603   3.766   7.378   6.450  0.0012  0.1287 -0.6058
    8MOL    C50 1604   3.850   7.041   6.658 -0.1920  0.0357  0.0957
    8MOL    H51 1605   3.852   7.121   6.457 -0.1598 -0.1000 -0.0908
    8MOL    H52 1606   3.748   7.478   6.491  2.5026  0.3142  0.1317
    8MOL    H53 1607   3.851   7.389   6.383 -1.8352  0.0118 -2.9968
    8MOL    H54 1608   3.677   7.348   6.396  0.5753 -2.1433 -0.3403
    8MOL    H55 1609   3.814   7.087   6.750 -0.7773 -1.2503  0.5141
    8MOL    H56 1610   3.939   6.981   6.675 -0.5098 -0.8910 -1.3733
    8MOL    C57 1611   3.744   6.934   6.603  0.2174 -0.1975  0.1750
    8MOL    C58 1612   3.770   6.863   6.468 -0.5958  0.4070 -0.2376
    8MOL    O59 1613   3.689   6.854   6.376 -0.0141  0.0189  0.3207
    8MOL    C60 1614   3.904   6.783   6.454  0.0553  0.3666 -0.1066
    8MOL    C61 1615   3.595   6.971   6.624 -0.3531  0.4402  0.2475
    8MOL    H62 1616   3.744   6.848   6.670 -1.5600 -0.7420 -0.4948
    8MOL    H63 1617   3.908   6.695   6.518 -2.5723  0.9032  0.8454
    8MOL    H64 1618   3.905   6.737   6.355  0.5637 -1.4735  0.7371
    8MOL    H65 1619   3.992   6.845   6.468  0.1972  0.3643 -0.9417
    8MOL    H66 1620   3.532   6.896   6.577  3.4193 -2.1549 -0.9367
    8MOL    H67 1621   3.587   7.052   6.550 -0.0864  2.3685  2.2854
    8MOL    C68 1622   3.547   7.000   6.769 -0.3289 -0.5641 -0.3160
    8MOL    C69 1623   3.561   6.885   6.860 -1.5964  0.6667  0.5450
    8MOL    O70 1624   3.472   6.805   6.878 -0.5842 -0.0550 -0.2497
    8MOL    C71 1625   3.687   6.878   6.945  0.0976  0.4412 -0.0404
    8MOL    C72 1626   3.409   7.059   6.780 -0.1288 -0.6196 -0.1270
    8MOL    H73 1627   3.613   7.074   6.814 -1.1408 -0.3991  0.6246
    8MOL    H74 1628   3.689   6.952   7.025 -1.0243 -0.6748  1.0416
    8MOL    H75 1629   3.682   6.775   6.981 -0.3214  0.8938  1.2387
    8MOL    H76 1630   3.773   6.884   6.878 -0.7701  0.5385 -1.1693
    8MOL    H77 1631   3.326   6.996   6.747 -0.7738 -0.7069  1.6001
    8MOL    H78 1632   3.407   7.140   6.707  0.9764  0.9575  1.5570
    8MOL    C79 1633   3.383   7.137   6.912  0.4403 -0.7764 -0.3962
    8MOL    C80 1634   3.233   7.125   6.951  0.4348 -0.4638  0.5544
    8MOL    O81 1635   3.161   7.221   6.956 -0.1485 -0.5253 -0.7634
    8MOL    C82 1636   3.173   6.990   6.982 -0.0711  0.5264  0.0870
    8MOL    C83 1637   3.439   7.281   6.895 -0.3733 -0.0724 -0.6647
    8MOL    H84 1638   3.433   7.090   6.997 -0.8137 -0.4615  0.5161
    8MOL    H85 1639   3.096   6.963   6.909 -0.3203  1.0487  0.1495
    8MOL    H86 1640   3.255   6.919   6.985 -1.5476 -1.1631  3.8179
    8MOL    H87 1641   3.156   6.989   7.089  1.3516 -0.2197  0.3138
    8MOL    H88 1642   3.361   7.341   6.850  0.0193  0.7028 -0.3111
    8MOL    H89 1643   3.496   7.284   6.802 -0.1024  0.6881 -0.4748
    8MOL    C90 1644   3.492   7.352   7.019  0.6775 -0.0441 -0.3926
    8MOL    C91 1645   3.617   7.288   7.076  0.2163  0.3733  0.6579
    8MOL    O92 1646   3.608   7.185   7.140 -0.6449 -0.1079 -0.0813
    8MOL    C93 1647   3.753   7.357   7.062  0.7094 -0.1278 -0.1815
    8MOL    C94 1648   3.387   7.386   7.128  0.2773  0.0926  0.0185
    8MOL    H95 1649   3.524   7.451   6.986 -1.2539  1.5084  2.1729
    8MOL    H96 1650   3.784   7.374   6.959 -0.8500  0.0105 -0.6422
    8MOL    H97 1651   3.772   7.441   7.129  0.0205 -1.3561  1.6109
    8MOL    H98 1652   3.829   7.283   7.090 -0.1934 -1.2382 -0.6195
    8MOL    H99 1653   3.377   7.309   7.205 -0.7052  0.9114  0.7144
    8MOL   H100 1654   3.288   7.402   7.086  1.1461  0.9447 -1.7300
    8MOL   C101 1655   3.439   7.510   7.219  0.2784  0.2901 -0.0748
    8MOL   C102 1656   3.356   7.519   7.351 -0.9335 -0.3012 -0.4315
    8MOL   O103 1657   3.242   7.477   7.355  0.0974  0.0677 -0.3533
    8MOL   C104 1658   3.422   7.581   7.477  0.0873  0.7467 -0.5375
    8MOL   C105 1659   3.426   7.653   7.156 -0.9214  0.2576  0.2713
    8MOL   H106 1660   3.542   7.496   7.250 -0.1403  0.0876  1.2519
    8MOL   H107 1661   3.523   7.618   7.460  1.0301 -2.1499 -1.4554
    8MOL   H108 1662   3.368   7.671   7.507  0.6850  0.6408  0.9005
    8MOL   H109 1663   3.422   7.512   7.561 -0.4865  0.5303 -0.7142
    8MOL   H110 1664   3.366   7.720   7.218 -0.7453 -1.5716  2.5042
    8MOL   H111 1665   3.377   7.646   7.059  0.7085 -2.1296 -0.4464
    8MOL   C112 1666   3.562   7.729   7.133 -0.2877  0.5209  0.2335
    8MOL   C113 1667   3.627   7.771   7.265  0.5236  1.0109  0.5289
    8MOL   O114 1668   3.700   7.697   7.327 -0.5415 -0.0999  0.4768
    8MOL   C115 1669   3.617   0.070   7.311  0.1993  0.7232  0.0692
    8MOL   C116 1670   3.546   0.004   7.032  0.1245  0.4643  0.8600
    8MOL   H117 1671   3.626   7.658   7.082 -1.4505 -1.0597  0.9523
    8MOL   H118 1672   3.529   0.121   7.273  0.8240  1.4907 -0.3640
    8MOL   H119 1673   3.614   0.062   7.420  0.3724  2.2289  0.1854
    8MOL   H120 1674   3.700   0.137   7.289  1.2185 -0.1094  1.2669
    8MOL   H121 1675   3.646   0.048   7.035 -0.0382  0.9237 -0.3679
    8MOL   H122 1676   3.473   0.079   7.062 -0.6191  1.1519 -2.4735
    8MOL   C123 1677   3.518   7.816   6.882 -0.5776  0.3212 -0.5074
    8MOL   C124 1678   3.612   7.714   6.829 -0.2043 -0.0038 -0.1622
    8MOL   O125 1679   3.725   7.700   6.866 -0.2871  0.7857 -0.0851
    8MOL   C126 1680   3.561   7.613   6.722 -0.1040  0.5792  0.1743
    8MOL   C127 1681   3.543   0.106   6.792  0.7722 -0.2835  0.5030
    8MOL   H128 1682   3.419   7.772   6.867 -0.3554  0.7038 -3.2778
    8MOL   H129 1683   3.609   7.633   6.626 -1.3671 -0.0091 -0.5938
    8MOL   H130 1684   3.577   7.513   6.761  1.2870  0.9717  0.6378
    8MOL   H131 1685   3.453   7.624   6.709 -0.3138  1.1234  2.2262
    8MOL   H132 1686   3.546   0.081   6.686 -2.5666 -0.4794  0.4194
    8MOL   H133 1687   3.644   0.145   6.807  0.2288  1.7041 -0.6997
    8MOL   C134 1688   3.437   0.222   6.816  0.0912  0.1232 -0.1360
    8MOL   C135 1689   3.306   0.193   6.734 -0.5005  0.1097  0.1406
    8MOL   O136 1690   3.296   0.091   6.665 -0.2330  0.4905  0.0415
    8MOL   C137 1691   3.192   0.292   6.729 -0.6478  0.4501 -0.5913
    8MOL   C138 1692   3.494   0.368   6.797  0.6116  0.0655 -0.2485
    8MOL   H139 1693   3.402   0.204   6.917  0.0468 -0.5025 -0.2615
    8MOL   H140 1694   3.110   0.264   6.663 -0.8074  0.9524 -0.6029
    8MOL   H141 1695   3.153   0.306   6.830  2.2688 -0.0417  0.6570
    8MOL   H142 1696   3.229   0.389   6.697 -0.4515  0.2923 -0.8444
    8MOL   H143 1697   3.422   0.449   6.800  0.1422 -0.2762 -1.7674
    8MOL   H144 1698   3.535   0.371   6.696 -0.2425 -2.2617 -0.6978
    8MOL   C145 1699   3.607   0.408   6.893 -0.0567  0.2056 -0.0608
    8MOL   C146 1700   3.561   0.406   7.042 -0.0191 -0.0896 -0.5939
    8MOL   O147 1701   3.632   0.359   7.131 -0.0559  0.2939 -0.3958
    8MOL   C148 1702   3.431   0.467   7.082 -0.0436 -0.0194  0.1480
    8MOL   C149 1703   3.667   0.544   6.849 -0.0713 -0.4618  0.3357
    8MOL   H150 1704   3.680   0.328   6.894  0.0790  0.3324  0.1994
    8MOL   H151 1705   3.445   0.524   7.174  0.2404 -0.7737  0.5748
    8MOL   H152 1706   3.380   0.516   6.999  0.4866 -1.5580 -1.1217
    8MOL   H153 1707   3.369   0.381   7.106 -0.8709  0.3644 -0.5837
    8MOL   H154 1708   3.592   0.623   6.847  1.1990  0.7801  0.8696
    8MOL   H155 1709   3.698   0.550   6.744 -0.8727 -3.8907 -0.1408
    8MOL   C156 1710   3.794   0.592   6.933  1.0006 -0.1126 -0.1221
    8MOL   C157 1711   3.806   0.746   6.953 -0.2366 -0.5785 -0.0037
    8MOL   O158 1712   3.895   0.811   6.900  0.0598 -0.3862  0.0288
    8MOL   C159 1713   3.687   0.819   7.023  0.4632  0.4192 -0.0833
    8MOL   C160 1714   3.928   0.527   6.900 -0.5122  1.2035  0.1634
    8MOL   H161 1715   3.779   0.569   7.039 -1.2249  4.1789  0.6278
    8MOL   H162 1716   3.629   0.750   7.083 -0.6695  0.1947 -1.4108
    8MOL   H163 1717   3.719   0.904   7.084  2.8921 -1.0860  0.8055
    8MOL   H164 1718   3.626   0.859   6.942 -2.6788 -0.6177  1.7229
    8MOL   H165 1719   3.911   0.421   6.921 -0.5102  0.8815 -1.4084
    8MOL   H166 1720   4.001   0.542   6.979  0.0966  1.3827 -0.4329
    8MOL   C167 1721   3.991   0.554   6.764  0.2945 -0.0129  0.4800
    8MOL   C168 1722   3.937   0.461   6.647 -0.2195 -0.3911  0.0943
    8MOL   O169 1723   3.897   0.346   6.667 -0.4750 -0.4665  0.5132
    8MOL   C170 1724   3.929   0.522   6.514 -0.8002  0.3492 -0.5307
    8MOL   C171 1725   4.141   0.547   6.768  0.1142  0.1831 -0.3707
    8MOL   H172 1726   3.969   0.657   6.734 -1.8896 -1.2158 -2.3177
    8MOL   H173 1727   3.841   0.480   6.464 -0.0951 -1.4125 -0.3183
    8MOL   H174 1728   3.943   0.630   6.512  1.9637  0.0093 -1.0231
    8MOL   H175 1729   4.019   0.483   6.468  0.2378  2.5711 -0.4622
    8MOL   H176 1730   4.165   0.445   6.800  0.8774  0.4270 -0.1690
    8MOL   H177 1731   4.195   0.603   6.844 -2.5907  0.2029  1.6276
    8MOL   C178 1732   4.221   0.601   6.645 -0.1780  0.3833  0.5152
    8MOL   C179 1733   4.364   0.545   6.652 -1.0419 -0.2422 -0.2550
    8MOL   O180 1734   4.453   0.603   6.712 -0.3779  0.0131 -0.4257
    8MOL   C181 1735   4.396   0.410   6.584 -0.5083  0.5904  0.4360
    8MOL   C182 1736   4.220   0.759   6.640 -0.0329  0.3736 -0.0195
    8MOL   H183 1737   4.182   0.559   6.553 -1.1798 -1.7788  1.8907
    8MOL   H184 1738   4.503   0.411   6.563 -0.0375  1.7390  2.7800
    8MOL   H185 1739   4.380   0.316   6.635  0.0491  0.2716  0.0250
    8MOL   H186 1740   4.348   0.401   6.486 -0.4936 -0.2617  0.5043
    8MOL   H187 1741   4.293   0.803   6.709 -0.0456 -1.3389  1.1000
    8MOL   H188 1742   4.124   0.795   6.678  0.6428  1.6015  0.5842
    8MOL   C189 1743   4.244   0.832   6.504  0.4112  0.1285  0.0956
    8MOL   C190 1744   4.148   0.777   6.389 -0.1270  0.1770  0.3076
    8MOL   O191 1745   4.182   0.692   6.309 -0.1884 -0.5031  0.1494
    8MOL   C192 1746   4.003   0.843   6.373  0.0954  0.0146  0.0013
    8MOL   C193 1747   4.394   0.826   6.458 -0.0952 -0.1027 -0.5878
    8MOL   H194 1748   4.226   0.937   6.527  0.5699  0.0261  0.6929
    8MOL   H195 1749   3.920   0.818   6.439 -0.6350 -0.0424 -0.9328
    8MOL   H196 1750   4.012   0.949   6.396  0.4269  0.2977 -1.3798
    8MOL   H197 1751   3.961   0.827   6.274 -1.7429  2.0681  0.4188
    8MOL   H198 1752   4.418   0.735   6.403  0.9364 -0.8397  1.0442
    8MOL   H199 1753   4.459   0.827   6.545 -3.1209  1.8319  1.7331
    8MOL   C200 1754   4.436   0.944   6.358 -0.3390  0.1157 -0.4317
    8MOL   C201 1755   4.393   1.083   6.423 -0.8922 -0.2854 -0.0683
    8MOL   O202 1756   4.344   1.178   6.354 -0.1422 -0.5301  0.3140
    8MOL   C203 1757   4.436   1.113   6.564 -0.1097 -0.0515 -0.0109
    8MOL   C204 1758   4.397   0.930   6.210  0.0280  0.2430 -0.4555
    8MOL   H205 1759   4.544   0.952   6.369 -0.7384  2.5008  2.3925
    8MOL   H206 1760   4.356   1.086   6.633  0.9911 -0.3814  1.1371
    8MOL   H207 1761   4.526   1.064   6.599 -1.6248 -1.1983  2.3610
    8MOL   H208 1762   4.450   1.221   6.552 -0.9670  0.0885  0.1816
    8MOL   H209 1763   4.417   1.015   6.144 -1.3721 -0.6788 -2.1306
    8MOL   H210 1764   4.288   0.938   6.203  0.1139  0.9567 -1.0794
    8MOL   C211 1765   4.455   0.817   6.138  0.0436  0.3260  0.0037
    8MOL   C212 1766   4.605   0.820   6.116  0.2739 -0.3930 -0.2707
    8MOL   O213 1767   4.668   0.926   6.127 -0.2769  0.1501 -0.0655
    8MOL   C214 1768   4.681   0.690   6.083 -0.1856  0.7959  0.2054
    8MOL   C215 1769   4.393   0.806   6.002  0.1326  0.8431 -0.5372
    8MOL   H216 1770   4.436   0.724   6.193 -1.2750  0.5515 -0.0557
    8MOL   H217 1771   4.620   0.605   6.053  0.0980 -0.8694  3.9689
    8MOL   H218 1772   4.760   0.700   6.009 -0.2629 -0.7001 -0.0973
    8MOL   H219 1773   4.715   0.666   6.184 -2.0674  0.4706  0.7897
    8MOL   H220 1774   4.412   0.715   5.944 -0.0693  0.2666  0.2921
    8MOL   H221 1775   4.410   0.890   5.935  2.7973  0.7129 -0.0954
    8MOL   H222 1776   4.285   0.792   6.006  0.2765 -0.2409 -0.3077
    9MOL     C1 1777   0.689   3.957   5.995 -0.0359  0.2284  0.3974
    9MOL     C2 1778   0.685   3.816   5.953 -0.0623 -0.2315  1.0549
    9MOL     O3 1779   0.779   3.760   5.903  0.0303 -0.6454  0.0771
    9MOL     C4 1780   0.558   3.732   5.983  0.0255  0.1828  0.2863
    9MOL     C5 1781   0.702   4.049   5.871 -0.5772 -0.5045 -0.0773
    9MOL     H6 1782   0.594   3.985   6.041  1.0881  0.3381  2.6960
    9MOL     H7 1783   0.534   3.753   6.087  1.3972 -0.3937  0.7353
    9MOL     H8 1784   0.480   3.767   5.915 -0.4335 -0.7408  0.3305
    9MOL     H9 1785   0.586   3.628   5.961  0.5533  0.2497  0.6322
    9MOL    H10 1786   0.690   4.152   5.903 -3.0553 -0.4845 -0.9675
    9MOL    H11 1787   0.608   4.036   5.819 -1.1868  1.4209  0.5040
    9MOL    H12 1788   0.772   3.966   6.066  0.0352 -2.5588  0.7204
    9MOL    C13 1789   0.829   4.051   5.783 -0.7520 -0.6509 -0.0093
    9MOL    C14 1790   0.959   4.058   5.862  0.0129  0.0501  0.4544
    9MOL    O15 1791   0.962   4.090   5.980 -0.2562 -0.5507  0.1513
    9MOL    C16 1792   1.090   4.035   5.782 -0.6033  0.3262  0.3379
    9MOL    C17 1793   0.815   4.137   5.658  0.1983 -0.3651 -0.1191
    9MOL    H18 1794   0.832   3.951   5.739  1.2715  0.0644 -1.5993
    9MOL    H19 1795   1.077   3.986   5.685  0.3551  3.1093 -1.2670
    9MOL    H20 1796   1.136   4.129   5.753 -0.0841  0.0967  0.3957
    9MOL    H21 1797   1.166   3.977   5.835 -1.3766  0.1177  1.2261
    9MOL    H22 1798   0.910   4.157   5.606 -0.4903  0.5945 -1.0421
    9MOL    H23 1799   0.781   4.236   5.689  1.2081  0.2146 -0.8228
    9MOL    C24 1800   0.730   4.077   5.543  0.5742  0.3494  0.8265
    9MOL    C25 1801   0.806   3.980   5.456 -0.1867  0.5203  0.4073
    9MOL    O26 1802   0.926   3.997   5.424  0.6350  0.6819 -0.3029
    9MOL    C27 1803   0.739   3.849   5.415 -0.1161  0.5156 -0.5471
    9MOL    C28 1804   0.656   4.184   5.460 -0.5942 -0.0399  0.0777
    9MOL    H29 1805   0.643   4.025   5.582  2.0798 -0.7979  2.7556
    9MOL    H30 1806   0.740   3.823   5.309  5.6972  1.3426 -0.8594
    9MOL    H31 1807   0.794   3.772   5.469  1.9445 -0.8231 -4.3755
    9MOL    H32 1808   0.632   3.837   5.436  0.3848 -1.5908  0.9968
    9MOL    H33 1809   0.726   4.257   5.419  0.9696 -0.8779  1.1679
    9MOL    H34 1810   0.612   4.238   5.544  0.2236  0.0652  0.4509
    9MOL    C35 1811   0.550   4.127   5.360  0.2865 -0.6936  0.2187
    9MOL    C36 1812   0.553   4.185   5.217  0.3386 -0.1424 -0.2125
    9MOL    O37 1813   0.620   4.130   5.128  0.4299  0.1160 -0.2840
    9MOL    C38 1814   0.478   4.304   5.172  0.1809  0.2700  0.0315
    9MOL    C39 1815   0.406   4.139   5.422  0.2992  0.1019  0.5044
    9MOL    H40 1816   0.555   4.022   5.328 -2.0216 -0.9677  0.6406
    9MOL    H41 1817   0.525   4.344   5.082 -1.0635  0.5320 -0.5039
    9MOL    H42 1818   0.380   4.283   5.130  0.6850  0.4803 -1.2576
    9MOL    H43 1819   0.449   4.375   5.249 -0.8993  2.8541 -2.6545
    9MOL    H44 1820   0.370   4.241   5.419  0.2875  0.1719  2.1616
    9MOL    H45 1821   0.428   4.106   5.524 -1.2722 -0.4090  0.6859
    9MOL    C46 1822   0.293   4.049   5.363  0.0381 -0.4377 -0.0280
    9MOL    C47 1823   0.161   4.094   5.425 -0.4901 -0.2340  0.0602
    9MOL    O48 1824   0.137   4.089   5.543 -0.5947  0.2183  0.1258
    9MOL    C49 1825   0.067   4.144   5.317  0.3894  0.2935  0.6946
    9MOL    C50 1826   0.316   3.896   5.409  0.0272 -0.4843  0.0589
    9MOL    H51 1827   0.298   4.056   5.254 -0.2580 -0.6396 -0.0547
    9MOL    H52 1828   0.105   4.115   5.220 -0.2439 -0.7288  0.7444
    9MOL    H53 1829   7.820   4.082   5.327  0.0960  0.6689  0.4636
    9MOL    H54 1830   0.040   4.249   5.334 -1.0608 -0.5475  4.1197
    9MOL    H55 1831   0.296   3.875   5.514  0.9872 -1.4471  0.0574
    9MOL    H56 1832   0.419   3.864   5.391 -0.4058 -0.8541 -1.8833
    9MOL    C57 1833   0.246   3.785   5.323 -0.7451 -0.3177  0.3852
    9MOL    C58 1834   0.291   3.807   5.174  0.2329  0.1876 -0.4221
    9MOL    O59 1835   0.222   3.857   5.087  0.2815  0.4322 -0.9335
    9MOL    C60 1836   0.430   3.771   5.140 -0.1079  0.3634  0.2397
    9MOL    C61 1837   0.092   3.779   5.331  0.5761 -0.0251  0.0538
    9MOL    H62 1838   0.285   3.689   5.355  0.5604 -0.5120 -1.6959
    9MOL    H63 1839   0.437   3.762   5.032  0.9075 -0.3605  0.3536
    9MOL    H64 1840   0.494   3.850   5.182  0.0508 -1.1510  2.9863
    9MOL    H65 1841   0.472   3.687   5.195 -2.2942 -1.2798 -0.5612
    9MOL    H66 1842   0.042   3.864   5.287 -1.2678 -1.2655 -0.2962
    9MOL    H67 1843   0.075   3.781   5.439  1.0920 -1.4468  0.1823
    9MOL    C68 1844   0.024   3.648   5.264  0.1322  0.0269  0.4025
    9MOL    C69 1845   7.734   3.677   5.191 -0.3322 -0.5372 -0.2222
    9MOL    O70 1846   7.631   3.682   5.247 -0.8558  0.7261  0.0021
    9MOL    C71 1847   7.736   3.695   5.044 -0.6855 -0.1317 -0.2375
    9MOL    C72 1848   0.016   3.524   5.357  0.1202  0.2174 -0.0619
    9MOL    H73 1849   0.094   3.628   5.183  0.2120 -0.0896  0.5017
    9MOL    H74 1850   7.640   3.726   5.002 -2.2297 -1.8691  1.8690
    9MOL    H75 1851   7.807   3.773   5.019 -0.3057 -0.7620 -1.1530
    9MOL    H76 1852   7.775   3.600   5.008  1.2889  0.4590  0.2933
    9MOL    H77 1853   7.766   3.530   5.414 -1.5014 -0.9311 -2.4846
    9MOL    H78 1854   0.086   3.541   5.439  0.1780 -0.4906  0.0373
    9MOL    C79 1855   0.053   3.378   5.297 -0.7153 -0.7298 -0.2209
    9MOL    C80 1856   0.136   3.381   5.173  0.5794  0.1461  0.3175
    9MOL    O81 1857   0.082   3.351   5.067 -0.8231 -0.4374  0.4887
    9MOL    C82 1858   0.280   3.424   5.195 -0.0398 -0.3286 -0.2962
    9MOL    C83 1859   7.755   3.308   5.276 -1.1374  0.1281  0.6670
    9MOL    H84 1860   0.112   3.330   5.375  0.8543 -1.2408 -1.6846
    9MOL    H85 1861   0.302   3.460   5.295  0.9980  2.4589 -1.4664
    9MOL    H86 1862   0.325   3.325   5.191  0.5014 -0.0909 -0.0495
    9MOL    H87 1863   0.309   3.507   5.131  2.5724 -1.1827 -0.2542
    9MOL    H88 1864   7.702   3.375   5.209 -1.6529 -0.3463  0.5967
    9MOL    H89 1865   7.690   3.323   5.362 -0.0709 -0.6693  1.6284
    9MOL    C90 1866   7.761   3.156   5.240 -0.5622  0.2434  0.2056
    9MOL    C91 1867   7.652   3.123   5.139  0.1057 -0.2617  0.1527
    9MOL    O92 1868   7.535   3.158   5.158  0.3027  0.7670 -0.2629
    9MOL    C93 1869   7.688   3.055   5.006 -0.3895 -0.5223 -0.4302
    9MOL    C94 1870   7.765   3.072   5.364 -0.2646 -0.0297 -0.5559
    9MOL    H95 1871   0.010   3.134   5.183 -1.5949 -1.6056 -0.7876
    9MOL    H96 1872   7.791   3.079   4.983 -0.8660  0.9678 -1.0836
    9MOL    H97 1873   7.689   2.946   5.005  2.0677 -0.5275  0.2501
    9MOL    H98 1874   7.625   3.099   4.928 -0.4102  2.6093  1.2855
    9MOL    H99 1875   7.681   3.095   5.429 -0.5954  2.1550 -1.6857
    9MOL   H100 1876   0.005   3.105   5.428  0.3399 -2.3075 -0.1045
    9MOL   C101 1877   7.790   2.921   5.343 -0.2823 -0.1112  0.1355
    9MOL   C102 1878   7.698   2.825   5.423 -0.6383 -0.0238  0.2267
    9MOL   O103 1879   7.747   2.728   5.478  0.2924  0.3717 -0.2390
    9MOL   C104 1880   7.549   2.852   5.433  0.5421  0.0977 -0.0905
    9MOL   C105 1881   0.098   2.884   5.353 -0.0190  0.5009 -0.4221
    9MOL   H106 1882   7.760   2.897   5.241  0.9024  0.7083 -0.4163
    9MOL   H107 1883   7.500   2.769   5.483  2.2092 -0.0768  1.2869
    9MOL   H108 1884   7.532   2.940   5.495 -1.9056  0.1951 -0.8496
    9MOL   H109 1885   7.511   2.870   5.332  2.0238 -1.3726 -0.9320
    9MOL   H110 1886   0.106   2.779   5.325  1.3364  0.9700 -1.8105
    9MOL   H111 1887   0.126   2.883   5.459  3.4835  0.3430 -1.3059
    9MOL   C112 1888   0.204   2.978   5.281 -0.1336 -0.0017  0.0026
    9MOL   C113 1889   0.218   2.959   5.129 -0.0670 -0.3010 -0.0752
    9MOL   O114 1890   0.137   2.887   5.069  0.1106 -0.3878  0.6107
    9MOL   C115 1891   0.308   3.055   5.052  0.2122  0.1543 -0.3031
    9MOL   C116 1892   0.345   2.969   5.341 -0.1190 -0.2431 -0.5380
    9MOL   H117 1893   0.169   3.080   5.299 -2.4324 -0.8309  0.3488
    9MOL   H118 1894   0.282   3.074   4.948  1.3781 -0.1731 -0.6672
    9MOL   H119 1895   0.300   3.154   5.096  2.0015 -0.0446  0.5695
    9MOL   H120 1896   0.414   3.029   5.065  0.7158  1.9009 -0.8559
    9MOL   H121 1897   0.422   3.017   5.281  1.5244 -3.1610 -0.8578
    9MOL   H122 1898   0.373   2.865   5.324 -1.6312 -1.0530  1.6401
    9MOL   C123 1899   0.367   3.013   5.487  0.6147  0.2421  0.1878
    9MOL   C124 1900   0.331   3.160   5.511 -0.1836 -0.1121  0.5136
    9MOL   O125 1901   0.332   3.246   5.424 -0.0768  0.8841  0.2380
    9MOL   C126 1902   0.309   3.212   5.651 -0.7044 -0.6886  0.4750
    9MOL   C127 1903   0.505   2.969   5.552  0.0979  0.1745 -0.0201
    9MOL   H128 1904   0.296   2.956   5.547 -0.9007  1.0197 -0.8316
    9MOL   H129 1905   0.384   3.180   5.723  2.4655  1.8706 -1.5977
    9MOL   H130 1906   0.299   3.320   5.663 -0.8615 -0.7367  0.8075
    9MOL   H131 1907   0.217   3.174   5.696 -0.6916  0.3926  1.4336
    9MOL   H132 1908   0.513   2.861   5.555 -0.5281  0.0863 -1.5804
    9MOL   H133 1909   0.505   2.992   5.659 -1.3632 -0.6679  0.1653
    9MOL   C134 1910   0.636   3.021   5.502  0.0600 -0.4337  0.7790
    9MOL   C135 1911   0.676   2.947   5.375 -0.5936 -0.5133  0.2099
    9MOL   O136 1912   0.642   2.832   5.354  0.4909  0.2874 -0.0531
    9MOL   C137 1913   0.774   3.016   5.282  0.3095 -0.1970 -0.0509
    9MOL   C138 1914   0.752   3.011   5.610 -0.3302 -0.6060 -0.7150
    9MOL   H139 1915   0.621   3.127   5.480  3.6303 -0.5321 -2.4995
    9MOL   H140 1916   0.720   3.087   5.220  0.8962 -0.3859 -0.7762
    9MOL   H141 1917   0.846   3.065   5.348 -0.4519 -0.9525  1.3657
    9MOL   H142 1918   0.833   2.958   5.211 -0.2464  0.1911 -0.8319
    9MOL   H143 1919   0.727   3.065   5.701 -0.2739  1.5586 -1.9404
    9MOL   H144 1920   0.838   3.061   5.565  0.6493 -0.1209  1.6165
    9MOL   C145 1921   0.822   2.868   5.655 -0.0895  0.0888  0.4120
    9MOL   C146 1922   0.721   2.792   5.736 -0.7207 -0.0319 -0.0840
    9MOL   O147 1923   0.655   2.843   5.823 -0.2458  0.1901  0.0260
    9MOL   C148 1924   0.703   2.639   5.704 -0.7079 -0.2841 -0.2464
    9MOL   C149 1925   0.962   2.901   5.721 -0.2466  0.5453 -0.4528
    9MOL   H150 1926   0.853   2.810   5.568 -0.3347 -1.2055  1.1730
    9MOL   H151 1927   0.798   2.588   5.717  0.9303  2.4211 -1.1826
    9MOL   H152 1928   0.644   2.590   5.782  0.1531 -1.6039 -0.4084
    9MOL   H153 1929   0.669   2.620   5.602  1.8750 -0.3914 -1.1102
    9MOL   H154 1930   1.001   2.811   5.769  0.0327  0.4950 -0.7774
    9MOL   H155 1931   0.954   2.973   5.803 -0.9318  1.8542 -1.6553
    9MOL   C156 1932   1.068   2.941   5.619  0.8888  0.1948  0.3012
    9MOL   C157 1933   1.112   2.827   5.531 -0.6638  0.3050  0.3866
    9MOL   O158 1934   1.176   2.731   5.571 -0.3621  0.0330  0.5426
    9MOL   C159 1935   1.071   2.824   5.379 -0.3762 -0.5578 -0.8133
    9MOL   C160 1936   1.187   3.004   5.692  0.3087  1.1697  0.0416
    9MOL   H161 1937   1.039   3.017   5.547  0.0990  0.3983  0.8246
    9MOL   H162 1938   1.016   2.912   5.346  1.7014  0.1010 -2.6645
    9MOL   H163 1939   1.167   2.812   5.328  0.1599 -2.7496  0.6179
    9MOL   H164 1940   1.016   2.736   5.345 -2.2896  2.0002 -4.7723
    9MOL   H165 1941   1.263   2.934   5.726 -0.7000 -0.4261 -0.9141
    9MOL   H166 1942   1.151   3.051   5.783  0.8187  0.3887  0.6445
    9MOL   C167 1943   1.265   3.119   5.625 -0.4072 -0.1620 -0.1368
    9MOL   C168 1944   1.180   3.236   5.582  0.6674  0.4364  0.1574
    9MOL   O169 1945   1.060   3.233   5.566  0.3641 -0.5505 -0.0701
    9MOL   C170 1946   1.244   3.371   5.562  0.2807  0.1490  0.5384
    9MOL   C171 1947   1.362   3.079   5.508 -0.8089 -0.4351  0.0302
    9MOL   H172 1948   1.330   3.172   5.695 -2.5947  1.4799  0.7307
    9MOL   H173 1949   1.287   3.404   5.657  0.4924 -2.2801  1.3285
    9MOL   H174 1950   1.323   3.365   5.487 -0.7216 -0.0628 -0.4997
    9MOL   H175 1951   1.165   3.429   5.514  1.6724  1.6004 -0.0482
    9MOL   H176 1952   1.406   3.170   5.465 -0.1333 -1.3524 -1.2409
    9MOL   H177 1953   1.319   3.031   5.421 -1.1830 -0.3980  0.1937
    9MOL   C178 1954   1.492   3.008   5.557  0.1330  0.1085 -0.0327
    9MOL   C179 1955   1.571   3.102   5.655  0.2652  0.4685 -0.1537
    9MOL   O180 1956   1.581   3.223   5.639 -0.1030 -0.2575 -0.2195
    9MOL   C181 1957   1.623   3.041   5.786  0.2862 -0.2316  0.2598
    9MOL   C182 1958   1.581   2.962   5.436  0.3388  0.2967  0.0435
    9MOL   H183 1959   1.471   2.918   5.613  2.0325 -0.2703  0.1303
    9MOL   H184 1960   1.625   3.116   5.865  0.1211 -0.1774  0.2140
    9MOL   H185 1961   1.562   2.955   5.813  0.0201 -0.7484 -1.9130
    9MOL   H186 1962   1.726   3.010   5.770  0.5212  0.3189  0.6533
    9MOL   H187 1963   1.648   3.047   5.424 -0.2328  0.8617  0.7734
    9MOL   H188 1964   1.523   2.968   5.344  1.2943  0.5239 -0.5454
    9MOL   C189 1965   1.672   2.840   5.451 -0.7159  0.0103  0.4628
    9MOL   C190 1966   1.592   2.708   5.439 -0.0822  0.1028 -0.3896
    9MOL   O191 1967   1.586   2.629   5.533 -0.1732 -0.8796 -0.3404
    9MOL   C192 1968   1.526   2.678   5.310  0.3903  0.1270  0.2317
    9MOL   C193 1969   1.767   2.830   5.578  0.3953  0.1915 -0.0058
    9MOL   H194 1970   1.742   2.844   5.368 -1.8858 -2.2096 -0.6645
    9MOL   H195 1971   1.587   2.694   5.221 -1.6140 -1.8784 -1.5551
    9MOL   H196 1972   1.504   2.572   5.312 -1.7491  0.5471  0.8724
    9MOL   H197 1973   1.431   2.732   5.299  1.1244  0.6626 -3.9635
    9MOL   H198 1974   1.700   2.803   5.660  1.9487 -1.2016  0.8333
    9MOL   H199 1975   1.805   2.930   5.597 -1.4680  0.4556  2.5619
    9MOL   C200 1976   1.887   2.725   5.558  0.1911  0.5682 -0.5699
    9MOL   C201 1977   1.932   2.690   5.705  0.1343  0.4926 -0.1402
    9MOL   O202 1978   1.989   2.768   5.779 -0.4492 -0.4727 -0.3787
    9MOL   C203 1979   1.905   2.547   5.745 -0.4178  0.1008 -0.0035
    9MOL   C204 1980   1.992   2.772   5.464  0.5183 -0.5012  0.2953
    9MOL   H205 1981   1.839   2.633   5.524  0.4973  0.4563 -0.6949
    9MOL   H206 1982   1.983   2.522   5.816 -0.0270  0.3229 -0.3518
    9MOL   H207 1983   1.805   2.533   5.786 -1.1287  2.9530 -0.6281
    9MOL   H208 1984   1.928   2.468   5.673  1.9694 -0.7823  1.6614
    9MOL   H209 1985   2.037   2.862   5.504  0.7744 -0.1879 -0.6885
    9MOL   H210 1986   1.951   2.803   5.368  0.0561 -0.2149  0.5853
    9MOL   C211 1987   2.108   2.665   5.451  0.7891 -0.8267 -0.0363
    9MOL   C212 1988   2.237   2.736   5.416  0.8274  0.3109 -0.5105
    9MOL   O213 1989   2.242   2.794   5.312 -0.0957 -0.4674 -0.0575
    9MOL   C214 1990   2.358   2.722   5.513 -0.4288 -0.2593 -0.0506
    9MOL   C215 1991   2.076   2.544   5.363  0.3353  0.1880  0.7130
    9MOL   H216 1992   2.131   2.617   5.546 -1.0439 -1.9010 -0.1021
    9MOL   H217 1993   2.351   2.626   5.564 -2.1581  0.4287  1.0421
    9MOL   H218 1994   2.459   2.718   5.471 -1.4914 -1.7814 -2.5241
    9MOL   H219 1995   2.349   2.802   5.587 -0.4413  1.0018 -1.3860
    9MOL   H220 1996   2.166   2.506   5.315  0.4063  1.2271  0.0027
    9MOL   H221 1997   2.003   2.559   5.283 -1.3614 -0.6849  2.0762
    9MOL   H222 1998   2.040   2.475   5.439 -1.9980  2.1946  1.5311
   10MOL     C1 1999   3.551   7.673   0.063 -0.3443 -0.0074  0.2864
   10MOL     C2 2000   3.641   7.608   0.173  0.1952 -0.0937 -0.6805
   10MOL     O3 2001   3.763   7.637   0.183 -0.1431  0.4073 -0.5821
   10MOL     C4 2002   3.576   7.499   0.259 -0.2522 -0.0093  0.7281
   10MOL     C5 2003   3.627   7.692   7.772 -0.5876  0.2402 -0.4637
   10MOL     H6 2004   3.473   7.600   0.045 -1.8598  1.4237  0.9575
   10MOL     H7 2005   3.469   7.492   0.244  0.1327  0.7222 -2.9018
   10MOL     H8 2006   3.608   7.396   0.243 -0.8110 -0.1327  0.4202
   10MOL     H9 2007   3.598   7.513   0.364  0.9353  0.1933  0.4602
   10MOL    H10 2008   3.567   7.692   7.681 -1.0135  1.1550 -0.1885
   10MOL    H11 2009   3.691   7.604   7.768 -0.9524 -0.0017 -0.9557
   10MOL    H12 2010   3.501   7.764   0.094  0.0585 -0.0180  0.9804
   10MOL    C13 2011   3.707   7.824   7.769  0.0645  0.0029  1.1460
   10MOL    C14 2012   3.603   0.089   7.745 -0.4448 -0.0629 -0.8638
   10MOL    O15 2013   3.565   0.132   7.635 -0.7043 -0.1784 -0.2216
   10MOL    C16 2014   3.555   0.160   0.028  0.9730  0.4031  0.3303
   10MOL    C17 2015   3.821   7.812   7.662  1.4144 -0.3145 -0.6100
   10MOL    H18 2016   3.752   7.834   0.027 -1.1050 -1.0724  1.7889
   10MOL    H19 2017   3.628   0.154   0.109 -0.7251  0.5006  1.9080
   10MOL    H20 2018   3.519   0.257   7.836 -0.9274  0.0055  1.1690
   10MOL    H21 2019   3.464   0.108   0.058  0.4934  1.6807  1.1431
   10MOL    H22 2020   3.777   7.785   7.566  3.1816  0.1928 -1.5724
   10MOL    H23 2021   3.879   7.722   7.682 -0.9025 -1.3727  1.7081
   10MOL    C24 2022   3.907   0.094   7.636  0.5717 -0.2665  0.5520
   10MOL    C25 2023   4.023   0.059   7.541 -0.8487  0.5844 -0.0530
   10MOL    O26 2024   4.119   7.841   7.580  0.3710  0.0634 -0.2568
   10MOL    C27 2025   4.012   0.114   7.398  0.1610 -0.8546 -0.4333
   10MOL    C28 2026   3.971   0.151   7.767  0.4389  0.4736  0.7658
   10MOL    H29 2027   3.844   0.168   7.586  0.1405 -1.3304 -0.5177
   10MOL    H30 2028   4.030   0.026   7.336  1.1540 -1.2434  0.3941
   10MOL    H31 2029   3.916   0.162   7.379  0.7976  0.7709  0.3331
   10MOL    H32 2030   4.090   0.185   7.371 -0.9507  0.7815  0.6014
   10MOL    H33 2031   4.046   0.076   7.794 -2.8815 -2.7155  1.5553
   10MOL    H34 2032   3.889   0.143   7.839  0.3665 -3.6740  0.3686
   10MOL    C35 2033   4.040   0.293   7.767  0.1373  0.3201  0.2233
   10MOL    C36 2034   3.954   0.400   7.696  0.7219  0.5818  0.4596
   10MOL    O37 2035   3.980   0.453   7.587 -0.3597  0.9788 -0.0171
   10MOL    C38 2036   3.811   0.419   7.754  0.0413 -0.5172  0.3785
   10MOL    C39 2037   4.188   0.289   7.732 -0.3648 -0.0659  0.5011
   10MOL    H40 2038   4.041   0.326   0.029 -0.1868 -0.1134  0.3641
   10MOL    H41 2039   3.792   0.374   0.010 -3.0393 -1.4379 -0.5987
   10MOL    H42 2040   3.788   0.525   7.749 -0.8189 -0.7832 -1.9481
   10MOL    H43 2041   3.734   0.374   7.692 -0.7846 -1.2312  1.8958
   10MOL    H44 2042   4.193   0.289   7.623 -0.2263  1.2306  0.5007
   10MOL    H45 2043   4.235   0.193   7.755  0.8543 -0.1670 -2.1436
   10MOL    C46 2044   4.284   0.389   7.800 -0.5045  0.0579  0.0574
   10MOL    C47 2045   4.275   0.387   0.108  0.9319 -0.1856  0.1616
   10MOL    O48 2046   4.195   0.456   0.177  0.0432 -0.2036 -0.8196
   10MOL    C49 2047   4.380   0.297   0.175 -0.7969  0.0804  0.1564
   10MOL    C50 2048   4.275   0.527   7.734  0.5535  0.9646 -0.3981
   10MOL    H51 2049   4.385   0.353   7.782  0.3607  2.0837  0.7352
   10MOL    H52 2050   4.470   0.358   0.185 -0.5613 -0.1591 -0.4548
   10MOL    H53 2051   4.365   0.263   0.277 -1.3204  1.8021  0.6775
   10MOL    H54 2052   4.398   0.207   0.117  0.2344 -0.2615  0.9989
   10MOL    H55 2053   4.183   0.576   7.768 -0.6089 -1.6422  0.3473
   10MOL    H56 2054   4.249   0.520   7.628 -0.1059  0.7825 -0.2314
   10MOL    C57 2055   4.393   0.620   7.741 -0.0554  0.7180 -0.7134
   10MOL    C58 2056   4.521   0.555   7.684 -0.6352  0.4322 -0.0314
   10MOL    O59 2057   4.615   0.512   7.746  0.0550 -0.6082 -0.2785
   10MOL    C60 2058   4.541   0.567   7.536 -0.0913  0.3526 -0.0291
   10MOL    C61 2059   4.414   0.680   0.041  0.7491 -0.2364  0.1883
   10MOL    H62 2060   4.360   0.695   7.669  0.0864  1.4388 -0.0347
   10MOL    H63 2061   4.609   0.494   7.490  0.1131  0.3955  0.2018
   10MOL    H64 2062   4.443   0.564   7.488  0.1202  1.7420 -0.5706
   10MOL    H65 2063   4.578   0.667   7.512  2.5942 -0.6738 -0.4257
   10MOL    H66 2064   4.474   0.606   0.093  0.9644 -0.5958 -0.5543
   10MOL    H67 2065   4.317   0.684   0.090  0.2479 -2.7510 -0.5228
   10MOL    C68 2066   4.483   0.812   0.044  0.1287 -0.3488 -1.4526
   10MOL    C69 2067   4.537   0.835   0.188 -0.6972  0.4147  0.5348
   10MOL    O70 2068   4.468   0.881   0.277  0.0427 -0.7942 -0.1913
   10MOL    C71 2069   4.681   0.795   0.206  0.4734  0.8079  0.3779
   10MOL    C72 2070   4.386   0.918   0.006  0.5379  0.5537  0.2503
   10MOL    H73 2071   4.566   0.818   7.816  1.2177 -2.0595 -0.3361
   10MOL    H74 2072   4.694   0.790   0.314 -0.2971  0.0611  0.4348
   10MOL    H75 2073   4.696   0.694   0.170 -2.6989  0.5267 -0.3271
   10MOL    H76 2074   4.746   0.863   0.151 -0.0720 -0.0804 -1.4009
   10MOL    H77 2075   4.320   0.953   0.085  1.1159 -1.4482  1.6686
   10MOL    H78 2076   4.314   0.878   7.777 -0.2344 -0.0837  1.3926
   10MOL    C79 2077   4.444   1.039   7.773  0.3631  0.2696  0.5323
   10MOL    C80 2078   4.510   0.998   7.641 -0.5066  0.8633 -0.4976
   10MOL    O81 2079   4.631   0.991   7.630 -0.1597  0.5195 -0.6211
   10MOL    C82 2080   4.421   0.952   7.530  0.0229  1.0548  0.4932
   10MOL    C83 2081   4.511   1.142   0.023  1.0609 -0.1150  0.0271
   10MOL    H84 2082   4.353   1.088   7.737  0.9842  0.0938 -1.3272
   10MOL    H85 2083   4.415   0.843   7.528  1.5497  0.9868 -1.2592
   10MOL    H86 2084   4.320   0.984   7.559 -0.0001 -0.1336  1.7800
   10MOL    H87 2085   4.461   1.000   7.441 -0.1429  2.4807  1.1777
   10MOL    H88 2086   4.611   1.103   0.045  1.5312 -0.6576 -2.8533
   10MOL    H89 2087   4.458   1.161   0.116  1.1249 -0.0479  0.0494
   10MOL    C90 2088   4.538   1.281   7.795  0.2949 -0.2635 -0.0151
   10MOL    C91 2089   4.648   1.348   0.033 -0.1446 -0.5044 -0.6748
   10MOL    O92 2090   4.631   1.447   0.098 -0.2984 -0.1138  0.2282
   10MOL    C93 2091   4.796   1.305   0.028  0.2418 -0.4292 -0.5063
   10MOL    C94 2092   4.415   1.371   7.772 -0.2746 -0.3143 -0.6284
   10MOL    H95 2093   4.586   1.275   7.697  0.3314  1.1462 -0.0901
   10MOL    H96 2094   4.815   1.241   0.115  1.2761  0.6246  0.0576
   10MOL    H97 2095   4.820   1.247   7.781  0.7849  1.4136 -1.5855
   10MOL    H98 2096   4.870   1.385   0.029  0.7779 -0.9047 -1.4568
   10MOL    H99 2097   4.398   1.440   0.013 -3.9529 -0.5787 -1.0572
   10MOL   H100 2098   4.337   1.295   7.770  0.4829 -1.1342  0.5016
   10MOL   C101 2099   4.397   1.442   7.635  0.5083  0.2951  0.5893
   10MOL   C102 2100   4.509   1.545   7.612  0.8299  0.6090 -0.6687
   10MOL   O103 2101   4.514   1.637   7.693  0.3169 -0.3082  0.4219
   10MOL   C104 2102   4.628   1.505   7.519 -0.1529  0.0367 -0.2868
   10MOL   C105 2103   4.251   1.497   7.632 -0.5069  0.4877  0.2812
   10MOL   H106 2104   4.415   1.354   7.573 -1.0305  0.5431 -0.2420
   10MOL   H107 2105   4.597   1.505   7.415 -1.1103 -3.5923 -0.0835
   10MOL   H108 2106   4.717   1.567   7.527  1.2571 -2.1327  1.5798
   10MOL   H109 2107   4.668   1.406   7.539  0.6753  0.6079  0.9486
   10MOL   H110 2108   4.242   1.587   7.692  2.3168  1.9387 -1.3953
   10MOL   H111 2109   4.184   1.423   7.676 -0.4146 -0.5944 -1.3461
   10MOL   C112 2110   4.188   1.533   7.496 -0.2340 -0.3259 -0.9111
   10MOL   C113 2111   4.211   1.426   7.387 -0.8136  0.3388  0.4706
   10MOL   O114 2112   4.322   1.414   7.336  0.0216 -0.3706 -0.1343
   10MOL   C115 2113   4.099   1.330   7.354 -0.2773 -0.7661 -0.0805
   10MOL   C116 2114   4.224   1.673   7.440 -0.0128 -0.3681 -0.1469
   10MOL   H117 2115   4.080   1.529   7.503 -0.1989 -0.5709 -0.4629
   10MOL   H118 2116   4.017   1.343   7.426 -0.9900 -3.3979 -0.3519
   10MOL   H119 2117   4.062   1.347   7.253 -0.6413 -1.2382 -0.0328
   10MOL   H120 2118   4.134   1.227   7.366  0.9135 -0.3306  0.2030
   10MOL   H121 2119   4.198   1.671   7.334 -1.4036  0.3273  0.1793
   10MOL   H122 2120   4.332   1.687   7.443  0.0648 -1.0271  0.0581
   10MOL   C123 2121   4.146   1.797   7.496 -1.0015 -0.2990  0.1186
   10MOL   C124 2122   3.994   1.798   7.461 -0.5639 -0.5620  0.3905
   10MOL   O125 2123   3.954   1.736   7.363  0.1026 -0.0639 -0.6792
   10MOL   C126 2124   3.891   1.860   7.563 -1.1667 -0.0921  0.0087
   10MOL   C127 2125   4.206   1.928   7.442 -0.0540  0.1131  0.3739
   10MOL   H128 2126   4.150   1.785   7.604 -0.6727  0.1051  0.1542
   10MOL   H129 2127   3.947   1.915   7.639  2.7073 -3.1572 -0.4916
   10MOL   H130 2128   3.821   1.933   7.522 -0.9441  2.1930  3.5377
   10MOL   H131 2129   3.830   1.783   7.610 -0.8326  0.5569  1.5195
   10MOL   H132 2130   4.141   2.015   7.448 -0.0290  0.0698  1.3785
   10MOL   H133 2131   4.220   1.911   7.335 -0.3761 -0.3587  0.4070
   10MOL   C134 2132   4.335   1.966   7.524 -0.6991 -0.3032 -0.0405
   10MOL   C135 2133   4.295   2.023   7.661 -0.6277  0.3210 -0.4928
   10MOL   O136 2134   4.177   2.018   7.696 -0.2984  0.0266  0.2874
   10MOL   C137 2135   4.403   2.088   7.748 -0.4156 -0.0229 -0.0924
   10MOL   C138 2136   4.412   2.073   7.438  0.1628 -0.1083 -0.0404
   10MOL   H139 2137   4.405   1.883   7.532  1.5527  1.4534 -1.2537
   10MOL   H140 2138   4.380   2.115   0.008  2.6552  0.5091  0.5164
   10MOL   H141 2139   4.479   2.010   7.759 -0.4039 -0.6575 -3.8596
   10MOL   H142 2140   4.440   2.183   7.708  2.5893 -0.8126  0.6471
   10MOL   H143 2141   4.492   2.117   7.498  1.7727 -0.2920 -1.9760
   10MOL   H144 2142   4.341   2.147   7.403 -0.1232  0.1988  1.1815
   10MOL   C145 2143   4.485   2.019   7.314  0.2272 -0.1394  0.3062
   10MOL   C146 2144   4.599   1.918   7.345 -0.6690 -0.8344  0.2787
   10MOL   O147 2145   4.679   1.933   7.438 -0.1953  0.5594  1.1862
   10MOL   C148 2146   4.603   1.802   7.245 -0.3013  0.1054 -0.0098
   10MOL   C149 2147   4.525   2.120   7.212 -0.6261 -0.1009 -0.5532
   10MOL   H150 2148   4.416   1.959   7.256  0.5385  0.0103 -0.2242
   10MOL   H151 2149   4.500   1.775   7.220  0.2363 -0.2725 -1.8327
   10MOL   H152 2150   4.652   1.824   7.151 -0.3747 -0.6269 -0.2236
   10MOL   H153 2151   4.633   1.710   7.295  0.0493 -0.1025 -0.6037
   10MOL   H154 2152   4.606   2.088   7.146 -0.2409  3.6742 -2.0687
   10MOL   H155 2153   4.560   2.208   7.265 -0.5695 -0.3813 -0.1263
   10MOL   C156 2154   4.408   2.173   7.127 -0.0870  0.4345  0.7021
   10MOL   C157 2155   4.366   2.063   7.028 -0.4312  0.0838  0.5695
   10MOL   O158 2156   4.431   1.959   7.002 -0.0736 -0.0033  0.0811
   10MOL   C159 2157   4.231   2.072   6.962 -0.5596 -0.1765  0.2441
   10MOL   C160 2158   4.448   2.300   7.039  0.5790  0.2743 -0.0206
   10MOL   H161 2159   4.323   2.196   7.190 -2.2856 -1.5379 -1.4356
   10MOL   H162 2160   4.243   2.113   6.862 -1.2940  1.8319  0.9454
   10MOL   H163 2161   4.179   1.976   6.961  1.4621 -1.2799 -1.5084
   10MOL   H164 2162   4.174   2.145   7.020  0.7425  0.1146  1.1708
   10MOL   H165 2163   4.399   2.283   6.943 -2.4905  0.0267  1.5405
   10MOL   H166 2164   4.556   2.285   7.027  0.7422  1.0551  0.4868
   10MOL   C167 2165   4.418   2.446   7.105 -0.1149  0.5213 -0.5314
   10MOL   C168 2166   4.266   2.457   7.110 -0.1935 -0.5484 -0.3806
   10MOL   O169 2167   4.192   2.496   7.019  0.9583 -0.1395 -0.5459
   10MOL   C170 2168   4.204   2.447   7.250 -0.2465 -0.3642 -0.2107
   10MOL   C171 2169   4.478   2.568   7.017  0.2314  0.3757  0.0947
   10MOL   H172 2170   4.463   2.440   7.204 -0.5800  0.2321 -0.3340
   10MOL   H173 2171   4.217   2.543   7.300 -0.3830 -0.7670  0.6058
   10MOL   H174 2172   4.100   2.421   7.228  0.4544 -0.8085 -3.2047
   10MOL   H175 2173   4.246   2.369   7.312  0.4892  0.5499  0.4521
   10MOL   H176 2174   4.448   2.564   6.912 -2.6810  2.7806  0.7660
   10MOL   H177 2175   4.585   2.556   6.997  0.2323  0.8124 -0.1561
   10MOL   C178 2176   4.431   2.708   7.066  0.1408  0.5793 -1.4488
   10MOL   C179 2177   4.461   2.817   6.962  0.4700  0.3277  0.1975
   10MOL   O180 2178   4.560   2.888   6.962 -0.4848 -0.1387  0.3492
   10MOL   C181 2179   4.351   2.833   6.845 -0.6289 -0.3409 -0.3788
   10MOL   C182 2180   4.487   2.749   7.208 -0.3615 -0.7730 -0.2634
   10MOL   H183 2181   4.322   2.714   7.067  0.0773 -0.5035 -1.2917
   10MOL   H184 2182   4.261   2.779   6.874  0.7307 -2.0579  0.7725
   10MOL   H185 2183   4.326   2.934   6.811  2.2601  0.8924  0.9115
   10MOL   H186 2184   4.393   2.776   6.762  1.3909  0.1936  0.2282
   10MOL   H187 2185   4.593   2.772   7.199 -0.2395 -0.5712  1.5780
   10MOL   H188 2186   4.488   2.668   7.280 -0.6345  0.2335  0.8837
   10MOL   C189 2187   4.425   2.876   7.278  0.2573  0.6731  0.2783
   10MOL   C190 2188   4.511   2.938   7.392 -0.3953  0.1631  0.5356
   10MOL   O191 2189   4.611   2.885   7.430 -0.0173 -0.2136 -0.3147
   10MOL   C192 2190   4.458   3.055   7.468  0.1201  0.1895 -0.0845
   10MOL   C193 2191   4.277   2.848   7.315  0.3883  0.2493 -0.0482
   10MOL   H194 2192   4.428   2.952   7.200 -1.4138 -1.1461 -1.6472
   10MOL   H195 2193   4.354   3.048   7.500  0.2464 -1.2575  0.0301
   10MOL   H196 2194   4.532   3.081   7.543 -0.6727  0.1645  0.7096
   10MOL   H197 2195   4.462   3.136   7.395 -0.6804  1.2535  1.0489
   10MOL   H198 2196   4.257   2.864   7.421  0.3290  1.6325 -0.2496
   10MOL   H199 2197   4.268   2.740   7.311  2.0791  0.0242  1.3799
   10MOL   C200 2198   4.167   2.900   7.226 -0.4873 -1.0973  0.5189
   10MOL   C201 2199   4.165   3.057   7.211  0.8087  0.8624 -0.6331
   10MOL   O202 2200   4.173   3.116   7.312 -0.4209 -0.2658  0.3059
   10MOL   C203 2201   4.138   3.123   7.079  0.4456 -0.1281 -0.7939
   10MOL   C204 2202   4.030   2.845   7.267  0.3758 -0.1264 -0.5685
   10MOL   H205 2203   4.188   2.880   7.121 -1.6376 -2.2629  0.5137
   10MOL   H206 2204   4.176   3.060   6.998  2.3852 -0.7086  0.5279
   10MOL   H207 2205   4.033   3.151   7.075  0.2388 -0.1475  2.6076
   10MOL   H208 2206   4.190   3.218   7.072 -0.6240  0.3820 -1.9468
   10MOL   H209 2207   3.961   2.916   7.314 -0.1000  0.7472 -2.5462
   10MOL   H210 2208   4.051   2.767   7.340  0.7968 -1.6905 -2.3217
   10MOL   C211 2209   3.947   2.764   7.163  0.4470 -0.6110  0.3574
   10MOL   C212 2210   3.941   2.806   7.020 -0.2053 -0.1410  0.0869
   10MOL   O213 2211   4.043   2.803   6.954 -0.2997  0.4126 -0.1078
   10MOL   C214 2212   3.807   2.858   6.969  0.3354  0.9246  1.0445
   10MOL   C215 2213   3.807   2.730   7.222 -0.1688 -0.1664  0.2293
   10MOL   H216 2214   4.001   2.670   7.160  0.6672 -0.4722 -0.0801
   10MOL   H217 2215   3.772   2.934   7.038  1.0784  1.0162  1.3224
   10MOL   H218 2216   3.807   2.897   6.867  1.2877 -1.6301  0.0283
   10MOL   H219 2217   3.749   2.768   6.950  1.3340  0.3871  0.4794
   10MOL   H220 2218   3.744   2.665   7.161  0.9843 -1.0327 -0.0546
   10MOL   H221 2219   3.757   2.823   7.249  1.2142  1.1143 -1.5236
   10MOL   H222 2220   3.812   2.678   7.318  1.5834  0.5114  0.5270
   11MOL     C1 2221   5.032   0.087   5.839  0.2463  0.5863 -0.4148
   11MOL     C2 2222   4.892   0.042   5.870  0.7203 -0.0263 -0.1491
   11MOL     O3 2223   4.793   0.111   5.847  0.2998 -0.1727  0.1433
   11MOL     C4 2224   4.878   7.747   5.931 -0.2617 -0.2138 -0.4817
   11MOL     C5 2225   5.040   0.240   5.799  0.1068 -0.9833  0.4469
   11MOL     H6 2226   5.100   0.058   5.919 -0.8143 -2.7283 -0.6397
   11MOL     H7 2227   4.815   7.687   5.866 -1.0867  1.7550 -1.5267
   11MOL     H8 2228   4.975   7.698   5.937  0.3995  1.1700  0.3187
   11MOL     H9 2229   4.839   7.765   6.031 -1.3488  3.1437 -1.4379
   11MOL    H10 2230   4.962   0.260   5.726  0.9572 -0.0361 -0.2023
   11MOL    H11 2231   5.134   0.253   5.745 -0.6560 -0.1288 -0.6820
   11MOL    H12 2232   5.047   0.015   5.759 -0.6824 -0.3559  0.2430
   11MOL    C13 2233   5.038   0.348   5.909 -0.6328  0.6073 -0.6793
   11MOL    C14 2234   4.973   0.481   5.861 -0.5096  0.2187  0.6784
   11MOL    O15 2235   5.044   0.584   5.858  0.0846 -0.3806  0.0060
   11MOL    C16 2236   4.827   0.472   5.808  0.0145  0.7855 -0.0102
   11MOL    C17 2237   5.174   0.356   5.985 -0.2450 -0.5093 -0.6585
   11MOL    H18 2238   4.967   0.305   5.980 -0.1839  0.8928 -0.0471
   11MOL    H19 2239   4.791   0.574   5.820  0.4004  0.7370  1.6586
   11MOL    H20 2240   4.825   0.450   5.701  0.4679  1.5095 -0.1671
   11MOL    H21 2241   4.761   0.407   5.866  0.0298  1.4819  0.7907
   11MOL    H22 2242   5.260   0.369   5.919 -0.0169 -1.0920 -0.4771
   11MOL    H23 2243   5.205   0.260   6.026  0.0934  0.6842  1.9618
   11MOL    C24 2244   5.202   0.459   6.101 -0.2931 -0.5603  0.8323
   11MOL    C25 2245   5.358   0.478   6.114 -0.1221  1.1063  0.2314
   11MOL    O26 2246   5.444   0.390   6.134 -0.2523  0.1792 -0.0095
   11MOL    C27 2247   5.407   0.621   6.088  0.4724 -0.2957 -0.3575
   11MOL    C28 2248   5.129   0.428   6.230  0.2304  0.3819  0.6579
   11MOL    H29 2249   5.172   0.555   6.060 -0.1217  0.2362  2.5443
   11MOL    H30 2250   5.397   0.688   6.173  4.0342  1.3287 -1.1308
   11MOL    H31 2251   5.511   0.626   6.054  0.9570 -1.4029  0.9069
   11MOL    H32 2252   5.360   0.667   6.001  2.5970  0.6157 -1.0616
   11MOL    H33 2253   5.172   0.333   6.264 -1.0189 -0.8802 -1.1831
   11MOL    H34 2254   5.027   0.397   6.206  0.1039  1.2206  0.1147
   11MOL    C35 2255   5.122   0.534   6.340  0.3494  0.6237 -0.0869
   11MOL    C36 2256   5.144   0.470   6.481  0.5572 -0.1765 -0.2182
   11MOL    O37 2257   5.051   0.456   6.564 -0.4114  0.8973  0.5398
   11MOL    C38 2258   5.276   0.404   6.510  0.2337 -0.7046 -0.3249
   11MOL    C39 2259   4.988   0.616   6.334 -0.2880  0.2267  0.5436
   11MOL    H40 2260   5.213   0.588   6.311  0.5748  0.7730  0.9007
   11MOL    H41 2261   5.309   0.439   6.607 -1.8391  0.5162 -0.0330
   11MOL    H42 2262   5.277   0.295   6.505 -0.3977 -0.8068  1.5402
   11MOL    H43 2263   5.351   0.441   6.439  0.3165  0.4929  0.3801
   11MOL    H44 2264   4.896   0.557   6.340 -1.1222  1.3899 -0.3559
   11MOL    H45 2265   4.985   0.674   6.241  1.6069 -0.9859 -0.3026
   11MOL    C46 2266   4.972   0.735   6.434  0.2982 -0.5084 -0.0515
   11MOL    C47 2267   4.825   0.780   6.469 -0.1241  1.1769  0.1464
   11MOL    O48 2268   4.782   0.889   6.445 -0.2838  0.1117 -0.2948
   11MOL    C49 2269   4.738   0.681   6.538  0.0083  0.0230 -0.3136
   11MOL    C50 2270   5.072   0.857   6.409 -0.1644 -0.3607 -0.1163
   11MOL    H51 2271   5.008   0.701   6.531 -0.1964 -1.9186 -0.3505
   11MOL    H52 2272   4.778   0.591   6.584 -1.9014 -0.2633  0.8490
   11MOL    H53 2273   4.694   0.738   6.620  0.6769  1.2716 -0.8162
   11MOL    H54 2274   4.659   0.645   6.471 -1.0741 -2.5883  2.2159
   11MOL    H55 2275   5.175   0.821   6.405 -0.4675 -1.5555  1.9824
   11MOL    H56 2276   5.056   0.918   6.498  2.0098  0.3562 -0.1833
   11MOL    C57 2277   5.033   0.951   6.292 -0.7924  0.0030  0.3103
   11MOL    C58 2278   5.093   0.910   6.157 -0.4192  0.5454  0.3723
   11MOL    O59 2279   5.212   0.873   6.151 -0.0498 -0.2809  0.6046
   11MOL    C60 2280   5.005   0.927   6.035  0.2397  0.4448  0.6373
   11MOL    C61 2281   5.070   1.100   6.327  0.3479  0.7021  0.0876
   11MOL    H62 2282   4.926   0.944   6.271 -0.3843 -1.8627 -1.2996
   11MOL    H63 2283   5.048   0.998   5.964 -0.0471  0.0802  0.0937
   11MOL    H64 2284   4.993   0.835   5.978  0.6336  1.1850 -0.6775
   11MOL    H65 2285   4.913   0.962   6.082  0.1780 -0.3433  1.1237
   11MOL    H66 2286   5.095   1.161   6.240  0.4094  0.6475  0.0676
   11MOL    H67 2287   5.158   1.089   6.391  1.0732 -0.4726 -1.0789
   11MOL    C68 2288   4.962   1.170   6.409  0.7427 -0.3084 -0.2451
   11MOL    C69 2289   4.841   1.207   6.320 -0.5824  0.6997  0.1027
   11MOL    O70 2290   4.856   1.217   6.201  0.2639  0.2672  0.6504
   11MOL    C71 2291   4.703   1.219   6.380 -0.3227 -1.6429  0.5132
   11MOL    C72 2292   5.013   1.296   6.481 -0.1375  0.2259 -0.1509
   11MOL    H73 2293   4.920   1.099   6.480  0.8557  0.0895  0.2150
   11MOL    H74 2294   4.647   1.304   6.341  1.6179 -0.4200  0.3833
   11MOL    H75 2295   4.658   1.124   6.348 -2.3844 -0.4727 -0.1702
   11MOL    H76 2296   4.705   1.220   6.489  2.6422 -0.2940  0.4829
   11MOL    H77 2297   4.928   1.355   6.514 -0.9915 -0.7617 -0.5384
   11MOL    H78 2298   5.058   1.357   6.403  0.6380  0.3674  0.4086
   11MOL    C79 2299   5.124   1.270   6.593  0.5627 -0.6714  0.2480
   11MOL    C80 2300   5.061   1.177   6.700 -0.7087 -0.2990  0.1880
   11MOL    O81 2301   4.956   1.199   6.758  0.3550 -0.6112 -0.4193
   11MOL    C82 2302   5.143   1.055   6.725 -0.2144  0.3889 -0.2497
   11MOL    C83 2303   5.165   1.397   6.662 -0.4816 -0.6151 -0.0980
   11MOL    H84 2304   5.212   1.226   6.546  0.0906 -0.0936 -1.2015
   11MOL    H85 2305   5.209   1.031   6.641 -1.7067 -2.7272 -0.6101
   11MOL    H86 2306   5.212   1.071   6.808  1.9259 -1.0448 -1.6948
   11MOL    H87 2307   5.081   0.966   6.739  1.2085 -0.5631  0.1349
   11MOL    H88 2308   5.075   1.449   6.698 -0.8532 -0.7623 -0.8137
   11MOL    H89 2309   5.209   1.462   6.587 -0.4087 -0.9161 -0.3142
   11MOL    C90 2310   5.266   1.388   6.777  0.5448 -0.4988 -0.2303
   11MOL    C91 2311   5.240   1.500   6.876  0.2725 -0.6541  0.1951
   11MOL    O92 2312   5.284   1.611   6.844  0.3406  0.6974 -0.0208
   11MOL    C93 2313   5.174   1.475   7.010 -0.4424 -0.1965  0.6695
   11MOL    C94 2314   5.411   1.380   6.729 -1.3047  0.3233  0.2610
   11MOL    H95 2315   5.258   1.298   6.838  0.9977 -0.1881  0.3041
   11MOL    H96 2316   5.235   1.511   7.092 -0.9837  1.1369  0.4986
   11MOL    H97 2317   5.072   1.514   7.017 -0.0548  0.6877  1.3978
   11MOL    H98 2318   5.174   1.366   7.012  1.0218 -0.2359 -0.4387
   11MOL    H99 2319   5.436   1.470   6.672  0.5789  1.1503  2.3154
   11MOL   H100 2320   5.426   1.302   6.654 -0.3289  0.3581  0.4175
   11MOL   C101 2321   5.516   1.344   6.840 -0.3522  1.0611  0.0791
   11MOL   C102 2322   5.486   1.214   6.914  0.1344  0.4236  1.0207
   11MOL   O103 2323   5.485   1.204   7.035  0.2449 -1.2449  0.2708
   11MOL   C104 2324   5.477   1.091   6.827 -0.3643  0.6332  0.0355
   11MOL   C105 2325   5.571   1.457   6.935 -0.1261  0.3183  0.0280
   11MOL   H106 2326   5.602   1.318   6.778  0.1981 -0.1471  1.3185
   11MOL   H107 2327   5.423   1.107   6.734  1.3431  0.0961 -1.0663
   11MOL   H108 2328   5.581   1.064   6.808 -1.0473 -0.7303 -1.9474
   11MOL   H109 2329   5.427   1.018   6.892 -0.4636 -1.2494 -2.0989
   11MOL   H110 2330   5.508   1.454   7.024 -0.8031  0.6429 -0.4428
   11MOL   H111 2331   5.540   1.555   6.899  0.1662  0.4290  0.0686
   11MOL   C112 2332   5.717   1.450   6.988 -0.1645 -1.1074  0.4612
   11MOL   C113 2333   5.730   1.534   7.119 -0.0361 -0.2759  0.3054
   11MOL   O114 2334   5.784   1.646   7.124  0.0863  0.4220 -0.0699
   11MOL   C115 2335   5.671   1.468   7.242  0.1032 -0.1454 -0.4888
   11MOL   C116 2336   5.818   1.473   6.881  0.3680 -0.0897 -0.1340
   11MOL   H117 2337   5.716   1.343   7.011 -3.4813 -0.9523  1.2447
   11MOL   H118 2338   5.563   1.475   7.231  0.1020 -0.9303 -1.0486
   11MOL   H119 2339   5.683   1.359   7.243  3.1468  0.1540  0.8720
   11MOL   H120 2340   5.688   1.506   7.342  0.5368 -1.3188 -0.1057
   11MOL   H121 2341   5.843   1.579   6.884  2.4008 -0.5979  2.0874
   11MOL   H122 2342   5.771   1.461   6.783  1.1815 -1.2704 -0.3922
   11MOL   C123 2343   5.933   1.370   6.885 -0.8862 -0.3547 -0.0109
   11MOL   C124 2344   6.061   1.427   6.816  0.2614 -0.0816 -0.2260
   11MOL   O125 2345   6.107   1.369   6.722 -0.1836  0.8008 -0.3327
   11MOL   C126 2346   6.128   1.548   6.878 -0.0771 -0.3587  0.0018
   11MOL   C127 2347   5.898   1.227   6.834  0.4780 -0.3581  0.4167
   11MOL   H128 2348   5.972   1.352   6.985  2.1095  2.4396 -0.5976
   11MOL   H129 2349   6.099   1.549   6.983  0.1794  0.0874  0.0660
   11MOL   H130 2350   6.232   1.555   6.849  0.4536 -0.5358  1.7762
   11MOL   H131 2351   6.081   1.625   6.818  0.5968 -1.3462 -1.8276
   11MOL   H132 2352   5.854   1.232   6.734  0.4768 -3.0779  0.2255
   11MOL   H133 2353   5.809   1.197   6.888 -0.5070 -1.2186 -1.6266
   11MOL   C134 2354   5.993   1.109   6.842 -0.0986 -0.8050 -0.7885
   11MOL   C135 2355   5.951   0.994   6.751 -0.3386 -0.2797 -0.2523
   11MOL   O136 2356   5.838   0.948   6.765  0.5408  0.1265  0.5366
   11MOL   C137 2357   6.052   0.943   6.644  0.3510 -0.3487 -0.4381
   11MOL   C138 2358   6.033   1.054   6.987 -0.0341  0.0877 -0.0126
   11MOL   H139 2359   6.084   1.139   6.790 -1.0670 -0.3133 -2.2430
   11MOL   H140 2360   6.142   1.005   6.639  0.0366  0.0653 -1.2097
   11MOL   H141 2361   6.089   0.843   6.665 -0.5764 -0.6254 -0.0941
   11MOL   H142 2362   6.012   0.958   6.543 -0.7018 -0.5197 -0.0447
   11MOL   H143 2363   6.025   0.945   6.990 -0.5075  0.1114 -0.4000
   11MOL   H144 2364   5.946   1.073   7.050  0.7640  2.4036  0.4488
   11MOL   C145 2365   6.172   1.107   7.037  0.3235  0.0239 -0.4360
   11MOL   C146 2366   6.272   1.038   6.942 -1.1420 -0.7461  0.3869
   11MOL   O147 2367   6.295   0.922   6.941 -0.0938  0.1332 -0.1451
   11MOL   C148 2368   6.342   1.127   6.837 -0.0454 -0.8884 -0.5142
   11MOL   C149 2369   6.204   1.074   7.189 -0.1378  0.0031  0.6577
   11MOL   H150 2370   6.169   1.214   7.017 -2.9857 -0.1527 -1.2690
   11MOL   H151 2371   6.451   1.118   6.842  0.0372  0.5675  0.5963
   11MOL   H152 2372   6.323   1.100   6.733 -1.2048  0.6552 -0.7139
   11MOL   H153 2373   6.315   1.231   6.857  0.6085 -0.5473 -1.3620
   11MOL   H154 2374   6.230   0.968   7.196  0.0400  0.0004  0.0173
   11MOL   H155 2375   6.109   1.087   7.241 -0.9493 -1.9158 -0.3009
   11MOL   C156 2376   6.325   1.170   7.243 -0.0283  0.4717  0.2824
   11MOL   C157 2377   6.463   1.106   7.233 -0.9547 -0.4830  0.2182
   11MOL   O158 2378   6.482   0.986   7.206 -0.2523 -0.2006  0.1322
   11MOL   C159 2379   6.594   1.188   7.260  0.9753  0.4239  0.5596
   11MOL   C160 2380   6.293   1.214   7.392  0.2347  0.5630 -0.0522
   11MOL   H161 2381   6.334   1.259   7.180  0.3086  0.8003  0.7926
   11MOL   H162 2382   6.576   1.294   7.239  0.5328  0.1338 -0.5851
   11MOL   H163 2383   6.622   1.184   7.365 -0.6444 -0.2212  0.9861
   11MOL   H164 2384   6.674   1.149   7.198  0.9512  0.8649  0.2443
   11MOL   H165 2385   6.373   1.194   7.463  1.4214  0.9111 -1.2783
   11MOL   H166 2386   6.221   1.148   7.441 -0.5947  1.9275  0.5998
   11MOL   C167 2387   6.246   1.363   7.411  0.4758  0.2193 -0.3608
   11MOL   C168 2388   6.102   1.377   7.357 -0.3898 -0.3467  0.6612
   11MOL   O169 2389   6.079   1.371   7.232 -0.0760  0.0415  0.4209
   11MOL   C170 2390   5.990   1.403   7.454  0.6804 -0.5341 -0.1822
   11MOL   C171 2391   6.341   1.479   7.356 -0.2462 -0.0150  0.1883
   11MOL   H172 2392   6.236   1.376   7.518 -0.7807 -1.6788 -0.2351
   11MOL   H173 2393   5.905   1.450   7.406  0.7234  0.3027  0.5537
   11MOL   H174 2394   5.963   1.306   7.498  1.9549 -0.5171  0.6798
   11MOL   H175 2395   6.020   1.474   7.532  3.0578 -2.0355  0.3295
   11MOL   H176 2396   6.325   1.468   7.249 -4.5278  0.0235  0.7356
   11MOL   H177 2397   6.441   1.459   7.396 -0.7972 -0.2363  1.4732
   11MOL   C178 2398   6.302   1.625   7.392 -0.1662 -0.3589 -0.3332
   11MOL   C179 2399   6.275   1.654   7.545  0.1744 -0.4654  0.4638
   11MOL   O180 2400   6.191   1.724   7.591  0.2029  0.1663  0.3290
   11MOL   C181 2401   6.370   1.579   7.632 -0.0402  0.4004 -0.3182
   11MOL   C182 2402   6.183   1.683   7.303 -0.3276  0.0810  0.5040
   11MOL   H183 2403   6.390   1.684   7.369  0.1366 -0.6555  0.0526
   11MOL   H184 2404   6.379   1.620   7.732  0.8691 -0.2667 -0.1157
   11MOL   H185 2405   6.340   1.475   7.649  3.2343 -0.3259  1.5783
   11MOL   H186 2406   6.470   1.591   7.591 -0.0960  0.4835 -0.4295
   11MOL   H187 2407   6.090   1.646   7.345 -0.6705  1.7396  1.2250
   11MOL   H188 2408   6.184   1.642   7.201  3.2177  0.3030  0.3779
   11MOL   C189 2409   6.166   1.841   7.311 -0.5901 -0.2040  0.1594
   11MOL   C190 2410   6.044   1.878   7.230 -0.0478 -0.0119  0.8583
   11MOL   O191 2411   6.039   1.849   7.112  0.1435  0.7630  0.3935
   11MOL   C192 2412   5.919   1.925   7.301  0.5341  0.0644 -0.7206
   11MOL   C193 2413   6.281   1.923   7.246 -0.0683  0.3014 -0.3743
   11MOL   H194 2414   6.145   1.876   7.412  0.7838 -1.5336  0.9153
   11MOL   H195 2415   5.870   1.999   7.237  1.2711 -0.0688 -1.4517
   11MOL   H196 2416   5.860   1.834   7.316  2.1700 -0.8199  0.4919
   11MOL   H197 2417   5.950   1.969   7.395  1.4537  0.4172 -1.1751
   11MOL   H198 2418   6.272   1.923   7.137 -1.2193 -2.5450 -0.3095
   11MOL   H199 2419   6.375   1.870   7.261  0.0613  0.2615 -1.2915
   11MOL   C200 2420   6.310   2.067   7.303 -0.1995  0.4112 -0.1165
   11MOL   C201 2421   6.223   2.182   7.258  0.0021  0.0005  0.1305
   11MOL   O202 2422   6.188   2.192   7.140  0.0568 -0.9286  0.2194
   11MOL   C203 2423   6.196   2.288   7.358  0.5173  0.6405  0.2715
   11MOL   C204 2424   6.457   2.104   7.261  0.4048 -0.3288 -0.3948
   11MOL   H205 2425   6.307   2.068   7.412  0.6573  0.2171 -0.0894
   11MOL   H206 2426   6.287   2.334   7.398  2.2574  0.0610 -2.8257
   11MOL   H207 2427   6.137   2.369   7.315  1.8516  0.2867 -2.3690
   11MOL   H208 2428   6.153   2.231   7.440  1.8908  1.1138  1.3497
   11MOL   H209 2429   6.473   2.212   7.268 -0.1611 -0.3307  1.1952
   11MOL   H210 2430   6.484   2.077   7.159 -0.8321  0.3769 -0.9167
   11MOL   C211 2431   6.558   2.053   7.366  0.0036 -0.2136 -0.5010
   11MOL   C212 2432   6.536   2.120   7.505  0.5399  0.0092 -0.4741
   11MOL   O213 2433   6.562   2.240   7.522  0.1343 -0.1881 -0.6696
   11MOL   C214 2434   6.504   2.040   7.630 -0.4271  0.4383  0.2574
   11MOL   C215 2435   6.702   2.079   7.311 -0.1014  0.6764  0.1902
   11MOL   H216 2436   6.542   1.948   7.390  0.6078 -0.6034 -1.7887
   11MOL   H217 2437   6.472   1.939   7.604 -1.4644  1.1733 -1.4029
   11MOL   H218 2438   6.597   2.033   7.686 -0.8750 -1.1627  0.8342
   11MOL   H219 2439   6.425   2.088   7.686 -1.5227  0.0215 -0.9079
   11MOL   H220 2440   6.736   2.007   7.237 -1.1085  2.5875 -2.2008
   11MOL   H221 2441   6.773   2.062   7.392 -0.4260 -0.0562  0.3261
   11MOL   H222 2442   6.716   2.183   7.279 -1.9404  0.7005 -0.5771
   12MOL     C1 2443   5.941   7.346   5.657 -0.6016 -0.4323 -0.2059
   12MOL     C2 2444   5.847   7.403   5.770  0.0622 -1.0835  0.0320
   12MOL     O3 2445   5.878   7.501   5.841  0.4840  0.2047  0.0444
   12MOL     C4 2446   5.713   7.343   5.799  0.8134 -0.1379  0.0627
   12MOL     C5 2447   6.079   7.319   5.719  0.6189 -0.1272 -0.2653
   12MOL     H6 2448   5.893   7.256   5.617 -0.3934 -0.4252 -0.4700
   12MOL     H7 2449   5.690   7.341   5.906  2.1046  2.5170  0.4294
   12MOL     H8 2450   5.626   7.384   5.747  1.3932 -1.3928 -1.9239
   12MOL     H9 2451   5.721   7.240   5.763 -0.7899  0.2571 -1.5109
   12MOL    H10 2452   6.116   7.250   5.643  0.6900 -1.9004  1.3435
   12MOL    H11 2453   6.065   7.265   5.813  0.1769  0.2802 -0.0910
   12MOL    H12 2454   5.944   7.421   5.578 -0.4110 -0.3003 -0.0705
   12MOL    C13 2455   6.184   7.428   5.742 -0.7659  0.4875  0.0370
   12MOL    C14 2456   6.256   7.474   5.613 -0.0203 -0.1251  0.5700
   12MOL    O15 2457   6.306   7.389   5.540 -0.4309  0.0624 -0.1990
   12MOL    C16 2458   6.273   7.625   5.587  0.2251  0.4439  0.2989
   12MOL    C17 2459   6.287   7.372   5.843 -0.5201 -0.3811 -0.4247
   12MOL    H18 2460   6.138   7.520   5.778  0.2756  1.2162 -0.4980
   12MOL    H19 2461   6.174   7.669   5.606 -0.1669 -0.3435  0.0895
   12MOL    H20 2462   6.353   7.664   5.650  0.8277 -1.2742  0.6231
   12MOL    H21 2463   6.302   7.644   5.484 -0.6952 -1.1490 -0.2618
   12MOL    H22 2464   6.363   7.316   5.788  0.5445  1.3129 -0.7291
   12MOL    H23 2465   6.233   7.313   5.917 -1.1086  2.3015  1.3230
   12MOL    C24 2466   6.366   7.473   5.930  0.3369 -0.1893 -0.2657
   12MOL    C25 2467   6.503   7.412   5.966  0.3920  0.1651  0.9026
   12MOL    O26 2468   6.527   7.371   6.081 -0.7447 -0.1314  0.4128
   12MOL    C27 2469   6.603   7.396   5.851 -0.2874  0.4459  0.1931
   12MOL    C28 2470   6.285   7.504   6.056  0.0360  0.1223 -0.4229
   12MOL    H29 2471   6.392   7.565   5.878 -1.7207  1.3751  1.3954
   12MOL    H30 2472   6.597   7.455   5.760 -1.7366 -0.7097 -0.4812
   12MOL    H31 2473   6.704   7.412   5.890  0.7787 -0.6247 -2.0520
   12MOL    H32 2474   6.606   7.293   5.818 -0.7824  0.6902 -0.6189
   12MOL    H33 2475   6.274   7.409   6.108  1.2158 -0.2277 -0.7837
   12MOL    H34 2476   6.183   7.524   6.022  0.6700  0.7248 -2.0237
   12MOL    C35 2477   6.335   7.618   6.151 -0.2131 -1.0203 -0.0718
   12MOL    C36 2478   6.263   7.610   6.287 -0.1664  0.4548  0.5086
   12MOL    O37 2479   6.184   7.526   6.320  0.0446  0.1213 -0.0709
   12MOL    C38 2480   6.300   7.704   6.395 -0.6628 -0.6896 -0.3150
   12MOL    C39 2481   6.316   7.760   6.091  0.3314 -0.0167  0.2878
   12MOL    H40 2482   6.442   7.613   6.172  0.1222 -0.9995 -1.6747
   12MOL    H41 2483   6.309   7.807   6.362 -0.5474 -0.4232  0.5407
   12MOL    H42 2484   6.238   7.692   6.484  0.9887 -0.6914  0.8618
   12MOL    H43 2485   6.399   7.672   6.428 -0.3312 -0.9987 -1.5733
   12MOL    H44 2486   6.217   7.801   6.114 -0.1397 -2.0129  1.9632
   12MOL    H45 2487   6.313   7.739   5.984 -0.4124 -4.5910  1.1152
   12MOL    C46 2488   6.440   0.010   6.138  0.1485 -0.0987  0.1221
   12MOL    C47 2489   6.405   0.164   6.120 -0.0757 -0.2650  1.2283
   12MOL    O48 2490   6.471   0.245   6.055 -0.0671 -0.5007 -0.3502
   12MOL    C49 2491   6.287   0.216   6.198 -0.2862 -0.5807  0.1255
   12MOL    C50 2492   6.570   7.809   6.068 -0.0069 -0.1534 -0.0806
   12MOL    H51 2493   6.456   7.836   6.244  0.1910 -1.0391 -0.0166
   12MOL    H52 2494   6.205   0.245   6.131  0.3227  1.2886  0.1704
   12MOL    H53 2495   6.251   0.144   6.271 -0.1116 -2.1514 -1.2973
   12MOL    H54 2496   6.318   0.304   6.254 -1.5418  0.8387 -1.3556
   12MOL    H55 2497   6.563   7.831   5.961 -0.9172  0.6371  0.1222
   12MOL    H56 2498   6.591   7.704   6.083  1.1155  0.0923  0.0753
   12MOL    C57 2499   6.694   0.040   6.125 -0.3787  0.2566  0.5810
   12MOL    C58 2500   6.820   0.025   6.036  0.1849 -0.4982 -0.0521
   12MOL    O59 2501   6.887   0.120   6.012 -0.8362 -0.9048  0.0486
   12MOL    C60 2502   6.850   7.728   5.975 -0.2761  0.0157 -0.1637
   12MOL    C61 2503   6.728   7.837   6.266 -0.0037  0.6250  0.1359
   12MOL    H62 2504   6.681   0.148   6.131 -2.3483  0.0674 -0.1128
   12MOL    H63 2505   6.958   7.728   5.957 -0.1431  0.3397  0.6029
   12MOL    H64 2506   6.837   7.646   6.046  0.3727  0.7237  0.7965
   12MOL    H65 2507   6.795   7.710   5.883 -0.9901 -1.5474  0.5440
   12MOL    H66 2508   6.754   7.733   6.248 -1.3481  0.1962  0.6761
   12MOL    H67 2509   6.640   7.821   6.328  0.5877 -1.4000  0.4966
   12MOL    C68 2510   6.840   0.066   6.348 -0.2244  0.0899 -0.0218
   12MOL    C69 2511   6.885   7.819   6.467  0.0306  0.8416 -0.2320
   12MOL    O70 2512   6.892   0.025   6.579  0.0708 -0.1997  0.4520
   12MOL    C71 2513   6.920   7.670   6.448  0.2854 -0.8767 -0.3507
   12MOL    C72 2514   6.777   0.207   6.386  0.3339 -0.0909  0.3830
   12MOL    H73 2515   6.931   0.074   6.290 -0.6490  0.0941 -0.6893
   12MOL    H74 2516   6.966   7.658   6.350  1.4317 -0.8312  0.1722
   12MOL    H75 2517   6.990   7.642   6.526  1.9714  0.3885 -1.3873
   12MOL    H76 2518   6.826   7.614   6.448 -0.7319  0.7979 -0.3926
   12MOL    H77 2519   6.719   0.194   6.477  0.1838  2.1455  0.6504
   12MOL    H78 2520   6.710   0.248   6.310 -0.4002 -1.2676  0.3900
   12MOL    C79 2521   6.875   0.327   6.429  0.2628 -0.1026 -0.0087
   12MOL    C80 2522   6.999   0.324   6.335  0.0721  0.6309 -0.1083
   12MOL    O81 2523   7.107   0.292   6.388 -0.0542  1.0007  0.9951
   12MOL    C82 2524   6.990   0.374   6.191 -0.1314 -0.7085 -0.1510
   12MOL    C83 2525   6.908   0.327   6.574 -0.2572  0.4502 -0.6971
   12MOL    H84 2526   6.824   0.418   6.399 -1.3578 -0.6696  1.0002
   12MOL    H85 2527   7.047   0.299   6.136 -0.4070  0.1361 -1.6030
   12MOL    H86 2528   6.887   0.378   6.156 -0.7812 -0.7261  1.6759
   12MOL    H87 2529   7.022   0.477   6.177 -2.8275 -0.1564 -2.7998
   12MOL    H88 2530   6.971   0.240   6.597  1.1072  1.5369 -0.2743
   12MOL    H89 2531   6.821   0.311   6.637 -1.7291  1.0054 -2.5523
   12MOL    C90 2532   6.990   0.447   6.617 -0.5186 -0.8359  0.1601
   12MOL    C91 2533   7.083   0.415   6.735 -0.1569 -0.2407  0.0726
   12MOL    O92 2534   7.059   0.457   6.849  0.5249 -0.0626  0.2446
   12MOL    C93 2535   7.210   0.336   6.709  0.1963  0.3021  0.3619
   12MOL    C94 2536   6.908   0.576   6.633 -0.2487 -0.6772  0.0213
   12MOL    H95 2537   7.062   0.469   6.539 -1.9484  0.5486 -0.8105
   12MOL    H96 2538   7.261   0.349   6.614  1.7079 -1.6395  0.8970
   12MOL    H97 2539   7.281   0.354   6.790  0.1355 -0.6098  0.6277
   12MOL    H98 2540   7.189   0.230   6.717 -0.2617  0.5433  2.9049
   12MOL    H99 2541   6.872   0.601   6.733  0.9310 -0.8448  0.4950
   12MOL   H100 2542   6.811   0.546   6.594  0.7070 -1.6683 -1.6459
   12MOL   C101 2543   6.968   0.700   6.559 -0.4903 -0.1970 -0.6540
   12MOL   C102 2544   7.091   0.764   6.634 -0.1479 -0.0463 -0.4665
   12MOL   O103 2545   7.203   0.746   6.587  0.2180 -0.1244  0.6814
   12MOL   C104 2546   7.070   0.847   6.756  0.5924 -0.1808 -0.0997
   12MOL   C105 2547   6.860   0.806   6.537  0.1146  0.4172  0.1063
   12MOL   H106 2548   6.995   0.667   6.458 -1.5528  0.8764 -1.3076
   12MOL   H107 2549   6.986   0.808   6.814  0.7098 -0.7079 -0.2807
   12MOL   H108 2550   7.162   0.856   6.814 -0.8140  0.1588  2.1452
   12MOL   H109 2551   7.037   0.948   6.732 -0.4568 -0.4533  0.1783
   12MOL   H110 2552   6.826   0.837   6.636  1.8274  2.9286 -0.0347
   12MOL   H111 2553   6.770   0.751   6.510  0.3307 -1.0637  2.2109
   12MOL   C112 2554   6.888   0.918   6.433  0.6757 -0.7100 -0.3204
   12MOL   C113 2555   6.863   1.059   6.504 -0.3964  0.0955 -0.0048
   12MOL   O114 2556   6.749   1.097   6.536  0.0585  0.8581 -0.0851
   12MOL   C115 2557   6.978   1.155   6.506  0.6118 -0.0821 -0.7813
   12MOL   C116 2558   6.809   0.894   6.301  0.3641  0.2717 -0.4585
   12MOL   H117 2559   6.996   0.909   6.415  0.4461 -1.8863 -1.1817
   12MOL   H118 2560   7.050   1.129   6.429 -1.6715 -3.7412 -1.8192
   12MOL   H119 2561   6.942   1.258   6.509  0.0886 -0.3046  1.5345
   12MOL   H120 2562   7.032   1.131   6.598  1.2318 -0.1760 -1.1686
   12MOL   H121 2563   6.847   0.972   6.235 -1.2300  0.7588 -0.8306
   12MOL   H122 2564   6.704   0.916   6.320  0.4046 -0.1612  0.3139
   12MOL   C123 2565   6.830   0.767   6.217 -0.1938 -0.6252 -0.1232
   12MOL   C124 2566   6.972   0.766   6.159  0.5042  0.2105  0.5045
   12MOL   O125 2567   7.067   0.746   6.238  0.2341  0.0344  0.1516
   12MOL   C126 2568   7.004   0.781   6.011 -0.0207 -0.3919 -0.4738
   12MOL   C127 2569   6.726   0.749   6.104 -1.3708  0.3034 -0.7296
   12MOL   H128 2570   6.821   0.676   6.276  1.0923 -0.8705 -0.2983
   12MOL   H129 2571   7.103   0.825   6.011  0.1107 -0.6857 -0.3060
   12MOL   H130 2572   6.995   0.689   5.953  1.6663 -1.1813  0.4763
   12MOL   H131 2573   6.952   0.852   5.947 -1.4073 -0.8385  0.1227
   12MOL   H132 2574   6.754   0.664   6.041 -1.2934 -0.9145  0.9086
   12MOL   H133 2575   6.732   0.837   6.040 -2.7109  0.3875 -0.7541
   12MOL   C134 2576   6.579   0.721   6.157  0.3576  0.2079 -0.0402
   12MOL   C135 2577   6.561   0.589   6.230 -0.2979  0.1391  0.0349
   12MOL   O136 2578   6.616   0.486   6.185  0.1268  0.0445  0.2682
   12MOL   C137 2579   6.470   0.580   6.358  0.1989 -0.0782  0.6070
   12MOL   C138 2580   6.480   0.728   6.034 -0.8561 -0.6538  0.1756
   12MOL   H139 2581   6.544   0.805   6.218 -2.3669 -0.8087 -0.1265
   12MOL   H140 2582   6.446   0.680   6.394 -0.7425  0.5792 -1.7966
   12MOL   H141 2583   6.378   0.525   6.339 -0.6574  1.4210  0.3027
   12MOL   H142 2584   6.521   0.526   6.438 -0.9082 -0.5550  1.0018
   12MOL   H143 2585   6.473   0.631   5.986  0.4672 -0.1925 -1.0057
   12MOL   H144 2586   6.517   0.790   5.952  1.0436 -1.1518  0.6284
   12MOL   C145 2587   6.328   0.777   6.056  0.2409  0.9789 -0.3492
   12MOL   C146 2588   6.230   0.666   5.997 -0.1358  0.6191  0.1654
   12MOL   O147 2589   6.163   0.691   5.895 -0.2772 -0.2242  0.0882
   12MOL   C148 2590   6.228   0.537   6.061 -0.0771  0.3439 -0.2803
   12MOL   C149 2591   6.302   0.921   5.993  0.5833  0.1363 -0.4135
   12MOL   H150 2592   6.325   0.783   6.165 -2.7403 -2.9362 -0.0884
   12MOL   H151 2593   6.239   0.562   6.167 -1.2247  1.4244 -0.4052
   12MOL   H152 2594   6.129   0.491   6.049 -0.1795  0.2020  1.0384
   12MOL   H153 2595   6.289   0.462   6.010 -0.1784 -0.7343  1.1369
   12MOL   H154 2596   6.194   0.932   5.997  0.4995 -0.3964 -1.1019
   12MOL   H155 2597   6.326   0.920   5.887  0.1815  0.7337 -0.5073
   12MOL   C156 2598   6.382   1.031   6.078  0.1128 -0.0293  0.3438
   12MOL   C157 2599   6.348   1.036   6.224 -0.5717 -0.0790 -0.1843
   12MOL   O158 2600   6.422   0.984   6.302 -0.6719 -0.2085  0.3601
   12MOL   C159 2601   6.232   1.115   6.274 -0.0098 -0.0711 -0.6229
   12MOL   C160 2602   6.397   1.166   6.008  0.4043  0.5640 -0.5044
   12MOL   H161 2603   6.484   0.994   6.066  0.7901  1.4883  1.3105
   12MOL   H162 2604   6.133   1.076   6.247 -0.0921 -0.6071  0.4145
   12MOL   H163 2605   6.250   1.112   6.381  0.6460 -1.8978 -0.7633
   12MOL   H164 2606   6.251   1.218   6.243  0.1725 -0.1712 -0.8452
   12MOL   H165 2607   6.310   1.224   6.040  0.3445 -0.0800  0.5043
   12MOL   H166 2608   6.379   1.146   5.902 -1.2318 -0.7736  0.0040
   12MOL   C167 2609   6.532   1.234   6.026 -0.0508  0.6706 -0.2333
   12MOL   C168 2610   6.557   1.295   6.172 -0.4254 -0.4851  0.0434
   12MOL   O169 2611   6.484   1.385   6.218  0.5628  0.7931 -0.0454
   12MOL   C170 2612   6.680   1.250   6.248  0.1098 -0.0152 -0.4005
   12MOL   C171 2613   6.581   1.325   5.911 -0.8806 -0.4123 -1.0324
   12MOL   H172 2614   6.606   1.154   6.028 -0.4394  0.3181  0.3195
   12MOL   H173 2615   6.661   1.186   6.334 -1.0550  1.3756  0.4091
   12MOL   H174 2616   6.739   1.188   6.181 -0.9528 -0.5629 -0.8532
   12MOL   H175 2617   6.734   1.337   6.285  0.7471 -0.1027 -1.1209
   12MOL   H176 2618   6.686   1.345   5.935 -1.2907  2.0851 -1.1928
   12MOL   H177 2619   6.520   1.413   5.929 -1.4716 -0.1769 -3.8268
   12MOL   C178 2620   6.571   1.261   5.767  0.3200  0.1675 -0.7141
   12MOL   C179 2621   6.635   1.120   5.761 -0.3237 -0.4533 -0.8131
   12MOL   O180 2622   6.746   1.099   5.817  0.1053  0.2611  0.3090
   12MOL   C181 2623   6.579   1.012   5.677 -0.5424  0.1392 -0.8164
   12MOL   C182 2624   6.645   1.359   5.674 -0.5182 -0.3298 -0.0365
   12MOL   H183 2625   6.463   1.258   5.753  0.2401  1.2470 -0.3849
   12MOL   H184 2626   6.635   0.995   5.585  1.6218 -0.1275  0.5283
   12MOL   H185 2627   6.591   0.919   5.733  1.4616  0.7323 -0.2254
   12MOL   H186 2628   6.474   1.035   5.659 -0.3265 -0.0422 -2.3777
   12MOL   H187 2629   6.744   1.363   5.719 -0.8328  1.0815  0.5904
   12MOL   H188 2630   6.606   1.458   5.698  1.5051  0.1080  1.6197
   12MOL   C189 2631   6.671   1.319   5.524  0.7869  0.3405  0.7992
   12MOL   C190 2632   6.804   1.255   5.488 -0.5967 -0.3234 -0.2231
   12MOL   O191 2633   6.810   1.139   5.456  0.0249  0.0515  0.1667
   12MOL   C192 2634   6.931   1.334   5.489 -0.0126  0.2125  0.3838
   12MOL   C193 2635   6.635   1.432   5.430  0.1945  0.6910  0.4095
   12MOL   H194 2636   6.596   1.244   5.498  0.7548  1.5874 -3.1062
   12MOL   H195 2637   6.950   1.368   5.591 -2.0409  0.2894  0.7475
   12MOL   H196 2638   7.014   1.275   5.451 -0.2679  0.3576 -0.3946
   12MOL   H197 2639   6.918   1.423   5.428  0.7982 -0.1677 -0.3545
   12MOL   H198 2640   6.708   1.512   5.444  0.8507 -0.0234  1.1061
   12MOL   H199 2641   6.533   1.464   5.452 -0.7868 -1.8600 -0.2132
   12MOL   C200 2642   6.628   1.404   5.280 -0.4689  0.2116 -0.1515
   12MOL   C201 2643   6.601   1.534   5.211  0.6607 -0.1984  0.0568
   12MOL   O202 2644   6.489   1.582   5.200 -0.1277  0.2903 -0.1946
   12MOL   C203 2645   6.720   1.604   5.158 -0.2379  0.1412 -0.6083
   12MOL   C204 2646   6.530   1.287   5.241 -0.2224 -0.0619 -0.3999
   12MOL   H205 2647   6.733   1.379   5.262 -0.6312 -0.4892 -0.1325
   12MOL   H206 2648   6.794   1.547   5.101  1.3239  2.1272 -0.6269
   12MOL   H207 2649   6.684   1.675   5.084 -2.2490 -1.1321 -0.8865
   12MOL   H208 2650   6.770   1.647   5.245 -2.6176  0.5185  0.6050
   12MOL   H209 2651   6.429   1.311   5.271 -0.0807 -0.3613  0.3168
   12MOL   H210 2652   6.563   1.203   5.303  0.7506  0.7387  0.1784
   12MOL   C211 2653   6.556   1.253   5.092 -0.0681 -0.5306  0.4722
   12MOL   C212 2654   6.428   1.246   5.011  0.4401  0.3009  0.2061
   12MOL   O213 2655   6.351   1.148   5.023  0.2809 -0.4397  0.2925
   12MOL   C214 2656   6.402   1.355   4.913  0.0371  0.0494 -0.2398
   12MOL   C215 2657   6.627   1.113   5.081  0.3542 -0.1129 -0.3589
   12MOL   H216 2658   6.615   1.330   5.042 -0.5034  0.4118  1.3849
   12MOL   H217 2659   6.439   1.444   4.964 -0.8070  0.7101 -0.7785
   12MOL   H218 2660   6.463   1.340   4.824  1.8895  0.8162  0.8710
   12MOL   H219 2661   6.297   1.367   4.888  0.4041  1.2285 -1.2771
   12MOL   H220 2662   6.624   1.085   4.976 -2.2297  1.5917 -0.7942
   12MOL   H221 2663   6.583   1.032   5.139 -2.2435  0.9730 -0.7636
   12MOL   H222 2664   6.733   1.132   5.102  0.5193  1.9908 -2.8508
   13MOL     C1 2665   3.376   6.125   0.356  0.5786  0.8172 -0.4505
   13MOL     C2 2666   3.329   6.221   0.248  0.2508 -0.0803  0.5348
   13MOL     O3 2667   3.401   6.287   0.181 -0.6281 -0.4294  0.5647
   13MOL     C4 2668   3.179   6.207   0.222  0.2307 -0.1912 -0.3771
   13MOL     C5 2669   3.411   5.985   0.303 -0.1404  0.0641  0.1941
   13MOL     H6 2670   3.456   6.171   0.415  0.8672 -0.5325  0.2187
   13MOL     H7 2671   3.158   6.161   0.126 -2.7728  0.7223 -0.2164
   13MOL     H8 2672   3.129   6.137   0.289 -0.3407  1.1967  0.6690
   13MOL     H9 2673   3.129   6.304   0.228  0.8758  0.0987  0.6164
   13MOL    H10 2674   3.316   5.939   0.277 -0.2964 -1.9293  3.8447
   13MOL    H11 2675   3.450   5.922   0.383 -0.3472 -0.4885 -0.1378
   13MOL    H12 2676   3.295   6.114   0.429 -0.2114  0.2085 -1.4050
   13MOL    C13 2677   3.511   5.973   0.183  1.1005 -0.1849 -0.0030
   13MOL    C14 2678   3.464   5.877   0.073  0.3786 -0.2442 -0.6558
   13MOL    O15 2679   3.504   5.759   0.072 -0.1175 -0.1243 -0.0523
   13MOL    C16 2680   3.376   5.925   7.807  0.3612 -0.4167  0.6690
   13MOL    C17 2681   3.652   5.927   0.235 -0.0328 -0.3634  0.2872
   13MOL    H18 2682   3.523   6.068   0.133  0.8541  0.1563  0.5822
   13MOL    H19 2683   3.301   5.992   0.007 -1.0821 -1.4870 -0.1465
   13MOL    H20 2684   3.439   5.972   7.731 -1.5035 -0.0384 -0.6927
   13MOL    H21 2685   3.325   5.845   7.753  0.1371  1.1454 -1.4826
   13MOL    H22 2686   3.663   5.822   0.259  0.2076 -0.9401 -2.1712
   13MOL    H23 2687   3.667   5.981   0.328  1.0645  0.4058 -0.3206
   13MOL    C24 2688   3.777   5.970   0.154 -0.0395  0.3501 -0.1687
   13MOL    C25 2689   3.772   6.120   0.112 -0.4827 -0.7343 -1.0395
   13MOL    O26 2690   3.747   6.152   7.834 -0.6378  0.5342  0.6934
   13MOL    C27 2691   3.809   6.214   0.225  0.2416 -0.2320  0.3352
   13MOL    C28 2692   3.807   5.856   0.042  0.6636  0.1578 -0.2854
   13MOL    H29 2693   3.866   5.965   0.217  1.6771 -1.5651 -2.6418
   13MOL    H30 2694   3.900   6.274   0.216  1.1556 -1.8010 -1.1780
   13MOL    H31 2695   3.726   6.284   0.217 -0.5149 -1.1317  0.2845
   13MOL    H32 2696   3.811   6.161   0.320  2.6379  1.9414  1.5653
   13MOL    H33 2697   3.722   5.863   7.816  1.9092  1.0323 -1.8015
   13MOL    H34 2698   3.823   5.759   0.091  1.6076 -0.1493 -1.1649
   13MOL    C35 2699   3.922   5.883   7.782  0.1908  0.8061  0.1439
   13MOL    C36 2700   3.924   5.770   7.679 -0.1827 -0.0285  0.9925
   13MOL    O37 2701   3.904   5.653   7.709 -0.3336 -0.1370  0.7222
   13MOL    C38 2702   3.949   5.795   7.533 -0.3107 -0.2257 -0.4114
   13MOL    C39 2703   4.065   5.889   0.014  0.5716  0.3873 -0.2446
   13MOL    H40 2704   3.891   5.974   7.731 -1.1467 -0.5121 -1.4413
   13MOL    H41 2705   3.994   5.710   7.483 -1.4368 -0.9526 -0.1989
   13MOL    H42 2706   3.861   5.829   7.479  0.9994  1.2750 -1.6371
   13MOL    H43 2707   4.028   5.868   7.516 -0.0380 -0.5985 -0.7149
   13MOL    H44 2708   4.072   5.796   0.070 -0.6189 -0.3949 -1.3546
   13MOL    H45 2709   4.035   5.956   0.094 -0.5523 -1.2567  0.7322
   13MOL    C46 2710   4.185   5.970   7.792 -0.6717 -0.0227 -0.2493
   13MOL    C47 2711   4.138   6.087   7.705  0.0356 -1.0279 -0.9309
   13MOL    O48 2712   4.105   6.068   7.588  0.1922 -0.3105  0.3154
   13MOL    C49 2713   4.116   6.224   7.759 -0.0923  0.1056  0.2053
   13MOL    C50 2714   4.276   5.879   7.706 -0.1602  0.0841  0.2625
   13MOL    H51 2715   4.236   6.011   0.038 -0.9176 -1.9887  0.8297
   13MOL    H52 2716   4.015   6.243   7.797  0.0773 -0.2682  0.8567
   13MOL    H53 2717   4.185   6.248   7.839  1.1189  0.6562 -0.9918
   13MOL    H54 2718   4.126   6.293   7.675 -0.5486  1.8227  1.5273
   13MOL    H55 2719   4.349   5.922   7.638  1.5416 -1.6549  0.9221
   13MOL    H56 2720   4.218   5.818   7.637  1.2924 -0.1016 -0.8241
   13MOL    C57 2721   4.342   5.765   7.787 -0.0275 -0.0171  0.0710
   13MOL    C58 2722   4.437   5.814   0.054  0.5747 -0.1406 -0.8317
   13MOL    O59 2723   4.507   5.918   0.046 -0.0564 -0.0641  0.1518
   13MOL    C60 2724   4.445   5.720   0.176  0.3764  0.4251 -0.3823
   13MOL    C61 2725   4.426   5.675   7.699 -0.0987  0.6416  0.1555
   13MOL    H62 2726   4.268   5.699   7.831  1.5479 -0.9560  1.3642
   13MOL    H63 2727   4.443   5.782   0.266 -2.8795 -0.8733  0.5371
   13MOL    H64 2728   4.354   5.662   0.187  1.3312 -0.8599  0.7855
   13MOL    H65 2729   4.534   5.658   0.170 -1.0895 -1.8346  0.5567
   13MOL    H66 2730   4.479   5.609   7.767  2.8822  0.6424 -2.0373
   13MOL    H67 2731   4.509   5.724   7.648  0.8520  0.0998  1.1603
   13MOL    C68 2732   4.349   5.583   7.600  0.0506  0.3876  0.1454
   13MOL    C69 2733   4.256   5.477   7.674  0.3991  0.4326  0.8902
   13MOL    O70 2734   4.285   5.430   7.784  0.8504 -0.3014  0.4362
   13MOL    C71 2735   4.135   5.434   7.595 -0.3747  0.4278 -0.0153
   13MOL    C72 2736   4.436   5.518   7.488 -0.5462 -0.0606  0.2597
   13MOL    H73 2737   4.284   5.639   7.533 -2.0204  0.0212  1.8037
   13MOL    H74 2738   4.149   5.465   7.491 -1.0049  3.5099  0.7565
   13MOL    H75 2739   4.105   5.330   7.598 -0.7085  0.4790 -1.3031
   13MOL    H76 2740   4.038   5.480   7.616 -0.4510  1.0954 -1.7144
   13MOL    H77 2741   4.507   5.593   7.453 -2.0918  0.4846 -1.7782
   13MOL    H78 2742   4.369   5.509   7.403  1.3499 -0.3245 -1.2534
   13MOL    C79 2743   4.505   5.383   7.519 -0.5095  0.2502  0.3492
   13MOL    C80 2744   4.604   5.395   7.638 -0.1462  0.1133  0.2327
   13MOL    O81 2745   4.700   5.469   7.640 -0.1990  0.0351 -0.1062
   13MOL    C82 2746   4.577   5.309   7.758  0.5857 -0.3904 -0.1445
   13MOL    C83 2747   4.568   5.308   7.403  0.2980 -0.0039  0.1757
   13MOL    H84 2748   4.422   5.318   7.545 -0.6921 -0.3146 -1.5562
   13MOL    H85 2749   4.494   5.238   7.755  0.5326 -0.3053 -0.7663
   13MOL    H86 2750   4.672   5.271   7.794  1.1040  2.1543  1.2585
   13MOL    H87 2751   4.550   5.383   7.833 -0.2417 -1.0753  0.2453
   13MOL    H88 2752   4.501   5.322   7.319 -1.7147 -1.6297  1.4581
   13MOL    H89 2753   4.555   5.201   7.419  2.2929 -0.2820  0.0852
   13MOL    C90 2754   4.720   5.338   7.365  0.3332  0.6943  0.1823
   13MOL    C91 2755   4.730   5.471   7.298 -0.5124  1.1000 -0.0698
   13MOL    O92 2756   4.642   5.519   7.230  0.0262  0.0439  0.0700
   13MOL    C93 2757   4.857   5.548   7.325  0.3656 -1.2637 -0.5207
   13MOL    C94 2758   4.783   5.225   7.280  0.4015  0.5124  0.8483
   13MOL    H95 2759   4.777   5.334   7.458  0.3025  0.9134  0.2112
   13MOL    H96 2760   4.947   5.501   7.285  0.1318 -1.8385 -0.3685
   13MOL    H97 2761   4.859   5.649   7.283 -2.3644 -1.4705 -1.2242
   13MOL    H98 2762   4.861   5.553   7.434 -2.0049 -2.3669 -0.3518
   13MOL    H99 2763   4.795   5.145   7.354  1.7951  0.4793  0.5930
   13MOL   H100 2764   4.882   5.254   7.247 -0.0780  1.0480 -0.1305
   13MOL   C101 2765   4.713   5.172   7.149  0.1585 -0.3963  0.7658
   13MOL   C102 2766   4.734   5.016   7.141 -0.2909  0.2745 -0.2146
   13MOL   O103 2767   4.843   4.979   7.095 -0.2114 -0.7267 -0.2687
   13MOL   C104 2768   4.638   4.918   7.198 -0.0934  0.1092 -0.7812
   13MOL   C105 2769   4.780   5.249   7.028  0.5223  0.1299  0.4473
   13MOL   H106 2770   4.605   5.188   7.150  0.1200 -0.1589 -2.1581
   13MOL   H107 2771   4.599   4.879   7.105  3.1412 -0.0849 -2.1153
   13MOL   H108 2772   4.696   4.846   7.256 -2.1188  0.6296  2.0464
   13MOL   H109 2773   4.553   4.957   7.255  0.8575  0.5892  0.3331
   13MOL   H110 2774   4.887   5.233   7.033  0.5561  0.3049  0.2931
   13MOL   H111 2775   4.756   5.353   7.048 -0.2178 -0.4781  2.8668
   13MOL   C112 2776   4.726   5.203   6.883  0.1322 -0.0822 -0.2096
   13MOL   C113 2777   4.820   5.270   6.786 -0.7987 -0.1564  0.5766
   13MOL   O114 2778   4.786   5.373   6.723  0.0729 -0.0415  0.0076
   13MOL   C115 2779   4.958   5.209   6.775 -0.6381 -0.1872 -0.6841
   13MOL   C116 2780   4.578   5.234   6.850  0.7747  0.4233  0.2821
   13MOL   H117 2781   4.753   5.098   6.880  0.7851  0.0799 -0.1245
   13MOL   H118 2782   5.022   5.233   6.860 -1.6776  0.1525  0.0119
   13MOL   H119 2783   4.941   5.102   6.770  1.6678 -0.6886  1.2351
   13MOL   H120 2784   5.009   5.237   6.682  2.7939 -1.0982  0.8436
   13MOL   H121 2785   4.546   5.337   6.868 -0.5695 -0.0235  0.5468
   13MOL   H122 2786   4.526   5.180   6.930 -0.1856 -0.7999 -1.1493
   13MOL   C123 2787   4.543   5.172   6.714 -0.1026 -0.4480  0.8209
   13MOL   C124 2788   4.453   5.263   6.635  0.0322  0.2303  0.0379
   13MOL   O125 2789   4.330   5.246   6.634 -0.2876  0.1358  0.6205
   13MOL   C126 2790   4.511   5.369   6.540  0.1493  0.6984 -0.2227
   13MOL   C127 2791   4.466   5.039   6.726  0.8858 -0.4200 -0.0838
   13MOL   H128 2792   4.633   5.176   6.653 -0.1288 -0.0710  0.8093
   13MOL   H129 2793   4.594   5.410   6.597 -2.0701  2.1934  2.0428
   13MOL   H130 2794   4.553   5.317   6.453  1.1391 -0.9254  1.1951
   13MOL   H131 2795   4.431   5.437   6.510  0.6587  1.6343  0.5310
   13MOL   H132 2796   4.442   5.002   6.627 -0.3710 -0.0439  0.0693
   13MOL   H133 2797   4.372   5.060   6.779  1.7099  1.0615  0.8358
   13MOL   C134 2798   4.550   4.936   6.809 -1.0018 -0.4323  0.6082
   13MOL   C135 2799   4.665   4.869   6.728  0.0222  0.3131 -0.9538
   13MOL   O136 2800   4.665   4.869   6.606 -0.1666  0.0300  0.1067
   13MOL   C137 2801   4.778   4.809   6.807  0.4574  0.1028  0.6118
   13MOL   C138 2802   4.455   4.819   6.850 -0.1104  0.0562 -0.7505
   13MOL   H139 2803   4.593   4.972   6.902  0.6623 -1.9439  0.4602
   13MOL   H140 2804   4.879   4.793   6.768  0.0088  1.2964 -1.1196
   13MOL   H141 2805   4.789   4.846   6.909 -0.3053  1.0901  0.3467
   13MOL   H142 2806   4.746   4.705   6.817  0.9998  0.0421  1.8575
   13MOL   H143 2807   4.378   4.848   6.921  1.6869  2.8291  0.1464
   13MOL   H144 2808   4.523   4.757   6.908 -0.0162  0.9103  0.0634
   13MOL   C145 2809   4.390   4.748   6.730 -0.9049 -0.1540 -0.6730
   13MOL   C146 2810   4.233   4.743   6.754 -0.2321 -0.5637 -0.4983
   13MOL   O147 2811   4.182   4.635   6.784  0.3068 -0.1051  0.3246
   13MOL   C148 2812   4.153   4.878   6.761 -0.3791 -0.0505 -0.1473
   13MOL   C149 2813   4.443   4.601   6.716 -0.6299  0.0310  0.0496
   13MOL   H150 2814   4.410   4.800   6.636  2.1485 -0.5672 -0.2903
   13MOL   H151 2815   4.182   4.940   6.676  0.1287  0.9654  0.7517
   13MOL   H152 2816   4.047   4.852   6.760 -0.3630 -0.1548 -1.9138
   13MOL   H153 2817   4.181   4.933   6.850  0.6092 -0.1052 -0.4093
   13MOL   H154 2818   4.399   4.533   6.790  1.3626 -1.1953  0.1648
   13MOL   H155 2819   4.551   4.600   6.731 -0.4710 -0.0857 -1.0343
   13MOL   C156 2820   4.411   4.548   6.579  1.1008  0.4965 -0.5781
   13MOL   C157 2821   4.390   4.402   6.585 -0.3808 -0.4061 -0.5750
   13MOL   O158 2822   4.480   4.321   6.590  0.3270  0.1623 -0.3559
   13MOL   C159 2823   4.254   4.341   6.575 -0.2423  0.0141  0.0784
   13MOL   C160 2824   4.520   4.596   6.475  0.0325  0.3894 -0.2445
   13MOL   H161 2825   4.310   4.583   6.558  0.3786  0.5492  2.6269
   13MOL   H162 2826   4.210   4.354   6.674 -0.5438 -1.5602  0.1661
   13MOL   H163 2827   4.175   4.389   6.518 -1.7853  0.4604  2.5163
   13MOL   H164 2828   4.257   4.236   6.545  1.7386 -0.0659  0.4926
   13MOL   H165 2829   4.619   4.582   6.518  0.1764  1.5560 -0.1732
   13MOL   H166 2830   4.514   4.704   6.464  1.4275  0.4728 -0.2837
   13MOL   C167 2831   4.509   4.525   6.333 -0.5443  0.5242  0.6955
   13MOL   C168 2832   4.623   4.576   6.244 -0.0472 -0.2692 -0.1677
   13MOL   O169 2833   4.603   4.664   6.164 -0.2562 -0.2247 -0.0224
   13MOL   C170 2834   4.768   4.529   6.255 -0.4064  0.1491  0.0516
   13MOL   C171 2835   4.369   4.538   6.272  0.4264 -0.2423 -0.2768
   13MOL   H172 2836   4.526   4.417   6.338 -0.9917  0.4754  1.1330
   13MOL   H173 2837   4.824   4.584   6.331 -1.6037 -2.1544  2.7208
   13MOL   H174 2838   4.783   4.424   6.281  1.3636 -0.0144 -1.5662
   13MOL   H175 2839   4.803   4.530   6.152  0.2724 -0.6239  0.2655
   13MOL   H176 2840   4.336   4.641   6.259  0.8031  0.5204  3.8592
   13MOL   H177 2841   4.295   4.508   6.346  1.0336 -0.2490  0.3416
   13MOL   C178 2842   4.336   4.449   6.149 -0.2228  0.1307  0.9049
   13MOL   C179 2843   4.257   4.527   6.045  0.4345  0.0287  0.4333
   13MOL   O180 2844   4.141   4.497   6.012  0.0544 -0.0980  1.0422
   13MOL   C181 2845   4.328   4.638   5.961  0.2279 -0.1265 -0.1523
   13MOL   C182 2846   4.272   4.309   6.193  0.7169  0.1201  0.1032
   13MOL   H183 2847   4.431   4.437   6.096 -1.1538 -1.3618 -0.4607
   13MOL   H184 2848   4.390   4.591   5.885 -1.1356 -1.9896 -0.1402
   13MOL   H185 2849   4.248   4.701   5.921  1.4967  0.3966 -1.8785
   13MOL   H186 2850   4.397   4.701   6.017 -1.0661 -0.0986  1.4896
   13MOL   H187 2851   4.174   4.334   6.233 -0.0682 -0.9410 -1.1352
   13MOL   H188 2852   4.320   4.283   6.287  0.6899  2.7704  0.8984
   13MOL   C189 2853   4.249   4.201   6.084  0.4895 -0.1451  0.2907
   13MOL   C190 2854   4.153   4.089   6.138 -0.4651 -0.6055  0.0373
   13MOL   O191 2855   4.131   4.073   6.254  0.3144 -0.8206 -0.6357
   13MOL   C192 2856   4.079   4.008   6.034  0.3890  0.1637  0.3030
   13MOL   C193 2857   4.376   4.144   6.008  0.7214 -0.2019 -0.1954
   13MOL   H194 2858   4.191   4.255   6.009 -1.4837 -1.2791  0.9643
   13MOL   H195 2859   4.070   3.900   6.050 -1.5440  0.4254  1.1390
   13MOL   H196 2860   3.983   4.057   6.017 -0.8424 -1.0385  3.4575
   13MOL   H197 2861   4.132   4.023   5.940 -1.8382  2.4089 -0.6430
   13MOL   H198 2862   4.436   4.229   5.977  0.7225  0.2794  1.1071
   13MOL   H199 2863   4.345   4.105   5.911 -0.5620  0.2238  0.0309
   13MOL   C200 2864   4.472   4.038   6.069  0.0818  0.0290  0.4193
   13MOL   C201 2865   4.539   4.091   6.191  0.2743  0.0064 -0.0301
   13MOL   O202 2866   4.618   4.183   6.179 -0.7598 -0.4770 -0.3821
   13MOL   C203 2867   4.524   4.028   6.326 -0.6921  0.1784 -0.0603
   13MOL   C204 2868   4.566   3.983   5.964 -0.1289  0.5329 -0.0049
   13MOL   H205 2869   4.408   3.963   6.115  0.0789  1.4718  2.9193
   13MOL   H206 2870   4.476   4.104   6.387 -1.1050 -2.2264  2.7164
   13MOL   H207 2871   4.476   3.930   6.322  1.2150 -0.7862 -0.2694
   13MOL   H208 2872   4.630   4.006   6.342 -1.0432 -0.7943  1.0682
   13MOL   H209 2873   4.668   4.002   5.996  0.3233 -0.1195 -1.0200
   13MOL   H210 2874   4.544   4.030   5.868  1.1217  1.1665  0.0119
   13MOL   C211 2875   4.564   3.821   5.943  0.3045 -0.2920 -0.3247
   13MOL   C212 2876   4.432   3.775   5.871  0.2195 -0.1800  0.3592
   13MOL   O213 2877   4.336   3.729   5.937  0.3761  0.1576 -0.0761
   13MOL   C214 2878   4.425   3.810   5.721  0.3759 -0.1340  0.3356
   13MOL   C215 2879   4.598   3.743   6.077 -0.0582  0.0333 -0.0816
   13MOL   H216 2880   4.648   3.799   5.877  0.7546 -3.7741  1.3007
   13MOL   H217 2881   4.507   3.776   5.658 -0.0386  0.5652 -0.6063
   13MOL   H218 2882   4.333   3.777   5.671  0.3902  0.0186  0.2097
   13MOL   H219 2883   4.423   3.919   5.717  1.3247 -0.1180  0.1162
   13MOL   H220 2884   4.508   3.716   6.133  1.1857 -0.8584  1.5120
   13MOL   H221 2885   4.662   3.792   6.150  0.7804 -2.3298  0.8320
   13MOL   H222 2886   4.642   3.648   6.048 -1.0247 -0.4489  0.0018
   14MOL     C1 2887   0.459   5.037   4.660 -0.4267 -0.5397 -0.1191
   14MOL     C2 2888   0.432   5.030   4.509  1.0229  0.1771  0.1804
   14MOL     O3 2889   0.317   5.030   4.459  0.9103 -0.3070  0.0096
   14MOL     C4 2890   0.541   5.041   4.413 -0.2057 -0.4561  0.5022
   14MOL     C5 2891   0.354   4.959   4.743 -0.0637  0.5081  0.5887
   14MOL     H6 2892   0.560   4.999   4.674 -0.3319 -0.6342 -1.0728
   14MOL     H7 2893   0.641   5.014   4.448 -0.6486 -2.6425  0.1375
   14MOL     H8 2894   0.526   4.977   4.327  0.3197  2.0853 -1.5277
   14MOL     H9 2895   0.544   5.146   4.382  1.5458 -1.0818 -1.5192
   14MOL    H10 2896   0.393   4.970   4.844 -1.3069 -1.4540  1.3060
   14MOL    H11 2897   0.353   4.856   4.707  1.3485  0.9657 -0.7972
   14MOL    H12 2898   0.456   5.142   4.687 -0.1816 -0.5424 -0.0776
   14MOL    C13 2899   0.214   5.011   4.765  0.3349 -0.3705  0.8886
   14MOL    C14 2900   0.208   5.140   4.858  0.1568 -0.3605 -0.2237
   14MOL    O15 2901   0.290   5.163   4.949  0.2486 -0.2016 -0.4270
   14MOL    C16 2902   0.086   5.231   4.846 -0.1079 -0.6973 -0.0849
   14MOL    C17 2903   0.116   4.901   4.823 -0.6820  0.1721  0.2068
   14MOL    H18 2904   0.162   5.047   4.676 -0.1215 -1.3601  0.7454
   14MOL    H19 2905   0.128   5.330   4.858 -3.2483  0.5105  1.4911
   14MOL    H20 2906   0.035   5.221   4.750  0.1495 -2.2303 -0.0829
   14MOL    H21 2907   0.005   5.217   4.918  0.6476  0.0758  0.9106
   14MOL    H22 2908   0.018   4.948   4.829  0.0376  1.5420  1.4017
   14MOL    H23 2909   0.147   4.878   4.925 -1.3170  0.5715  0.4923
   14MOL    C24 2910   0.092   4.775   4.733 -0.3280  0.0947  0.4534
   14MOL    C25 2911   0.029   4.821   4.599 -0.3650  0.4558 -0.7610
   14MOL    O26 2912   7.795   4.919   4.598 -0.0536  0.2768  0.4468
   14MOL    C27 2913   0.061   4.732   4.474  0.3016 -0.0324 -0.1304
   14MOL    C28 2914   0.018   4.652   4.800  0.0049  0.3425  0.3639
   14MOL    H29 2915   0.187   4.733   4.700 -0.9496 -0.4713 -0.6424
   14MOL    H30 2916   0.033   4.628   4.490  1.3836 -0.1434  1.1779
   14MOL    H31 2917   7.831   4.771   4.403 -0.2429  0.7031  0.8074
   14MOL    H32 2918   0.168   4.738   4.453  0.1349  0.9776 -0.7547
   14MOL    H33 2919   0.006   4.565   4.735 -1.2173 -0.2282  1.3369
   14MOL    H34 2920   7.761   4.688   4.826 -0.7156 -2.1261  1.2536
   14MOL    C35 2921   0.075   4.609   4.942  0.5025 -0.4884 -0.3591
   14MOL    C36 2922   0.204   4.529   4.923  0.3825 -0.3503 -0.4626
   14MOL    O37 2923   0.211   4.438   4.843 -0.6010 -0.4376 -0.2821
   14MOL    C38 2924   0.340   4.583   4.977 -0.7272  0.3378 -0.0005
   14MOL    C39 2925   7.810   4.512   5.008 -0.2736 -0.2628 -0.3322
   14MOL    H40 2926   0.103   4.693   5.005 -1.6121 -1.1089  1.4962
   14MOL    H41 2927   0.336   4.591   5.085  0.4008  1.5859 -0.0355
   14MOL    H42 2928   0.412   4.509   4.940 -0.7002  1.9837 -3.4209
   14MOL    H43 2929   0.360   4.676   4.924  0.5602 -1.0018 -1.9816
   14MOL    H44 2930   0.017   4.480   5.100  1.9286 -0.6603 -1.5951
   14MOL    H45 2931   7.795   4.428   4.940 -0.1558  0.2905 -1.0525
   14MOL    C46 2932   7.679   4.580   5.050 -0.8008  0.1956  0.2906
   14MOL    C47 2933   7.712   4.718   5.119 -0.0454  0.1707  0.2605
   14MOL    O48 2934   7.797   4.728   5.209 -0.0530  0.4167  0.1080
   14MOL    C49 2935   7.646   4.839   5.059  0.2406  0.3041 -0.5895
   14MOL    C50 2936   7.607   4.497   5.146 -0.4192  0.2159  0.0889
   14MOL    H51 2937   7.622   4.604   4.960  0.2348 -1.9742 -0.9647
   14MOL    H52 2938   7.537   4.830   5.070  0.2328  0.4538 -0.5502
   14MOL    H53 2939   7.661   4.929   5.118 -2.8168  0.6913 -0.3262
   14MOL    H54 2940   7.672   4.860   4.956  0.8209  2.1208 -0.0882
   14MOL    H55 2941   7.526   4.560   5.181  0.2145 -0.7041  3.3860
   14MOL    H56 2942   7.656   4.483   5.242 -1.0097  3.4060  0.9162
   14MOL    C57 2943   7.542   4.362   5.092 -0.1026  0.2100  0.4843
   14MOL    C58 2944   7.468   4.375   4.958 -0.1200 -0.3316 -0.1893
   14MOL    O59 2945   7.510   4.309   4.861 -0.0258 -0.3264 -0.6396
   14MOL    C60 2946   7.354   4.469   4.954  0.9026 -1.0787 -0.0384
   14MOL    C61 2947   7.457   4.296   5.206 -0.0437 -0.8755  0.5907
   14MOL    H62 2948   7.636   4.313   5.067  0.8544  2.2635 -0.0664
   14MOL    H63 2949   7.393   4.569   4.976 -0.3272 -0.4155 -0.8366
   14MOL    H64 2950   7.304   4.469   4.857 -1.4671  0.8199  1.1304
   14MOL    H65 2951   7.289   4.455   5.040 -0.3011  1.1954 -0.5501
   14MOL    H66 2952   7.353   4.324   5.195  0.6955  0.4768 -4.2828
   14MOL    H67 2953   7.473   4.351   5.299 -0.3224 -1.6397  1.0921
   14MOL    C68 2954   7.463   4.141   5.227 -0.9343 -0.3351  0.8026
   14MOL    C69 2955   7.417   4.072   5.095 -0.6180  0.1450 -0.6446
   14MOL    O70 2956   7.310   4.100   5.040  0.1113  0.6416  0.7106
   14MOL    C71 2957   7.512   3.971   5.043  0.3337  0.6133 -0.1538
   14MOL    C72 2958   7.387   4.107   5.356 -0.3173  0.4420  0.7355
   14MOL    H73 2959   7.570   4.122   5.242  0.0227  2.2275 -2.2165
   14MOL    H74 2960   7.568   3.919   5.121 -1.2942 -3.2752 -1.4507
   14MOL    H75 2961   7.466   3.883   4.999  1.2823 -0.9120  1.8352
   14MOL    H76 2962   7.577   4.022   4.972  1.4250  2.1136  1.8582
   14MOL    H77 2963   7.279   4.115   5.343 -0.2969  3.7743  2.0177
   14MOL    H78 2964   7.412   4.178   5.435 -0.6740 -1.3284  2.4987
   14MOL    C79 2965   7.419   3.970   5.420 -0.3433 -0.4083 -0.8272
   14MOL    C80 2966   7.322   3.944   5.543  0.4125  0.2270  0.3053
   14MOL    O81 2967   7.293   4.025   5.636 -0.3285  0.1084  0.4249
   14MOL    C82 2968   7.273   3.798   5.558 -0.5126 -0.1142  0.6690
   14MOL    C83 2969   7.571   3.940   5.467 -0.1920  0.2558  1.1010
   14MOL    H84 2970   7.391   3.896   5.345  0.0548 -0.8416 -0.5458
   14MOL    H85 2971   7.242   3.784   5.662  1.3170  0.9199  1.3827
   14MOL    H86 2972   7.186   3.788   5.493  0.8314  0.4835 -1.2447
   14MOL    H87 2973   7.355   3.734   5.526 -0.6527  0.6004 -1.1595
   14MOL    H88 2974   7.642   3.986   5.397  0.4698 -1.0781  0.8898
   14MOL    H89 2975   7.592   3.836   5.490  1.7047  0.8677  2.3287
   14MOL    C90 2976   7.613   4.018   5.600 -0.5885  0.1354  0.4803
   14MOL    C91 2977   7.638   4.169   5.593  0.2725 -0.0450  0.5427
   14MOL    O92 2978   7.662   4.222   5.482 -0.3962 -0.1419  0.2793
   14MOL    C93 2979   7.627   4.241   5.725  0.0414  0.2066  0.6868
   14MOL    C94 2980   7.744   3.948   5.655  0.8836 -0.8202  0.0325
   14MOL    H95 2981   7.533   4.014   5.674 -0.4973  2.1462  0.7243
   14MOL    H96 2982   7.555   4.322   5.712  0.7855  1.1504  2.2464
   14MOL    H97 2983   7.595   4.176   5.807  2.2499 -1.2101  0.4665
   14MOL    H98 2984   7.722   4.285   5.755  0.5739  0.7491 -1.7556
   14MOL    H99 2985   7.810   4.027   5.692 -0.0901 -1.1412  2.6001
   14MOL   H100 2986   7.800   3.904   5.573 -1.5216  0.4824 -2.3808
   14MOL   C101 2987   7.723   3.840   5.765 -0.0199 -0.2357 -0.7804
   14MOL   C102 2988   7.679   3.905   5.898  0.1465  0.1706 -0.3616
   14MOL   O103 2989   7.718   4.022   5.925  0.5295  0.1854 -0.7987
   14MOL   C104 2990   7.582   3.835   5.993 -0.0640 -0.1615  0.2567
   14MOL   C105 2991   0.021   3.775   5.804  0.7422  0.3725 -0.1655
   14MOL   H106 2992   7.659   3.761   5.726  1.2143 -0.8670 -1.5517
   14MOL   H107 2993   7.622   3.814   6.092 -1.1500 -0.0762  0.7184
   14MOL   H108 2994   7.505   3.909   6.014  0.2054  0.0506  0.5037
   14MOL   H109 2995   7.534   3.744   5.957 -0.5655 -0.6232  2.0320
   14MOL   H110 2996   0.079   3.839   5.871 -2.2780  0.5689  2.4169
   14MOL   H111 2997   0.075   3.754   5.712 -0.2829 -3.8057  0.0911
   14MOL   C112 2998   7.841   3.641   5.875 -0.2576 -0.1270  0.3961
   14MOL   C113 2999   0.126   3.608   5.958  0.3411  0.0724 -0.4700
   14MOL   O114 3000   0.194   3.510   5.925 -0.0153 -0.2166  0.2297
   14MOL   C115 3001   0.177   3.693   6.078  0.1426 -0.5311  0.2887
   14MOL   C116 3002   7.815   3.538   5.765  0.3124  0.2610 -0.2549
   14MOL   H117 3003   7.755   3.645   5.942 -0.5340  0.3742  0.0215
   14MOL   H118 3004   0.249   3.768   6.044  0.8842 -1.1546  0.4988
   14MOL   H119 3005   0.097   3.744   6.132  1.9498  0.9556  1.6241
   14MOL   H120 3006   0.230   3.623   6.141 -1.1102 -0.1836  1.7368
   14MOL   H121 3007   0.060   3.520   5.702  0.0278 -0.8995 -0.3282
   14MOL   H122 3008   7.740   3.560   5.689  0.5247 -1.1827 -0.8926
   14MOL   C123 3009   7.777   3.394   5.814 -0.3112  0.6822  0.2612
   14MOL   C124 3010   7.800   3.270   5.722  1.1807  0.0136 -0.3351
   14MOL   O125 3011   7.820   3.284   5.604  0.1061 -0.0732  0.4056
   14MOL   C126 3012   7.797   3.125   5.785 -0.2258  0.2636  0.3969
   14MOL   C127 3013   7.643   3.385   5.906 -0.7818  0.0837  0.2886
   14MOL   H128 3014   0.007   3.371   5.892  1.4146  0.6088 -1.3291
   14MOL   H129 3015   0.050   3.103   5.834  0.0548 -1.9367 -1.0486
   14MOL   H130 3016   7.723   3.122   5.865 -1.1141  2.3225 -0.3148
   14MOL   H131 3017   7.769   3.046   5.715 -1.1464  1.3552 -0.4819
   14MOL   H132 3018   7.625   3.477   5.961 -0.9957  0.0997  0.1910
   14MOL   H133 3019   7.659   3.312   5.985  0.9942 -0.7545 -0.8014
   14MOL   C134 3020   7.517   3.363   5.812  0.3966  0.3285  0.4514
   14MOL   C135 3021   7.494   3.473   5.712 -0.1559  0.0963  0.1041
   14MOL   O136 3022   7.474   3.589   5.749 -0.1021  0.1590  0.7748
   14MOL   C137 3023   7.502   3.453   5.564  0.3638  0.3901 -0.1819
   14MOL   C138 3024   7.390   3.356   5.900 -0.2557 -0.4822 -0.7982
   14MOL   H139 3025   7.532   3.269   5.760 -0.4605 -0.4272  1.5321
   14MOL   H140 3026   7.545   3.355   5.544 -1.4414 -0.7535  1.4455
   14MOL   H141 3027   7.407   3.468   5.513  1.2439 -0.4381 -2.1188
   14MOL   H142 3028   7.568   3.529   5.520 -0.4844 -0.7747 -3.6541
   14MOL   H143 3029   7.364   3.448   5.951 -0.1069 -0.5193 -0.6554
   14MOL   H144 3030   7.407   3.292   5.986 -3.8173  1.7914  1.7322
   14MOL   C145 3031   7.259   3.306   5.852 -0.0047 -1.2330 -0.2745
   14MOL   C146 3032   7.255   3.170   5.776  0.1001  0.5652  0.7691
   14MOL   O147 3033   7.345   3.141   5.696  0.2581  0.2642  0.0981
   14MOL   C148 3034   7.150   3.072   5.816  0.0113  0.0283 -0.2121
   14MOL   C149 3035   7.174   3.408   5.774  0.5435 -0.2967  0.0011
   14MOL   H150 3036   7.207   3.283   5.945 -1.3254 -0.2015 -0.7539
   14MOL   H151 3037   7.067   3.107   5.877  1.5776  1.9119  0.8491
   14MOL   H152 3038   7.104   3.051   5.719 -0.0798 -0.4792 -0.0616
   14MOL   H153 3039   7.195   2.979   5.852 -1.8818 -1.1556 -0.8075
   14MOL   H154 3040   7.183   3.391   5.666 -2.3768 -1.7128 -0.0647
   14MOL   H155 3041   7.221   3.504   5.795 -0.3631  0.1253  0.1445
   14MOL   C156 3042   7.026   3.425   5.811  0.1921 -0.5834 -0.6166
   14MOL   C157 3043   6.949   3.484   5.694  0.5077 -0.2193  0.1625
   14MOL   O158 3044   6.853   3.419   5.648  0.2921 -0.4030 -0.0966
   14MOL   C159 3045   6.978   3.626   5.641  0.1390  0.7822  0.0429
   14MOL   C160 3046   7.005   3.502   5.951  0.5989  0.2787 -0.4049
   14MOL   H161 3047   6.980   3.326   5.817 -1.3741  0.1734  0.2970
   14MOL   H162 3048   7.067   3.624   5.579 -1.5540 -0.7188 -2.4446
   14MOL   H163 3049   6.887   3.663   5.594  0.2929 -0.1303 -0.9894
   14MOL   H164 3050   7.000   3.693   5.724 -1.6681 -0.7616  1.8301
   14MOL   H165 3051   7.030   3.608   5.940 -3.0116  1.1524 -0.9223
   14MOL   H166 3052   7.070   3.454   6.024  0.7006 -1.0809 -1.3622
   14MOL   C167 3053   6.858   3.513   6.009 -0.5169 -0.3834 -0.4416
   14MOL   C168 3054   6.853   3.587   6.147 -0.2519 -0.1529 -0.2027
   14MOL   O169 3055   6.848   3.524   6.257  0.0446 -0.1777  0.1048
   14MOL   C170 3056   6.880   3.738   6.149 -0.3715  0.0792 -0.1977
   14MOL   C171 3057   6.781   3.382   6.032 -0.2695  0.6331  1.3238
   14MOL   H172 3058   6.798   3.572   5.939  0.4211  0.0855 -0.8504
   14MOL   H173 3059   6.786   3.790   6.131 -1.5559 -0.6755  3.4199
   14MOL   H174 3060   6.924   3.780   6.240  0.4242  0.1627 -0.6148
   14MOL   H175 3061   6.943   3.758   6.062  0.1162  1.1480  0.3856
   14MOL   H176 3062   6.838   3.324   6.104 -0.2984  2.3302  2.7452
   14MOL   H177 3063   6.794   3.326   5.940 -0.2895  2.4078  0.2205
   14MOL   C178 3064   6.634   3.380   6.080 -1.4519 -0.2672  0.7214
   14MOL   C179 3065   6.613   3.255   6.160  0.9052  0.0292  0.3029
   14MOL   O180 3066   6.593   3.142   6.113 -0.2208  0.1255 -0.1459
   14MOL   C181 3067   6.620   3.264   6.307 -0.1761  0.1179  0.0747
   14MOL   C182 3068   6.545   3.383   5.957  1.1240 -0.0753 -0.0044
   14MOL   H183 3069   6.615   3.474   6.131 -2.6744  1.2178 -2.3444
   14MOL   H184 3070   6.568   3.176   6.345 -1.4761 -0.4411 -2.8436
   14MOL   H185 3071   6.723   3.268   6.342 -0.4485  0.5622  0.8264
   14MOL   H186 3072   6.553   3.343   6.338 -0.8375 -0.3896 -0.0449
   14MOL   H187 3073   6.581   3.295   5.903  2.1531  1.0830 -1.2611
   14MOL   H188 3074   6.573   3.466   5.893  0.8823  1.1967  1.5194
   14MOL   C189 3075   6.392   3.372   5.979 -0.4428 -0.3528  0.6842
   14MOL   C190 3076   6.323   3.360   5.841  0.6344 -0.4261  0.1357
   14MOL   O191 3077   6.355   3.421   5.740  0.7355 -0.5437 -0.4820
   14MOL   C192 3078   6.208   3.266   5.841 -0.2568 -0.2922  0.1318
   14MOL   C193 3079   6.331   3.503   6.039 -0.1325 -0.2614  0.3797
   14MOL   H194 3080   6.352   3.287   6.034 -0.7620 -0.2181  0.6608
   14MOL   H195 3081   6.119   3.315   5.879  0.0895 -0.3032  0.9771
   14MOL   H196 3082   6.183   3.228   5.742 -0.0106 -0.4649  0.1332
   14MOL   H197 3083   6.223   3.178   5.905 -0.7867  0.4602  1.3127
   14MOL   H198 3084   6.231   3.520   5.998  0.7622  1.4068 -1.1572
   14MOL   H199 3085   6.380   3.592   5.999 -4.0087  1.3584 -0.9860
   14MOL   C200 3086   6.328   3.501   6.192 -0.1492 -0.3375 -0.0955
   14MOL   C201 3087   6.216   3.418   6.249 -0.2378  0.3414 -0.0845
   14MOL   O202 3088   6.108   3.400   6.189  0.7737 -0.4007  0.6606
   14MOL   C203 3089   6.241   3.360   6.389  0.2828  0.0411  0.2331
   14MOL   C204 3090   6.320   3.647   6.243  0.2329 -0.1445 -0.2282
   14MOL   H205 3091   6.423   3.460   6.228  0.3126  0.0009 -0.9102
   14MOL   H206 3092   6.335   3.401   6.425 -0.1297  0.1746  1.1742
   14MOL   H207 3093   6.160   3.397   6.451  1.2148  1.7986  0.4326
   14MOL   H208 3094   6.253   3.252   6.390  2.5691  0.1795 -3.0822
   14MOL   H209 3095   6.259   3.660   6.332 -0.8155  0.6191 -1.0256
   14MOL   H210 3096   6.255   3.698   6.171 -1.7567  1.0769  2.3200
   14MOL   C211 3097   6.452   3.720   6.254 -0.1722 -0.1572  0.4224
   14MOL   C212 3098   6.527   3.694   6.388 -0.7957  1.0986  0.3546
   14MOL   O213 3099   6.500   3.599   6.463  0.0261 -0.3285 -0.3948
   14MOL   C214 3100   6.644   3.789   6.424  0.6985  0.1639  0.0515
   14MOL   C215 3101   6.425   3.874   6.239  0.7655  0.0854 -0.0984
   14MOL   H216 3102   6.527   3.688   6.181 -0.9306 -2.9835  0.8248
   14MOL   H217 3103   6.611   3.892   6.440 -0.1086 -0.3882  2.1930
   14MOL   H218 3104   6.715   3.744   6.493  0.9210 -2.3664 -1.7682
   14MOL   H219 3105   6.704   3.795   6.334 -1.1795 -2.9605 -1.4929
   14MOL   H220 3106   6.514   3.937   6.248 -0.3401  1.4396  1.7146
   14MOL   H221 3107   6.350   3.888   6.317  0.0826 -2.3227 -0.3064
   14MOL   H222 3108   6.365   3.892   6.150  0.7661  1.6043  0.1859
   15MOL     C1 3109   7.800   6.515   5.831 -0.5791 -0.1581  0.3702
   15MOL     C2 3110   0.026   6.621   5.917  0.8605  0.6772 -0.2164
   15MOL     O3 3111   0.038   6.600   6.036  0.3797 -0.2389 -0.5458
   15MOL     C4 3112   0.086   6.747   5.852 -0.4072 -0.3778  0.5387
   15MOL     C5 3113   0.012   6.370   5.852  0.0728 -1.3027  0.1627
   15MOL     H6 3114   7.692   6.519   5.846 -0.9546 -0.2274 -2.1806
   15MOL     H7 3115   0.182   6.770   5.898  0.4811  1.9007 -2.2471
   15MOL     H8 3116   0.103   6.736   5.744  0.9793 -1.3607  0.8346
   15MOL     H9 3117   0.007   6.821   5.861 -1.6311 -1.8765  2.5906
   15MOL    H10 3118   7.826   6.319   5.761 -0.1844 -0.8514 -0.0142
   15MOL    H11 3119   7.816   6.319   5.941 -1.9891 -0.2100 -0.0488
   15MOL    H12 3120   7.818   6.545   5.728  2.5842 -0.1707  0.8577
   15MOL    C13 3121   0.169   6.359   5.861 -0.0524 -0.6144  0.5002
   15MOL    C14 3122   0.232   6.386   5.723  0.8275  0.0222 -0.3111
   15MOL    O15 3123   0.168   6.426   5.625  0.2436 -0.5657  0.0651
   15MOL    C16 3124   0.379   6.373   5.706 -0.0729 -0.4085 -0.2311
   15MOL    C17 3125   0.209   6.225   5.925 -0.2676 -0.2932 -0.5109
   15MOL    H18 3126   0.210   6.436   5.927 -0.1100 -0.4032  0.2932
   15MOL    H19 3127   0.423   6.400   5.802  1.9937 -0.3424 -1.1524
   15MOL    H20 3128   0.406   6.270   5.682  2.0763  0.0963 -0.1383
   15MOL    H21 3129   0.409   6.439   5.624  1.1604 -2.4465 -1.4786
   15MOL    H22 3130   0.299   6.181   5.882  0.2767 -0.6255  0.9606
   15MOL    H23 3131   0.130   6.157   5.893 -0.7768 -0.1864  0.5201
   15MOL    C24 3132   0.223   6.223   6.079 -0.0375  0.2197  0.6034
   15MOL    C25 3133   0.357   6.278   6.113  0.0609 -0.2504  0.1585
   15MOL    O26 3134   0.464   6.243   6.060  0.1624 -0.4880 -0.2946
   15MOL    C27 3135   0.353   6.385   6.220  1.0562  0.1590 -0.9790
   15MOL    C28 3136   0.206   6.086   6.155  0.3723 -0.2061 -0.3768
   15MOL    H29 3137   0.145   6.290   6.113 -0.2293  1.4001 -2.0496
   15MOL    H30 3138   0.289   6.465   6.182  0.2610 -0.2365 -0.4957
   15MOL    H31 3139   0.319   6.343   6.314  0.8756  1.2904 -0.5250
   15MOL    H32 3140   0.458   6.416   6.226  1.2431 -0.7331  0.7642
   15MOL    H33 3141   0.223   6.115   6.259 -0.0356 -2.3353  0.2858
   15MOL    H34 3142   0.289   6.021   6.129  0.1053 -1.0935  0.9382
   15MOL    C35 3143   0.066   6.017   6.156 -0.6729 -0.2744 -0.6472
   15MOL    C36 3144   7.800   6.108   6.207  0.4468 -0.3623  0.3453
   15MOL    O37 3145   7.817   6.196   6.290  0.1870  0.5051  0.8078
   15MOL    C38 3146   7.673   6.109   6.127  0.2663  0.0283  0.6992
   15MOL    C39 3147   0.064   5.882   6.232 -0.1507  0.1206 -0.3703
   15MOL    H40 3148   0.041   6.006   6.051  1.3460 -0.2836 -1.1613
   15MOL    H41 3149   7.661   6.015   6.073  0.4553  0.7186 -0.5751
   15MOL    H42 3150   7.588   6.117   6.194 -1.9593  0.6867 -2.1046
   15MOL    H43 3151   7.662   6.194   6.060  0.5869 -0.1769  0.3802
   15MOL    H44 3152   7.800   5.855   6.240  0.3736 -2.4114 -1.4532
   15MOL    H45 3153   0.099   5.907   6.332 -0.1373 -1.7772  0.1147
   15MOL    C46 3154   0.146   5.777   6.151  0.4413  0.1033 -0.3955
   15MOL    C47 3155   0.072   5.732   6.028 -0.6845 -0.9892 -0.0974
   15MOL    O48 3156   0.135   5.738   5.921 -0.1173  0.2890  0.4314
   15MOL    C49 3157   7.775   5.662   6.035 -0.0955 -0.0845 -0.4829
   15MOL    C50 3158   0.182   5.653   6.238  0.1961  0.2308 -0.3406
   15MOL    H51 3159   0.240   5.823   6.121  0.9137 -0.3999  0.3030
   15MOL    H52 3160   7.709   5.696   6.114  0.7066 -0.2317  0.2582
   15MOL    H53 3161   7.726   5.669   5.938  0.0066  0.3254 -0.5047
   15MOL    H54 3162   7.796   5.557   6.055 -0.0608 -0.0676 -0.4284
   15MOL    H55 3163   0.112   5.572   6.214  0.8708 -1.2188  2.3977
   15MOL    H56 3164   0.160   5.680   6.341  2.3957  1.5457 -0.1868
   15MOL    C57 3165   0.332   5.597   6.218 -0.0609  0.0598 -0.2490
   15MOL    C58 3166   0.325   5.449   6.227  0.1312  0.5650 -0.0301
   15MOL    O59 3167   0.337   5.390   6.335 -0.1906  0.2245 -0.1953
   15MOL    C60 3168   0.302   5.378   6.094 -0.0557 -0.0456 -0.0969
   15MOL    C61 3169   0.432   5.650   6.325  0.0062 -0.1965  0.3017
   15MOL    H62 3170   0.368   5.619   6.117 -0.7899  1.7478 -0.1598
   15MOL    H63 3171   0.238   5.438   6.028 -0.7169 -2.2826 -1.5256
   15MOL    H64 3172   0.401   5.362   6.051 -0.1942  0.9503 -0.8336
   15MOL    H65 3173   0.254   5.284   6.121  0.7169 -0.4694 -0.1996
   15MOL    H66 3174   0.523   5.591   6.330 -0.6345 -1.0588  2.1710
   15MOL    H67 3175   0.382   5.631   6.420  0.3581  0.5489  0.6380
   15MOL    C68 3176   0.478   5.800   6.322  0.7032  0.5512 -0.2856
   15MOL    C69 3177   0.588   5.815   6.213  0.3201 -0.5065  0.3168
   15MOL    O70 3178   0.632   5.718   6.156  0.1936  0.3740  0.0649
   15MOL    C71 3179   0.625   5.955   6.173 -0.7620 -0.1799 -0.2296
   15MOL    C72 3180   0.522   5.849   6.456 -0.2569 -0.4470  0.3172
   15MOL    H73 3181   0.395   5.864   6.291  0.3758 -0.4773 -1.5769
   15MOL    H74 3182   0.693   5.949   6.088 -2.1692 -1.3047 -1.3026
   15MOL    H75 3183   0.541   6.015   6.137 -1.6001 -2.0559 -1.4463
   15MOL    H76 3184   0.666   6.018   6.253  0.5387 -3.2291  1.6028
   15MOL    H77 3185   0.580   5.941   6.445 -0.4973 -0.2880  0.3693
   15MOL    H78 3186   0.595   5.778   6.495  0.0185  0.5105  1.6063
   15MOL    C79 3187   0.417   5.876   6.569  0.3877 -0.3400  0.4901
   15MOL    C80 3188   0.337   5.999   6.533  0.0469  0.2366  0.6469
   15MOL    O81 3189   0.372   6.069   6.438  0.3460 -0.2775 -0.0786
   15MOL    C82 3190   0.217   6.039   6.616  0.0291  1.4421 -0.8446
   15MOL    C83 3191   0.458   5.875   6.717  0.0091 -0.3813  0.2691
   15MOL    H84 3192   0.340   5.800   6.564 -1.2679  1.2425  1.5838
   15MOL    H85 3193   0.169   5.950   6.657  0.3998  1.1037 -1.1450
   15MOL    H86 3194   0.233   6.110   6.697 -0.5467  0.8551 -0.2016
   15MOL    H87 3195   0.146   6.092   6.552 -2.1970  0.1874  0.5037
   15MOL    H88 3196   0.497   5.777   6.744 -0.4442 -0.1483  1.8255
   15MOL    H89 3197   0.369   5.875   6.780  0.3615  0.6545  0.7746
   15MOL    C90 3198   0.559   5.985   6.769  0.8544  0.0615 -0.0946
   15MOL    C91 3199   0.707   5.978   6.722 -0.1870 -0.2152 -0.0460
   15MOL    O92 3200   0.764   5.868   6.710  0.0457 -0.3653 -0.0894
   15MOL    C93 3201   0.778   6.113   6.679 -0.0770  0.0067  0.6800
   15MOL    C94 3202   0.553   5.977   6.924  0.1137  0.4864 -0.2992
   15MOL    H95 3203   0.523   6.082   6.736 -3.5137 -0.9129  1.4161
   15MOL    H96 3204   0.818   6.146   6.774 -0.9424 -0.8434  1.3535
   15MOL    H97 3205   0.857   6.079   6.612 -2.0252 -1.8847 -0.7238
   15MOL    H98 3206   0.703   6.185   6.645  1.7171  2.2079  1.2929
   15MOL    H99 3207   0.588   5.882   6.963  2.4578  0.8373 -1.4374
   15MOL   H100 3208   0.450   5.985   6.959 -0.2824  0.7810 -1.5053
   15MOL   C101 3209   0.631   6.087   6.996  0.2268  0.2822 -0.4306
   15MOL   C102 3210   0.658   6.048   7.143  0.1539  0.6720  0.5276
   15MOL   O103 3211   0.578   6.075   7.235 -0.1470  0.2142  0.2728
   15MOL   C104 3212   0.758   5.939   7.162 -0.3949 -0.0518  0.1330
   15MOL   C105 3213   0.556   6.226   6.990  0.0243  0.0377  0.6502
   15MOL   H106 3214   0.730   6.108   6.955  1.1909  0.6651  1.9703
   15MOL   H107 3215   0.711   5.842   7.179  1.2185 -0.9001 -0.2327
   15MOL   H108 3216   0.818   5.921   7.073 -1.6196  1.7082 -1.1154
   15MOL   H109 3217   0.823   5.969   7.243 -0.5302 -0.2645  0.3213
   15MOL   H110 3218   0.462   6.219   7.045 -1.3320 -0.8808 -1.7180
   15MOL   H111 3219   0.521   6.238   6.887  0.5038 -0.6186  0.4029
   15MOL   C112 3220   0.635   6.349   7.048 -0.8045  0.0314 -0.0925
   15MOL   C113 3221   0.558   6.427   7.156  0.1574  0.0477 -0.5107
   15MOL   O114 3222   0.461   6.488   7.115  0.8296  0.2890  0.2610
   15MOL   C115 3223   0.610   6.443   7.298 -0.2313  0.0271 -0.2182
   15MOL   C116 3224   0.679   6.439   6.935 -0.8091  0.3873  1.0095
   15MOL   H117 3225   0.729   6.312   7.089 -0.6172 -0.4556 -0.9364
   15MOL   H118 3226   0.554   6.385   7.372  1.0717 -2.1558 -0.8927
   15MOL   H119 3227   0.718   6.428   7.303 -0.0881  1.2674  0.8399
   15MOL   H120 3228   0.600   6.544   7.339 -0.9403 -0.6457  1.3378
   15MOL   H121 3229   0.593   6.500   6.906 -0.2021  0.1729 -1.3508
   15MOL   H122 3230   0.703   6.364   6.860 -0.1207  2.4177 -0.8760
   15MOL   C123 3231   0.811   6.519   6.961 -0.0318  0.6516 -0.4015
   15MOL   C124 3232   0.815   6.646   6.878  0.4883 -0.5063 -0.4012
   15MOL   O125 3233   0.823   6.756   6.932 -0.3155  0.7392  0.7971
   15MOL   C126 3234   0.807   6.641   6.726 -0.0057 -0.0351  0.2361
   15MOL   C127 3235   0.933   6.428   6.953  0.1334 -0.4019  0.8230
   15MOL   H128 3236   0.815   6.549   7.066  0.1219  0.7223 -0.4284
   15MOL   H129 3237   0.841   6.544   6.688  0.4491  0.3165 -0.2783
   15MOL   H130 3238   0.710   6.654   6.679  0.6987  1.7195 -0.8239
   15MOL   H131 3239   0.863   6.722   6.678 -0.2072  1.1234  1.9148
   15MOL   H132 3240   0.936   6.395   6.849  1.4115  2.4863 -0.0833
   15MOL   H133 3241   0.915   6.338   7.012 -2.6897 -0.2255  0.3283
   15MOL   C134 3242   1.074   6.480   6.991  0.6528  1.0580  0.5558
   15MOL   C135 3243   1.153   6.584   6.898 -0.3938  0.4748  0.6902
   15MOL   O136 3244   1.150   6.572   6.780  0.1155  0.8526  0.0747
   15MOL   C137 3245   1.232   6.695   6.959 -0.4533 -0.3393  0.2053
   15MOL   C138 3246   1.164   6.369   7.058 -0.2803 -0.2771 -0.2287
   15MOL   H139 3247   1.046   6.537   7.080  0.7456 -0.4496  1.5862
   15MOL   H140 3248   1.151   6.766   6.972 -1.5100 -1.5016  0.1230
   15MOL   H141 3249   1.273   6.669   7.057 -1.4129  0.4534  0.8218
   15MOL   H142 3250   1.299   6.733   6.882 -0.3449  1.8545  1.3331
   15MOL   H143 3251   1.097   6.336   7.138 -1.8103  0.9955 -0.9540
   15MOL   H144 3252   1.250   6.417   7.106 -1.6294  2.3947 -0.3827
   15MOL   C145 3253   1.209   6.261   6.951  0.4813 -0.9550 -0.8922
   15MOL   C146 3254   1.105   6.149   6.926  0.1738 -0.0236 -0.8968
   15MOL   O147 3255   1.060   6.132   6.816 -0.3452  0.0390  0.6011
   15MOL   C148 3256   1.064   6.060   7.053 -0.7370 -0.3708  0.4495
   15MOL   C149 3257   1.351   6.199   6.983 -0.5888  0.0746 -0.3541
   15MOL   H150 3258   1.207   6.325   6.863 -1.2036  2.5896  1.5958
   15MOL   H151 3259   0.990   6.103   7.121 -0.6025  1.4203 -0.5018
   15MOL   H152 3260   1.023   5.963   7.025 -1.2331 -0.1244  0.3266
   15MOL   H153 3261   1.150   6.045   7.119  1.0762  2.3808 -1.1890
   15MOL   H154 3262   1.351   6.129   7.067  0.7906  1.3124  0.7131
   15MOL   H155 3263   1.401   6.281   7.034 -1.9805 -1.0878  3.0332
   15MOL   C156 3264   1.433   6.152   6.862  0.6968 -0.0912 -0.3942
   15MOL   C157 3265   1.403   6.009   6.831  0.5798  0.3518 -0.1901
   15MOL   O158 3266   1.341   5.944   6.915  0.8764 -0.2329 -0.0757
   15MOL   C159 3267   1.432   5.956   6.689  0.5789  0.7712  0.3309
   15MOL   C160 3268   1.582   6.177   6.872  0.0670  0.1941  0.1185
   15MOL   H161 3269   1.392   6.210   6.778 -0.4675 -1.2959 -0.6789
   15MOL   H162 3270   1.537   5.974   6.668  1.4069  2.0054  5.0400
   15MOL   H163 3271   1.407   5.851   6.704 -0.5825  1.0799  0.6120
   15MOL   H164 3272   1.368   6.002   6.613  1.4795 -0.7849 -1.4118
   15MOL   H165 3273   1.630   6.110   6.801  0.5856  0.5917  0.0959
   15MOL   H166 3274   1.612   6.152   6.973 -0.7878  0.8666  0.5451
   15MOL   C167 3275   1.626   6.318   6.839  1.1533  0.3618 -0.1304
   15MOL   C168 3276   1.587   6.367   6.696 -0.3185 -0.3608 -0.1226
   15MOL   O169 3277   1.577   6.287   6.599  0.3642 -1.1331 -0.1251
   15MOL   C170 3278   1.563   6.513   6.672  0.2053  0.0713  0.2428
   15MOL   C171 3279   1.769   6.356   6.867 -0.5479  0.0680 -0.0581
   15MOL   H172 3280   1.579   6.384   6.912 -0.9588 -1.5806  0.3136
   15MOL   H173 3281   1.640   6.565   6.615  0.6406 -0.4302  0.3747
   15MOL   H174 3282   1.469   6.536   6.622  0.2557 -2.8686 -1.2602
   15MOL   H175 3283   1.557   6.567   6.766  3.4850 -2.1876  1.8296
   15MOL   H176 3284   1.794   6.334   6.971 -0.3116  2.4227  0.4129
   15MOL   H177 3285   1.783   6.464   6.872  0.6270 -0.1077  0.7137
   15MOL   C178 3286   1.890   6.313   6.771  0.2145 -0.4560 -0.3743
   15MOL   C179 3287   1.896   6.160   6.753 -1.1761 -0.4712  0.0881
   15MOL   O180 3288   1.855   6.107   6.653  0.1571 -0.4612 -0.1470
   15MOL   C181 3289   1.947   6.076   6.872  0.6006 -0.1870  0.2160
   15MOL   C182 3290   2.026   6.369   6.828  0.2107  0.6478 -0.4582
   15MOL   H183 3291   1.877   6.337   6.666  0.0551  2.2087  0.2242
   15MOL   H184 3292   1.930   6.122   6.969  0.1764 -0.3035  0.1985
   15MOL   H185 3293   1.878   5.994   6.890 -1.3111  1.1703 -0.7574
   15MOL   H186 3294   2.041   6.027   6.847  0.6773  0.1333 -0.1400
   15MOL   H187 3295   2.090   6.281   6.825 -0.3076  0.2603 -0.2158
   15MOL   H188 3296   2.028   6.407   6.930  2.2583  3.1693 -1.3910
   15MOL   C189 3297   2.083   6.477   6.735 -0.0730  0.1534  0.6107
   15MOL   C190 3298   2.004   6.609   6.739  0.1061 -0.1783  0.2654
   15MOL   O191 3299   1.899   6.622   6.673  0.7266  0.3263  0.2880
   15MOL   C192 3300   2.055   6.723   6.827  0.7442  0.1417 -1.4941
   15MOL   C193 3301   2.141   6.448   6.602 -0.0348  0.3964 -0.2029
   15MOL   H194 3302   2.165   6.507   6.801 -0.3618  2.1159  0.1137
   15MOL   H195 3303   2.022   6.826   6.809 -1.0368  0.4497  2.9134
   15MOL   H196 3304   2.027   6.693   6.928  3.1793 -1.5085 -1.2781
   15MOL   H197 3305   2.164   6.728   6.829  0.7093  1.5856 -2.3527
   15MOL   H198 3306   2.063   6.481   6.533 -1.3366 -1.9198  0.1126
   15MOL   H199 3307   2.158   6.340   6.592 -3.5621 -0.1367 -1.1988
   15MOL   C200 3308   2.261   6.534   6.566  0.1754  0.3267 -0.9747
   15MOL   C201 3309   2.275   6.568   6.419  0.4015  0.6262  0.1864
   15MOL   O202 3310   2.264   6.475   6.340  0.5605 -0.6825  0.1319
   15MOL   C203 3311   2.324   6.702   6.372 -0.5205 -0.0707 -0.4823
   15MOL   C204 3312   2.392   6.498   6.637 -0.5306  0.3346 -0.3273
   15MOL   H205 3313   2.249   6.639   6.595 -2.6693  0.2564 -1.7219
   15MOL   H206 3314   2.346   6.772   6.453  1.4619  0.4907 -1.4529
   15MOL   H207 3315   2.421   6.678   6.327  0.1611 -1.3911  1.5975
   15MOL   H208 3316   2.259   6.760   6.307  1.9559  0.1853 -2.8407
   15MOL   H209 3317   2.383   6.520   6.743 -1.1532 -2.4578  0.2315
   15MOL   H210 3318   2.473   6.563   6.602  0.0654 -0.7281 -0.9394
   15MOL   C211 3319   2.432   6.353   6.627 -0.1444 -0.1240  0.0470
   15MOL   C212 3320   2.373   6.251   6.729 -0.7564 -0.0189  0.6613
   15MOL   O213 3321   2.328   6.139   6.699 -0.0237 -0.4461  0.5636
   15MOL   C214 3322   2.387   6.298   6.876  0.3977 -0.5717 -0.3947
   15MOL   C215 3323   2.579   6.331   6.602  0.0259  0.1412 -0.1794
   15MOL   H216 3324   2.387   6.328   6.531 -1.5850 -5.0280  1.8860
   15MOL   H217 3325   2.322   6.380   6.907 -0.3393 -1.6011  0.8225
   15MOL   H218 3326   2.367   6.215   6.944  0.9074 -0.7467 -0.4567
   15MOL   H219 3327   2.488   6.331   6.898 -0.4871  2.5482 -0.8270
   15MOL   H220 3328   2.633   6.407   6.546 -1.3194  2.2090  1.2590
   15MOL   H221 3329   2.586   6.238   6.545  0.9959 -0.6609  1.2165
   15MOL   H222 3330   2.630   6.314   6.697 -0.7767 -0.9544  0.0663
   16MOL     C1 3331   6.325   7.432   7.415 -0.0078 -0.2266  0.2221
   16MOL     C2 3332   6.273   7.548   7.501 -0.1361  0.2439  0.3257
   16MOL     O3 3333   6.198   7.525   7.594 -0.1958  0.0689 -0.0947
   16MOL     C4 3334   6.309   7.691   7.461  1.1991  0.5912 -0.6213
   16MOL     C5 3335   6.234   7.303   7.429 -0.2470 -0.5729  0.0572
   16MOL     H6 3336   6.336   7.471   7.313  0.3507 -0.2478  0.2528
   16MOL     H7 3337   6.399   7.727   7.512  1.2694 -0.7195  0.1938
   16MOL     H8 3338   6.331   7.698   7.354  2.4113  1.6953 -0.3244
   16MOL     H9 3339   6.225   7.757   7.482 -0.4998 -1.0383 -2.1268
   16MOL    H10 3340   6.240   7.258   7.528  1.2682 -0.2988  0.1055
   16MOL    H11 3341   6.284   7.223   7.375 -0.4617 -0.6402 -0.0423
   16MOL    H12 3342   6.429   7.407   7.438  1.2769  2.8321 -1.8910
   16MOL    C13 3343   6.088   7.318   7.387 -0.7558 -0.1859 -0.4757
   16MOL    C14 3344   6.012   7.188   7.423 -0.3083 -0.0730  1.0359
   16MOL    O15 3345   5.980   7.114   7.328 -0.2611 -0.2764  0.1063
   16MOL    C16 3346   5.957   7.167   7.568  0.1630  0.7012 -0.5756
   16MOL    C17 3347   6.077   7.362   7.242 -0.3399 -0.8363  0.5929
   16MOL    H18 3348   6.042   7.399   7.443  0.8109  0.6958 -0.4520
   16MOL    H19 3349   6.040   7.169   7.639  0.1886  2.0521 -0.6252
   16MOL    H20 3350   5.888   7.247   7.597  2.2969  1.9079  1.3427
   16MOL    H21 3351   5.898   7.076   7.580  0.1662  0.5755 -1.4979
   16MOL    H22 3352   6.143   7.299   7.182  0.0159 -0.8197  0.9649
   16MOL    H23 3353   6.128   7.459   7.242 -0.7874 -0.5971  1.4369
   16MOL    C24 3354   5.932   7.371   7.182 -0.2458 -0.4337 -0.2710
   16MOL    C25 3355   5.915   7.267   7.073  0.3211  0.4826  0.3222
   16MOL    O26 3356   5.978   7.271   6.963  0.5407 -0.2413  0.5533
   16MOL    C27 3357   5.806   7.159   7.095  0.3865 -0.0653  0.1052
   16MOL    C28 3358   5.887   7.511   7.132  0.2646 -0.2407  0.3662
   16MOL    H29 3359   5.870   7.333   7.263 -2.2122  1.9158 -0.6256
   16MOL    H30 3360   5.741   7.157   7.007 -0.0318 -1.0676  0.4384
   16MOL    H31 3361   5.854   7.064   7.118  2.1423  0.5093 -1.0537
   16MOL    H32 3362   5.754   7.191   7.185  0.3329 -1.8380  0.7149
   16MOL    H33 3363   5.785   7.520   7.094  0.5563  1.0292 -0.1598
   16MOL    H34 3364   5.953   7.544   7.052  0.6793 -1.6879  0.1000
   16MOL    C35 3365   5.901   7.617   7.251  0.3814 -0.1257  0.0606
   16MOL    C36 3366   5.821   7.576   7.378  0.9770 -0.5039 -0.1642
   16MOL    O37 3367   5.739   7.485   7.383  0.2823  0.0774  0.1972
   16MOL    C38 3368   5.855   7.643   7.509 -0.0197  0.6215  0.4039
   16MOL    C39 3369   5.844   7.748   7.210  0.6833 -0.0244  0.0964
   16MOL    H40 3370   6.007   7.626   7.272  0.5012  0.5980 -0.8027
   16MOL    H41 3371   5.895   7.563   7.571  2.1930  2.9221  2.0229
   16MOL    H42 3372   5.920   7.730   7.496 -1.7242  1.8684 -0.0184
   16MOL    H43 3373   5.766   7.687   7.554 -0.3806  0.8087 -0.4791
   16MOL    H44 3374   5.834   7.813   7.297 -1.9083 -0.5264  0.2129
   16MOL    H45 3375   5.745   7.726   7.171  0.5407  2.5325 -1.0983
   16MOL    C46 3376   5.919   7.817   7.094  0.1273  0.8405 -0.4402
   16MOL    C47 3377   6.057   0.020   7.133 -0.6221  0.2416 -0.4432
   16MOL    O48 3378   6.100   0.056   7.242  0.2246  0.3082  0.4756
   16MOL    C49 3379   6.160   0.028   7.022  0.1266  0.2760  0.0108
   16MOL    C50 3380   5.834   0.094   7.028  0.0350 -0.0722 -0.1690
   16MOL    H51 3381   5.946   7.743   7.018 -3.6736 -2.0254  0.8093
   16MOL    H52 3382   6.257   0.053   7.066  0.3421 -0.0083 -0.2967
   16MOL    H53 3383   6.161   7.773   6.971 -1.1977 -0.1121  0.6973
   16MOL    H54 3384   6.134   0.112   6.958  1.9743  0.3135 -0.7379
   16MOL    H55 3385   5.907   0.159   6.979  2.5999 -1.6440  1.4777
   16MOL    H56 3386   5.793   0.158   7.106 -2.5325 -1.9362  0.0822
   16MOL    C57 3387   5.730   0.048   6.926 -0.6303  0.2370 -0.1214
   16MOL    C58 3388   5.803   7.814   6.810 -0.6599 -0.4358 -0.0756
   16MOL    O59 3389   5.901   0.025   6.751 -0.1422  0.1116  0.0725
   16MOL    C60 3390   5.761   7.672   6.779  0.0500 -0.0744 -0.1373
   16MOL    C61 3391   5.658   0.174   6.873  0.8155 -0.5059  0.1924
   16MOL    H62 3392   5.655   7.826   6.973  3.1596 -3.5553  1.1082
   16MOL    H63 3393   5.812   7.597   6.841 -1.8156 -1.7596 -0.5844
   16MOL    H64 3394   5.657   7.652   6.803 -0.2121  0.0662 -1.1362
   16MOL    H65 3395   5.772   7.651   6.673 -1.1592  0.8461 -0.4552
   16MOL    H66 3396   5.727   0.227   6.808 -1.8586  1.1764 -1.3775
   16MOL    H67 3397   5.642   0.246   6.954 -0.3220 -1.6842  1.0365
   16MOL    C68 3398   5.525   0.130   6.807 -0.7500 -0.5852  0.0108
   16MOL    C69 3399   5.539   0.118   6.655 -0.1386  0.0917  0.4207
   16MOL    O70 3400   5.597   0.206   6.597 -0.0896 -0.0124 -0.4384
   16MOL    C71 3401   5.462   0.007   6.586  0.2344  0.0762  0.1202
   16MOL    C72 3402   5.390   0.212   6.831  0.0244 -0.5807  1.1577
   16MOL    H73 3403   5.496   0.030   6.839  0.7128 -1.1381 -0.3664
   16MOL    H74 3404   5.423   7.778   6.659  1.1364 -0.2820  0.2581
   16MOL    H75 3405   5.376   0.040   6.527  1.0139 -0.6953 -1.4828
   16MOL    H76 3406   5.530   7.796   6.520  0.4451  0.3828  0.0908
   16MOL    H77 3407   5.319   0.156   6.770 -0.2210  1.4470 -0.4617
   16MOL    H78 3408   5.409   0.309   6.787  1.3803 -1.7885 -1.0274
   16MOL    C79 3409   5.345   0.234   6.975  0.0383  0.2774 -0.6014
   16MOL    C80 3410   5.307   0.100   7.054 -0.3168 -0.2698  0.0714
   16MOL    O81 3411   5.291   7.840   6.985  0.1491  0.1292 -0.1863
   16MOL    C82 3412   5.283   0.104   7.196 -0.2651  0.2530  0.7101
   16MOL    C83 3413   5.241   0.348   6.983 -0.0004 -0.1597 -1.3394
   16MOL    H84 3414   5.433   0.270   7.029 -1.0783 -0.1977  1.6194
   16MOL    H85 3415   5.325   0.019   7.250  0.1765 -0.2316 -0.3782
   16MOL    H86 3416   5.326   0.189   7.249 -0.0107 -0.7347  2.1209
   16MOL    H87 3417   5.174   0.104   7.206 -0.2300  0.7881  1.1264
   16MOL    H88 3418   5.293   0.444   6.991 -0.3971 -0.0159 -0.3691
   16MOL    H89 3419   5.212   0.342   7.088  1.0726  1.5235 -0.9065
   16MOL    C90 3420   5.124   0.350   6.876 -0.3900 -0.4154 -0.3158
   16MOL    C91 3421   5.070   0.497   6.886  1.0190 -0.2531  0.4685
   16MOL    O92 3422   4.955   0.521   6.929 -0.0169  1.0204  0.2861
   16MOL    C93 3423   5.159   0.612   6.839  0.6691  0.2247  0.1557
   16MOL    C94 3424   5.023   0.235   6.896 -0.0139  0.7479  0.3219
   16MOL    H95 3425   5.187   0.344   6.788  0.3632 -2.0029  0.3118
   16MOL    H96 3426   5.164   0.677   6.926 -1.8841  1.4125 -0.5627
   16MOL    H97 3427   5.260   0.587   6.805  0.1702  0.4316 -1.5430
   16MOL    H98 3428   5.119   0.665   6.753  0.8827  1.6657  0.9256
   16MOL    H99 3429   4.962   0.274   6.977  0.3255  0.0474  0.9300
   16MOL   H100 3430   5.069   0.139   6.919 -1.2265 -0.2948 -1.4354
   16MOL   C101 3431   4.933   0.208   6.776 -0.1354 -0.1243  0.0275
   16MOL   C102 3432   4.800   0.152   6.822 -0.1893  0.4142 -0.4476
   16MOL   O103 3433   4.779   0.031   6.824 -0.2106 -0.3802 -0.1848
   16MOL   C104 3434   4.691   0.256   6.856  0.0609  0.2588 -0.9127
   16MOL   C105 3435   5.005   0.129   6.663  0.2440 -0.1307  0.6294
   16MOL   H106 3436   4.902   0.307   6.743 -1.4982  0.0445  1.7389
   16MOL   H107 3437   4.733   0.355   6.874 -0.3450  0.0406  1.4239
   16MOL   H108 3438   4.608   0.246   6.785 -1.9832 -1.3104  1.6143
   16MOL   H109 3439   4.634   0.222   6.942  0.4847  1.4009 -0.1743
   16MOL   H110 3440   5.030   0.034   6.710 -1.3129 -0.1459  1.4666
   16MOL   H111 3441   5.104   0.171   6.649 -1.4503  4.0380  0.4236
   16MOL   C112 3442   4.929   0.112   6.532  0.1839  0.2451  0.0775
   16MOL   C113 3443   5.020   0.046   6.426  0.7409 -0.2044  0.4731
   16MOL   O114 3444   5.058   0.111   6.328 -0.1752 -0.8311 -0.2859
   16MOL   C115 3445   5.038   7.735   6.437 -0.4116  0.6005  0.4351
   16MOL   C116 3446   4.848   0.231   6.468 -0.0608  0.3974 -0.1534
   16MOL   H117 3447   4.863   0.026   6.548  0.4242  0.2145  0.9217
   16MOL   H118 3448   5.135   7.717   6.483 -0.3549 -2.4099 -0.7426
   16MOL   H119 3449   4.947   7.686   6.472  0.0679 -0.6209  0.0244
   16MOL   H120 3450   5.062   7.701   6.336 -0.0186  2.9798 -0.3023
   16MOL   H121 3451   4.918   0.300   6.421 -0.3812  0.1813 -0.9669
   16MOL   H122 3452   4.796   0.288   6.545 -0.4647  1.7679 -1.4097
   16MOL   C123 3453   4.733   0.185   6.365 -0.8609 -0.0127 -0.2353
   16MOL   C124 3454   4.690   0.314   6.295 -0.1811  0.0450 -0.3475
   16MOL   O125 3455   4.646   0.402   6.367  0.3829  0.5964  0.7326
   16MOL   C126 3456   4.710   0.324   6.145  0.0995  0.3163 -0.3432
   16MOL   C127 3457   4.614   0.122   6.431 -0.2006 -0.0171  0.3147
   16MOL   H128 3458   4.785   0.120   6.293  0.7556 -0.8423  1.6345
   16MOL   H129 3459   4.808   0.366   6.124 -0.4338  1.6421 -0.2105
   16MOL   H130 3460   4.699   0.229   6.092  0.9279 -0.0142  0.0747
   16MOL   H131 3461   4.626   0.387   6.119  0.7435  1.2759 -0.1267
   16MOL   H132 3462   4.536   0.197   6.448 -0.6578 -0.1188 -1.2728
   16MOL   H133 3463   4.646   0.095   6.532  0.1452 -1.7745 -0.2583
   16MOL   C134 3464   4.565   7.834   6.378  0.0569 -0.6449  0.4980
   16MOL   C135 3465   4.668   7.726   6.404  0.3250 -0.9848 -0.2493
   16MOL   O136 3466   4.752   7.705   6.315 -0.3077  0.5326 -0.1875
   16MOL   C137 3467   4.663   7.643   6.530 -0.5178  1.0343  0.7277
   16MOL   C138 3468   4.509   7.838   6.230  0.0368 -0.6179 -0.2368
   16MOL   H139 3469   4.488   7.792   6.443 -2.0379  0.6678 -1.0546
   16MOL   H140 3470   4.648   7.539   6.501 -0.3851  1.4204 -0.7583
   16MOL   H141 3471   4.762   7.644   6.575 -0.2529 -0.9745  0.2206
   16MOL   H142 3472   4.602   7.675   6.615 -0.7149  1.0919  0.5634
   16MOL   H143 3473   4.587   0.039   6.166 -0.4182  1.4796  0.5610
   16MOL   H144 3474   4.439   0.079   6.231  4.8841  3.7869 -1.9720
   16MOL   C145 3475   4.441   7.714   6.165  0.2275 -0.2641 -0.4773
   16MOL   C146 3476   4.409   7.745   6.019  0.4643  0.3413 -0.1930
   16MOL   O147 3477   4.299   7.743   5.974 -0.0769  0.2475  0.1856
   16MOL   C148 3478   4.526   7.778   5.925  0.1368 -0.5486  0.5598
   16MOL   C149 3479   4.315   7.670   6.235 -0.2354  0.5162 -0.1289
   16MOL   H150 3480   4.503   7.625   6.160  0.0106 -0.3599 -1.5763
   16MOL   H151 3481   4.612   7.713   5.939  1.0847  0.2769 -1.3252
   16MOL   H152 3482   4.502   7.784   5.819  1.6042  0.8492  0.2854
   16MOL   H153 3483   4.571   0.032   5.949  2.9625 -1.4461 -1.0023
   16MOL   H154 3484   4.240   7.748   6.218 -2.3714 -0.8960  2.4574
   16MOL   H155 3485   4.325   7.674   6.343 -2.0957  0.1284  0.0680
   16MOL   C156 3486   4.274   7.528   6.196  0.0769 -1.0577 -0.1144
   16MOL   C157 3487   4.124   7.507   6.215 -0.4020 -0.2488 -0.5119
   16MOL   O158 3488   4.070   7.525   6.324 -0.0561  0.2348  0.1538
   16MOL   C159 3489   4.039   7.454   6.094 -0.3898 -0.1724  0.3574
   16MOL   C160 3490   4.353   7.420   6.272 -0.7194 -0.5260  0.6743
   16MOL   H161 3491   4.294   7.511   6.090  0.7902  2.6804 -0.6248
   16MOL   H162 3492   4.084   7.460   5.994 -0.6385  1.1032  0.3139
   16MOL   H163 3493   4.019   7.348   6.101 -1.4842  0.0914  1.4292
   16MOL   H164 3494   3.939   7.497   6.101 -0.3864 -0.1914  0.5167
   16MOL   H165 3495   4.326   7.424   6.378 -2.7097  2.2824  0.1108
   16MOL   H166 3496   4.457   7.453   6.274  0.1200 -2.6506 -2.9106
   16MOL   C167 3497   4.330   7.277   6.213 -0.3768 -0.6352  0.1803
   16MOL   C168 3498   4.288   7.165   6.321  0.3476 -0.5545  0.3818
   16MOL   O169 3499   4.348   7.157   6.432  0.0378  0.4237  0.1970
   16MOL   C170 3500   4.177   7.071   6.279  0.5688 -0.7067  0.7028
   16MOL   C171 3501   4.434   7.216   6.122 -0.8011  0.3543  0.0286
   16MOL   H172 3502   4.240   7.286   6.154 -0.4709  1.8282  0.6367
   16MOL   H173 3503   4.214   7.003   6.202 -0.3468 -1.1747  0.6716
   16MOL   H174 3504   4.141   7.016   6.366 -0.8360 -0.0482  0.5366
   16MOL   H175 3505   4.098   7.135   6.241 -0.1194 -0.7141  2.0859
   16MOL   H176 3506   4.452   7.281   6.037 -1.6992 -0.9139 -1.1529
   16MOL   H177 3507   4.386   7.131   6.073  0.6120 -0.1833 -0.4388
   16MOL   C178 3508   4.571   7.185   6.181  0.6934  0.5815 -0.0362
   16MOL   C179 3509   4.673   7.299   6.157  0.0838  0.1474 -1.1696
   16MOL   O180 3510   4.653   7.392   6.084 -0.3241 -0.2747 -0.1252
   16MOL   C181 3511   4.812   7.292   6.227 -0.1540  0.4264  0.3575
   16MOL   C182 3512   4.623   7.056   6.115 -0.0507  0.5886  1.4949
   16MOL   H183 3513   4.574   7.169   6.289 -4.2099  1.0815  0.3024
   16MOL   H184 3514   4.833   7.187   6.247  0.5896  0.0998 -1.9540
   16MOL   H185 3515   4.898   7.335   6.175 -0.5426 -0.4738 -1.0535
   16MOL   H186 3516   4.808   7.339   6.324  1.1538  2.0186 -0.3386
   16MOL   H187 3517   4.731   7.064   6.127  0.0782  0.6217  0.3517
   16MOL   H188 3518   4.608   7.057   6.007 -0.9875 -1.8838  1.5570
   16MOL   C189 3519   4.580   6.921   6.174 -0.1583 -0.8304 -0.4089
   16MOL   C190 3520   4.656   6.898   6.311 -0.5168 -0.6908 -0.1028
   16MOL   O191 3521   4.773   6.864   6.316  0.1669  0.3667 -0.6240
   16MOL   C192 3522   4.575   6.918   6.441  0.4759 -0.4285  0.3425
   16MOL   C193 3523   4.617   6.803   6.083  0.1570 -0.2331  0.2173
   16MOL   H194 3524   4.471   6.916   6.181 -0.3263  1.4628 -1.1878
   16MOL   H195 3525   4.605   6.888   6.542 -1.7383  2.5869  1.9828
   16MOL   H196 3526   4.553   7.025   6.450 -2.6809 -0.8256 -1.8076
   16MOL   H197 3527   4.483   6.865   6.416  0.8757 -0.8563 -0.2298
   16MOL   H198 3528   4.722   6.821   6.058  0.1998  0.3666  0.8211
   16MOL   H199 3529   4.565   6.808   5.987  0.4012 -0.8192  0.0485
   16MOL   C200 3530   4.605   6.653   6.126 -0.4732  0.6833  0.3657
   16MOL   C201 3531   4.647   6.558   6.009  0.5149 -0.0108 -0.1056
   16MOL   O202 3532   4.561   6.489   5.953  0.1230  0.5452  0.6394
   16MOL   C203 3533   4.798   6.546   5.994  0.1725  0.4485 -0.1045
   16MOL   C204 3534   4.465   6.623   6.186 -0.3734 -0.4978  0.2241
   16MOL   H205 3535   4.669   6.641   6.214 -0.9343 -2.4465  0.3158
   16MOL   H206 3536   4.828   6.442   5.982  0.6027  0.6886 -1.1733
   16MOL   H207 3537   4.827   6.603   5.906 -0.0654  1.4270  0.4496
   16MOL   H208 3538   4.832   6.589   6.088 -0.7904  1.2328 -0.1038
   16MOL   H209 3539   4.449   6.698   6.263  0.3129  0.9854 -1.0330
   16MOL   H210 3540   4.472   6.531   6.244  0.6758 -1.5272 -1.4865
   16MOL   C211 3541   4.330   6.604   6.097 -0.1286  0.0397 -0.0378
   16MOL   C212 3542   4.300   6.721   6.003 -0.3055 -0.6434 -0.7124
   16MOL   O213 3543   4.249   6.827   6.045 -0.3231  0.6018 -0.2384
   16MOL   C214 3544   4.358   6.704   5.864 -0.2926 -0.2550  0.0803
   16MOL   C215 3545   4.210   6.590   6.195  0.2281 -0.4456 -0.1563
   16MOL   H216 3546   4.338   6.505   6.052 -0.3154 -0.2157  0.4812
   16MOL   H217 3547   4.355   6.599   5.834 -1.3198 -0.4606  0.8827
   16MOL   H218 3548   4.289   6.759   5.801 -0.7051  0.1132  0.8429
   16MOL   H219 3549   4.460   6.738   5.842 -1.0503  1.8395 -0.3413
   16MOL   H220 3550   4.214   6.501   6.258 -2.3632 -0.9118 -0.6253
   16MOL   H221 3551   4.120   6.574   6.136  0.6091 -0.9331 -0.6133
   16MOL   H222 3552   4.196   6.671   6.266 -2.1052  0.6884 -1.8591
   17MOL     C1 3553   4.037   6.754   3.613 -0.0190 -0.0432 -0.1375
   17MOL     C2 3554   3.903   6.686   3.625  0.0922 -0.1128  0.0515
   17MOL     O3 3555   3.834   6.662   3.526 -0.2158 -0.2319  0.3340
   17MOL     C4 3556   3.854   6.640   3.761  0.1066 -0.7565  0.4450
   17MOL     C5 3557   4.031   6.846   3.493 -0.1054 -0.3801 -0.4790
   17MOL     H6 3558   4.040   6.815   3.704 -1.6689  0.9417 -0.7119
   17MOL     H7 3559   3.854   6.722   3.832 -2.2104  2.2060 -2.8118
   17MOL     H8 3560   3.751   6.612   3.738  0.8391 -3.1693 -0.1281
   17MOL     H9 3561   3.901   6.547   3.793 -0.6358 -1.6287 -0.9553
   17MOL    H10 3562   3.936   6.895   3.475 -0.4314 -0.9504 -0.3437
   17MOL    H11 3563   4.032   6.781   3.406 -3.9012  0.3610 -1.1515
   17MOL    H12 3564   4.110   6.674   3.612  0.7453  0.5975  2.3042
   17MOL    C13 3565   4.142   6.953   3.493 -0.3576  0.3276  0.0484
   17MOL    C14 3566   4.094   7.089   3.547 -0.2093 -0.3999  0.1045
   17MOL    O15 3567   3.987   7.141   3.514  0.2421  0.2694  0.4169
   17MOL    C16 3568   4.194   7.171   3.638  0.2101 -0.0370 -0.1750
   17MOL    C17 3569   4.184   6.972   3.344  0.2939  0.1431  0.4322
   17MOL    H18 3570   4.233   6.923   3.545 -0.9622  1.5590  1.8745
   17MOL    H19 3571   4.244   7.237   3.567 -2.5053  1.0606 -1.0961
   17MOL    H20 3572   4.144   7.241   3.705  0.5298 -1.8108  2.0097
   17MOL    H21 3573   4.269   7.107   3.685  0.0651  0.0518  0.1806
   17MOL    H22 3574   4.233   6.879   3.312  1.0669  0.5338  0.4707
   17MOL    H23 3575   4.265   7.044   3.345  1.8582 -1.5492 -0.2631
   17MOL    C24 3576   4.083   7.029   3.241  0.2514  0.0340 -0.6911
   17MOL    C25 3577   3.983   6.922   3.184 -0.0900 -0.0122 -0.2740
   17MOL    O26 3578   4.009   6.841   3.094  0.0660  0.6524 -0.1791
   17MOL    C27 3579   3.837   6.926   3.233 -0.1517  0.4375  0.0327
   17MOL    C28 3580   4.163   7.104   3.122  0.1869  0.1110  0.1495
   17MOL    H29 3581   4.021   7.107   3.284  1.0946  0.5303 -0.3667
   17MOL    H30 3582   3.783   6.923   3.138  1.7838  3.6360 -1.2171
   17MOL    H31 3583   3.818   6.845   3.304  0.2498  0.5013  0.2113
   17MOL    H32 3584   3.806   7.019   3.279  0.6600  0.5760  0.3046
   17MOL    H33 3585   4.116   7.090   3.024  0.4667 -1.7387  0.2691
   17MOL    H34 3586   4.257   7.053   3.103  0.2793  0.0175  0.8707
   17MOL    C35 3587   4.188   7.257   3.138  0.4053 -0.1975  0.2244
   17MOL    C36 3588   4.230   7.312   3.002  0.1160  0.9485 -0.1278
   17MOL    O37 3589   4.348   7.299   2.969 -0.1844 -0.5383 -0.0488
   17MOL    C38 3590   4.133   7.389   2.915  0.1406 -0.4490 -0.0820
   17MOL    C39 3591   4.296   7.292   3.250  0.7748  0.8314  0.3159
   17MOL    H40 3592   4.093   7.308   3.158 -0.9333 -2.6134  0.2558
   17MOL    H41 3593   4.132   7.490   2.957  1.0705 -0.5195  0.1224
   17MOL    H42 3594   4.165   7.400   2.811  2.7762  0.2108  0.7636
   17MOL    H43 3595   4.034   7.346   2.923  0.6676 -1.5151  0.7591
   17MOL    H44 3596   4.375   7.221   3.230 -1.9404 -1.9011 -1.2112
   17MOL    H45 3597   4.272   7.250   3.347 -2.6535  1.7867 -0.0392
   17MOL    C46 3598   4.328   7.438   3.269 -0.0012  0.4725  0.6096
   17MOL    C47 3599   4.465   7.444   3.334 -0.7396  1.0086  0.2986
   17MOL    O48 3600   4.480   7.420   3.453  0.0946 -0.1811  0.0557
   17MOL    C49 3601   4.576   7.495   3.243 -0.1972  0.1532  0.0082
   17MOL    C50 3602   4.217   7.492   3.364  0.0301 -0.0788 -0.1391
   17MOL    H51 3603   4.334   7.487   3.172  0.4412  1.5412  1.1740
   17MOL    H52 3604   4.579   7.442   3.148  0.9466  0.5042 -0.1496
   17MOL    H53 3605   4.561   7.601   3.226 -0.4591  0.0894 -0.1664
   17MOL    H54 3606   4.673   7.490   3.292 -0.8067  0.0924  1.2406
   17MOL    H55 3607   4.254   7.482   3.466 -1.2056 -1.2604  0.2031
   17MOL    H56 3608   4.135   7.421   3.368  1.3133 -1.5556  0.2666
   17MOL    C57 3609   4.162   7.633   3.334  0.2034 -0.6748 -0.2062
   17MOL    C58 3610   4.280   7.733   3.334 -0.2503 -0.2677 -0.4542
   17MOL    O59 3611   4.346   7.760   3.438 -0.3002  0.3960  0.4038
   17MOL    C60 3612   4.314   7.805   3.203  0.5137 -0.1098 -0.0739
   17MOL    C61 3613   4.056   7.664   3.433  0.2910 -0.4941  0.5827
   17MOL    H62 3614   4.120   7.633   3.233  1.1084  1.4800 -0.6212
   17MOL    H63 3615   4.327   0.070   3.221 -0.4841  0.0787 -0.4673
   17MOL    H64 3616   4.407   7.769   3.159  1.5357  0.7302  1.3504
   17MOL    H65 3617   4.247   7.784   3.120  2.2728 -0.0348 -1.5462
   17MOL    H66 3618   4.105   7.677   3.530  1.2270  0.2877  0.0172
   17MOL    H67 3619   3.989   7.579   3.447  0.0542  0.1656  3.8148
   17MOL    C68 3620   3.967   7.778   3.390 -0.3573 -0.3611  0.2198
   17MOL    C69 3621   3.904   0.003   3.516 -0.0996 -0.1338 -0.9757
   17MOL    O70 3622   3.803   7.799   3.564 -0.2963  0.2371  0.2214
   17MOL    C71 3623   3.981   0.116   3.577 -0.2904 -0.2926 -0.2072
   17MOL    C72 3624   3.869   7.734   3.281 -0.5822 -0.6837  0.6466
   17MOL    H73 3625   4.027   0.015   3.345  0.0051 -1.1650 -0.7204
   17MOL    H74 3626   4.083   0.082   3.589 -0.8171 -1.7113  0.3771
   17MOL    H75 3627   3.978   0.205   3.514  1.5234  0.6113  0.9688
   17MOL    H76 3628   3.947   0.149   3.675 -0.8705  2.3319 -1.2449
   17MOL    H77 3629   3.802   7.660   3.323  0.2040 -2.5549 -1.3071
   17MOL    H78 3630   3.919   7.680   3.201 -1.3101 -1.0111  0.4097
   17MOL    C79 3631   3.786   0.016   3.223  0.1658 -0.4948  0.4549
   17MOL    C80 3632   3.646   7.812   3.191 -0.7439 -0.4668  0.1652
   17MOL    O81 3633   3.604   7.699   3.178 -0.1258 -0.4110 -0.2896
   17MOL    C82 3634   3.547   0.087   3.193 -0.2328  0.0899  0.3872
   17MOL    C83 3635   3.838   0.086   3.092  0.0162  0.4547 -0.2841
   17MOL    H84 3636   3.778   0.094   3.299  2.3046  0.2449 -0.0331
   17MOL    H85 3637   3.544   0.150   3.282  1.1917 -1.3296  1.4871
   17MOL    H86 3638   3.561   0.139   3.099 -2.3985  3.5500  1.8837
   17MOL    H87 3639   3.450   0.043   3.173 -0.8914  3.1136 -3.7083
   17MOL    H88 3640   3.939   0.125   3.109 -0.4901  1.0802  1.4372
   17MOL    H89 3641   3.788   0.183   3.087 -1.4053 -0.0393  3.2950
   17MOL    C90 3642   3.833   0.004   2.958  0.8288  0.1811 -0.2829
   17MOL    C91 3643   3.949   7.749   2.940 -0.3132 -0.9295 -0.2517
   17MOL    O92 3644   4.075   7.777   2.944 -0.3374  0.7279 -0.1288
   17MOL    C93 3645   3.904   7.607   2.912 -0.2907 -0.5412  0.1517
   17MOL    C94 3646   3.847   0.103   2.831  0.7657 -0.3034  0.1594
   17MOL    H95 3647   3.742   7.786   2.950  0.7764  0.4243 -1.7202
   17MOL    H96 3648   3.922   7.541   2.997 -0.2103  0.9422  1.3081
   17MOL    H97 3649   3.797   7.605   2.891  0.1235 -0.9797 -2.0201
   17MOL    H98 3650   3.958   7.564   2.829 -0.8647 -2.6039  0.8240
   17MOL    H99 3651   3.914   0.071   2.751  0.0144 -0.0884 -0.5611
   17MOL   H100 3652   3.891   0.198   2.862 -1.3526  0.3800  1.1359
   17MOL   C101 3653   3.710   0.151   2.776  0.6983  0.2125  0.3967
   17MOL   C102 3654   3.646   0.022   2.723  0.1804 -0.0378 -0.8416
   17MOL   O103 3655   3.705   7.775   2.659 -0.3848 -0.3823  0.3991
   17MOL   C104 3656   3.496   0.016   2.756 -0.6020  0.4671 -0.3044
   17MOL   C105 3657   3.720   0.250   2.667  0.1628 -0.3038  0.8125
   17MOL   H106 3658   3.651   0.196   2.855 -0.9999  0.7093 -1.1251
   17MOL   H107 3659   3.463   0.118   2.775 -2.2179 -0.0008 -0.5603
   17MOL   H108 3660   3.448   7.808   2.672 -0.3658  1.2130 -0.8859
   17MOL   H109 3661   3.473   7.799   2.844 -1.5347  0.8721 -0.2717
   17MOL   H110 3662   3.635   0.230   2.601 -0.5838  0.8784  1.4016
   17MOL   H111 3663   3.799   0.217   2.599 -2.3703 -0.7833 -2.0360
   17MOL   C112 3664   3.720   0.394   2.701 -0.3367 -0.8382  0.1247
   17MOL   C113 3665   3.588   0.454   2.763  0.9553 -0.4339  0.2247
   17MOL   O114 3666   3.475   0.426   2.717 -0.4595 -0.3815 -0.1358
   17MOL   C115 3667   3.606   0.537   2.889  0.2056  0.3390 -0.4386
   17MOL   C116 3668   3.767   0.487   2.590 -0.1933 -0.0650 -0.7409
   17MOL   H117 3669   3.799   0.400   2.775  2.1191  0.1900 -2.4786
   17MOL   H118 3670   3.711   0.554   2.912  0.1178  1.7871 -1.0790
   17MOL   H119 3671   3.551   0.630   2.886  1.1378  1.0150  2.1007
   17MOL   H120 3672   3.565   0.488   2.977 -0.1402  0.8729 -0.3014
   17MOL   H121 3673   3.867   0.451   2.563 -0.0884 -2.3251  2.4444
   17MOL   H122 3674   3.793   0.573   2.651 -0.5288 -1.4138  1.3293
   17MOL   C123 3675   3.687   0.514   2.463  0.0628 -0.0244 -0.6044
   17MOL   C124 3676   3.653   0.384   2.381 -0.8505  0.8183  0.0305
   17MOL   O125 3677   3.742   0.300   2.367 -0.1145 -0.2945 -0.2575
   17MOL   C126 3678   3.510   0.360   2.342  0.1214 -0.1325  0.9344
   17MOL   C127 3679   3.755   0.612   2.367  0.9505  0.1022  0.5466
   17MOL   H128 3680   3.592   0.547   2.504 -0.5304 -0.2589 -1.7909
   17MOL   H129 3681   3.491   0.389   2.239  0.8102  0.9943  1.1149
   17MOL   H130 3682   3.477   0.256   2.343 -0.8505  0.1502 -0.5820
   17MOL   H131 3683   3.449   0.414   2.414 -2.1373 -0.5637 -0.5981
   17MOL   H132 3684   3.835   0.570   2.306  0.0271  0.0823 -0.6586
   17MOL   H133 3685   3.813   0.680   2.430 -1.3326  0.3944  2.3795
   17MOL   C134 3686   3.656   0.697   2.286 -0.1629  0.5129  0.2194
   17MOL   C135 3687   3.734   0.740   2.155 -0.3021 -0.1631 -0.3260
   17MOL   O136 3688   3.822   0.825   2.157  0.4778  0.2319 -0.3497
   17MOL   C137 3689   3.692   0.684   2.022 -0.1404  0.0510 -0.6389
   17MOL   C138 3690   3.586   0.805   2.367 -0.6084 -0.6747 -0.5677
   17MOL   H139 3691   3.580   0.634   2.240  2.2671 -1.5519 -1.0582
   17MOL   H140 3692   3.743   0.728   1.936  1.6154  1.4091  1.0401
   17MOL   H141 3693   3.715   0.578   2.023  0.8185  0.2396  3.5712
   17MOL   H142 3694   3.586   0.698   2.001  0.2943  0.7285 -2.4963
   17MOL   H143 3695   3.659   0.848   2.434 -0.5774 -0.2745 -0.8574
   17MOL   H144 3696   3.512   0.757   2.432  1.9725 -0.9665  2.2778
   17MOL   C145 3697   3.518   0.921   2.293  0.1893 -0.4677 -0.3775
   17MOL   C146 3698   3.483   1.032   2.394  0.0821  0.3477  0.4102
   17MOL   O147 3699   3.406   1.006   2.487  0.0738 -0.0736  0.6568
   17MOL   C148 3700   3.530   1.173   2.366 -0.2500 -0.2194 -0.3322
   17MOL   C149 3701   3.402   0.864   2.207  0.0182 -0.1061  0.4296
   17MOL   H150 3702   3.590   0.967   2.225  0.2163 -0.0534 -0.0671
   17MOL   H151 3703   3.639   1.171   2.360 -0.2486 -0.0830 -0.3322
   17MOL   H152 3704   3.492   1.212   2.271 -0.7084  2.7042  1.0117
   17MOL   H153 3705   3.499   1.241   2.445  2.0393 -1.5130  1.7517
   17MOL   H154 3706   3.343   0.789   2.259  0.8627 -0.3960  0.9703
   17MOL   H155 3707   3.457   0.809   2.130  1.0128 -0.0392  1.0887
   17MOL   C156 3708   3.317   0.962   2.117  0.2737  0.2921 -0.3643
   17MOL   C157 3709   3.168   0.929   2.135 -0.5361  0.0080  0.3263
   17MOL   O158 3710   3.099   0.873   2.050  0.4836 -0.0491  0.3697
   17MOL   C159 3711   3.107   0.953   2.268  0.9089  0.0894 -0.2636
   17MOL   C160 3712   3.362   0.960   1.968  0.0972  0.4113  1.1331
   17MOL   H161 3713   3.332   1.065   2.149  3.5556 -0.3886  0.4431
   17MOL   H162 3714   3.131   0.882   2.347  0.0148  0.3355  0.2292
   17MOL   H163 3715   3.120   1.056   2.300  1.8350  0.2343 -1.0851
   17MOL   H164 3716   3.000   0.957   2.247  0.7730  0.6459  0.5082
   17MOL   H165 3717   3.298   1.033   1.918  0.3575  1.2905  2.0466
   17MOL   H166 3718   3.344   0.860   1.930 -0.1632  1.1780 -0.7826
   17MOL   C167 3719   3.501   1.017   1.941  0.0004 -0.2989 -0.5681
   17MOL   C168 3720   3.495   1.175   1.944  0.4401  0.6414 -0.5109
   17MOL   O169 3721   3.391   1.239   1.918 -1.1872  0.0802  0.0690
   17MOL   C170 3722   3.628   1.241   1.969 -0.3625  0.1725 -0.1685
   17MOL   C171 3723   3.574   0.961   1.817 -0.1613  0.5194  1.3619
   17MOL   H172 3724   3.556   0.985   2.029 -1.0306  1.8810  0.8933
   17MOL   H173 3725   3.628   1.347   1.946  2.8439  0.2963  0.2558
   17MOL   H174 3726   3.643   1.231   2.077 -2.7055 -0.8217  0.1016
   17MOL   H175 3727   3.706   1.189   1.914 -0.8144  0.0729 -0.7235
   17MOL   H176 3728   3.579   0.853   1.835 -1.3933  0.0924 -0.6802
   17MOL   H177 3729   3.679   0.992   1.815  0.2494 -0.9067 -2.3895
   17MOL   C178 3730   3.532   0.982   1.669 -0.5656 -0.7790 -0.3981
   17MOL   C179 3731   3.387   0.932   1.650  0.3134 -0.0133  0.1474
   17MOL   O180 3732   3.348   0.817   1.667  0.2124 -0.1050 -0.6516
   17MOL   C181 3733   3.292   1.042   1.605  0.2630  0.3175 -0.3464
   17MOL   C182 3734   3.624   0.909   1.562 -0.0526  0.7680 -0.1950
   17MOL   H183 3735   3.532   1.091   1.660  1.4463 -0.7350 -0.0717
   17MOL   H184 3736   3.324   1.146   1.620 -2.5082  1.2507 -0.7151
   17MOL   H185 3737   3.287   1.034   1.497  1.8482  0.6852 -0.4696
   17MOL   H186 3738   3.189   1.034   1.640  0.5841  0.3794  0.6390
   17MOL   H187 3739   3.625   0.803   1.587 -1.2120  0.7082 -0.3762
   17MOL   H188 3740   3.726   0.945   1.576  0.9727 -1.9655 -0.2347
   17MOL   C189 3741   3.584   0.914   1.417 -0.3664 -0.1952  0.1964
   17MOL   C190 3742   3.592   0.771   1.348  0.7367  0.1409 -0.5220
   17MOL   O191 3743   3.684   0.744   1.273 -0.7458 -0.0780  0.0407
   17MOL   C192 3744   3.479   0.671   1.376 -0.0486 -0.2273  0.2143
   17MOL   C193 3745   3.660   1.030   1.332 -0.1549  0.1974 -0.2163
   17MOL   H194 3746   3.479   0.943   1.423 -0.1952  0.6333 -0.8534
   17MOL   H195 3747   3.517   0.569   1.369 -2.5406 -1.3044  1.7212
   17MOL   H196 3748   3.431   0.685   1.473  1.7623 -0.1306  1.1270
   17MOL   H197 3749   3.406   0.679   1.296 -0.6223  2.5246  0.9533
   17MOL   H198 3750   3.742   0.975   1.286  1.5521 -0.5364  3.5620
   17MOL   H199 3751   3.713   1.097   1.399 -0.4240 -0.3703  0.5668
   17MOL   C200 3752   3.588   1.104   1.218 -0.6184 -0.2129  0.5502
   17MOL   C201 3753   3.495   1.214   1.278  0.1485  0.1593 -0.5220
   17MOL   O202 3754   3.468   1.205   1.401  0.0946  0.4120  0.4502
   17MOL   C203 3755   3.428   1.316   1.189  0.7848  0.2937 -0.0053
   17MOL   C204 3756   3.504   1.024   1.113 -0.2214  0.2048  0.3195
   17MOL   H205 3757   3.663   1.161   1.162 -0.6766 -1.5113 -0.8788
   17MOL   H206 3758   3.442   1.419   1.222 -1.5133  0.0331  1.9056
   17MOL   H207 3759   3.464   1.314   1.086  0.7362 -0.5926 -0.0080
   17MOL   H208 3760   3.320   1.303   1.186  0.4981  2.7294 -2.5399
   17MOL   H209 3761   3.443   1.089   1.051 -2.4926 -0.7174  1.5164
   17MOL   H210 3762   3.436   0.961   1.170  0.4198 -0.6026  0.2008
   17MOL   C211 3763   3.594   0.934   1.023 -0.2553  0.0265 -0.0414
   17MOL   C212 3764   3.662   1.008   0.902 -0.3841  0.4120 -0.2239
   17MOL   O213 3765   3.592   1.064   0.817  0.1258  0.1836 -0.6793
   17MOL   C214 3766   3.802   1.043   0.894  0.0478 -0.2123 -1.0000
   17MOL   C215 3767   3.511   0.818   0.968 -0.2849 -0.2430 -0.0248
   17MOL   H216 3768   3.679   0.894   1.078 -0.1092 -0.3372 -0.5311
   17MOL   H217 3769   3.824   1.139   0.847  1.3180  0.8019  1.5900
   17MOL   H218 3770   3.855   1.046   0.989 -2.6594  0.5842  0.5136
   17MOL   H219 3771   3.859   0.968   0.838  2.3380  1.6832 -1.2845
   17MOL   H220 3772   3.474   0.754   1.048  1.1469 -2.4590 -1.1045
   17MOL   H221 3773   3.567   0.759   0.895  0.8831 -0.0983  0.7449
   17MOL   H222 3774   3.420   0.858   0.922  0.9860  1.7159 -0.9019
   18MOL     C1 3775   4.309   4.300   1.340  0.8874  0.6594 -0.3353
   18MOL     C2 3776   4.348   4.407   1.431 -0.7612 -0.0827 -0.7311
   18MOL     O3 3777   4.450   4.470   1.405 -0.1316 -0.4932  0.8371
   18MOL     C4 3778   4.268   4.417   1.562 -0.6041 -0.0820  0.7230
   18MOL     C5 3779   4.380   4.292   1.206 -0.0573  0.2063  0.1365
   18MOL     H6 3780   4.322   4.204   1.391  2.4845 -0.0246 -2.0004
   18MOL     H7 3781   4.319   4.489   1.626 -2.0500  2.4661 -0.8518
   18MOL     H8 3782   4.170   4.456   1.534 -0.0164  0.4931 -0.6322
   18MOL     H9 3783   4.251   4.318   1.603 -0.6988 -0.6075 -0.5452
   18MOL    H10 3784   4.362   4.193   1.164  0.7476 -0.4416  1.2723
   18MOL    H11 3785   4.488   4.287   1.224  0.2497  0.0559 -1.6067
   18MOL    H12 3786   4.203   4.315   1.316  0.2660 -1.6742  0.7738
   18MOL    C13 3787   4.363   4.407   1.105  0.2685 -0.0982  0.0109
   18MOL    C14 3788   4.217   4.432   1.055  0.0047 -0.5872 -1.1260
   18MOL    O15 3789   4.140   4.337   1.041 -0.6440 -0.2605 -0.2132
   18MOL    C16 3790   4.168   4.576   1.021  0.2688  0.4917 -1.1354
   18MOL    C17 3791   4.450   4.390   0.977 -0.0557 -0.0439 -0.1397
   18MOL    H18 3792   4.389   4.503   1.149  1.0660 -0.0203 -0.6196
   18MOL    H19 3793   4.225   4.607   0.933  1.1633 -0.5143 -0.9210
   18MOL    H20 3794   4.060   4.578   1.005  0.2166 -4.7425 -2.3454
   18MOL    H21 3795   4.201   4.652   1.092 -0.3459  0.5328 -0.8974
   18MOL    H22 3796   4.397   4.410   0.884 -0.2290 -0.7074 -0.1908
   18MOL    H23 3797   4.482   4.288   0.954 -0.0673 -0.1291  0.2079
   18MOL    C24 3798   4.579   4.478   0.974 -0.8960 -0.3386  0.5899
   18MOL    C25 3799   4.555   4.622   0.935  0.4598  0.7903 -0.9357
   18MOL    O26 3800   4.454   4.671   0.890  0.5340 -0.0798 -0.4782
   18MOL    C27 3801   4.677   4.716   0.966 -0.0513  0.2234  0.4750
   18MOL    C28 3802   4.696   4.410   0.893  0.0669 -0.4775 -0.4703
   18MOL    H29 3803   4.614   4.469   1.077 -2.9170 -1.5936  1.1981
   18MOL    H30 3804   4.728   4.721   0.870 -0.2012 -2.3328  0.2081
   18MOL    H31 3805   4.657   4.817   1.001 -0.4489  0.4684 -0.4516
   18MOL    H32 3806   4.744   4.667   1.037  0.9499  0.2598 -0.4284
   18MOL    H33 3807   4.776   4.483   0.879  0.0700 -0.4327 -0.2096
   18MOL    H34 3808   4.656   4.397   0.792  1.6623 -2.1576 -0.9158
   18MOL    C35 3809   4.756   4.281   0.943  0.5519 -0.2642  0.8292
   18MOL    C36 3810   4.831   4.297   1.073  0.2092 -0.1279 -0.4151
   18MOL    O37 3811   4.915   4.380   1.090 -0.1883 -0.3652  0.0203
   18MOL    C38 3812   4.795   4.201   1.183  0.0377  0.5413 -0.5424
   18MOL    C39 3813   4.855   4.228   0.833  0.1991  0.2523  0.2488
   18MOL    H40 3814   4.680   4.203   0.950 -0.4908  0.5375 -1.2574
   18MOL    H41 3815   4.692   4.165   1.176  1.0002 -2.3939 -0.2094
   18MOL    H42 3816   4.858   4.114   1.162 -2.1135 -0.9538 -1.0811
   18MOL    H43 3817   4.816   4.242   1.282  1.5942 -0.4843 -0.4193
   18MOL    H44 3818   4.905   4.136   0.862 -0.0531 -0.3236 -1.1297
   18MOL    H45 3819   4.936   4.302   0.830 -1.1105  1.6627 -0.6447
   18MOL    C46 3820   4.813   4.223   0.692  1.0187  0.5339 -0.1452
   18MOL    C47 3821   4.676   4.154   0.658  0.6654 -0.2875 -0.0662
   18MOL    O48 3822   4.603   4.198   0.572  0.0705 -0.0645 -0.0853
   18MOL    C49 3823   4.651   4.022   0.736  0.3453 -0.0360 -1.0367
   18MOL    C50 3824   4.927   4.166   0.612  0.0911  0.2099 -0.3419
   18MOL    H51 3825   4.804   4.328   0.662 -1.7623  0.9152  1.9069
   18MOL    H52 3826   4.730   3.989   0.804 -1.2811 -1.1926  0.3353
   18MOL    H53 3827   4.566   4.031   0.804  1.9636  1.5991  0.8480
   18MOL    H54 3828   4.629   3.936   0.672 -1.6438 -0.4125  0.1027
   18MOL    H55 3829   4.945   4.060   0.630 -1.7368 -0.1304 -0.4523
   18MOL    H56 3830   5.018   4.211   0.651  0.5816 -2.4218  1.7134
   18MOL    C57 3831   4.924   4.195   0.454 -0.2893 -0.1726 -0.2872
   18MOL    C58 3832   4.945   4.064   0.372  0.5183  1.0307 -0.2203
   18MOL    O59 3833   4.957   3.950   0.427 -0.7753  0.5462  0.2969
   18MOL    C60 3834   4.925   4.077   0.223  0.1281  0.0416 -0.1856
   18MOL    C61 3835   5.032   4.309   0.415 -0.3317 -0.3167  0.6551
   18MOL    H62 3836   4.823   4.226   0.424 -1.0923 -1.1106  1.4056
   18MOL    H63 3837   5.021   4.041   0.185  0.7456  0.9202  0.4957
   18MOL    H64 3838   4.852   4.014   0.173 -0.1140 -1.1576  1.6275
   18MOL    H65 3839   4.910   4.179   0.187  0.1672  0.8686  2.0933
   18MOL    H66 3840   5.057   4.310   0.309 -1.5642  2.9167  0.3211
   18MOL    H67 3841   5.124   4.288   0.470 -0.1314 -0.2731  0.3406
   18MOL    C68 3842   4.990   4.443   0.469 -0.3614 -0.7379 -0.3989
   18MOL    C69 3843   4.842   4.486   0.440  0.4940 -0.5464  0.6378
   18MOL    O70 3844   4.758   4.524   0.523  0.1000 -0.6884 -0.2671
   18MOL    C71 3845   4.790   4.476   0.299  0.5719 -0.6074 -0.1098
   18MOL    C72 3846   5.086   4.562   0.429 -0.3181  0.1995 -0.2052
   18MOL    H73 3847   4.997   4.448   0.578 -0.5683 -3.0908 -0.2717
   18MOL    H74 3848   4.728   4.387   0.290  0.0350 -0.5978  2.9871
   18MOL    H75 3849   4.724   4.562   0.289  0.8285 -0.5457 -1.3161
   18MOL    H76 3850   4.865   4.491   0.221 -2.4830  0.2564 -3.0132
   18MOL    H77 3851   5.034   4.644   0.378  2.4768  1.4274 -1.2023
   18MOL    H78 3852   5.144   4.520   0.347 -1.6855  2.1931 -2.2530
   18MOL    C79 3853   5.173   4.609   0.546  0.4288 -0.6808  0.6950
   18MOL    C80 3854   5.263   4.500   0.617 -0.4451 -0.2504  1.1117
   18MOL    O81 3855   5.241   4.465   0.734 -0.1833 -0.2098 -0.0811
   18MOL    C82 3856   5.364   4.430   0.529 -0.1048  0.1916  0.2422
   18MOL    C83 3857   5.101   4.710   0.642 -0.3250 -0.3126 -0.0180
   18MOL    H84 3858   5.246   4.666   0.487 -0.2361 -1.0691 -0.5335
   18MOL    H85 3859   5.346   4.323   0.518 -0.4413  0.4666 -2.0524
   18MOL    H86 3860   5.353   4.469   0.428 -1.2621 -1.0849 -0.1340
   18MOL    H87 3861   5.472   4.438   0.547  0.0082 -1.4977  0.4064
   18MOL    H88 3862   5.029   4.655   0.700  0.3200 -1.0836  0.0577
   18MOL    H89 3863   5.039   4.769   0.574  0.7972  0.4723 -0.3932
   18MOL    C90 3864   5.191   4.803   0.731  0.0973 -0.1709  0.0733
   18MOL    C91 3865   5.122   4.839   0.865 -0.3265 -0.5589 -0.0596
   18MOL    O92 3866   5.075   4.948   0.891 -0.0489  0.0492  1.0417
   18MOL    C93 3867   5.123   4.736   0.977  0.3335 -0.4045  0.6561
   18MOL    C94 3868   5.216   4.930   0.651  0.1320 -0.1591  0.6831
   18MOL    H95 3869   5.286   4.754   0.755 -0.3741 -0.2521  1.7982
   18MOL    H96 3870   5.225   4.717   1.010  0.0341 -2.7462  0.3328
   18MOL    H97 3871   5.064   4.768   1.063 -0.8139 -1.6710  0.3487
   18MOL    H98 3872   5.083   4.640   0.945  2.0871 -0.5078 -1.3632
   18MOL    H99 3873   5.123   4.985   0.665  1.5121  1.8452  2.2032
   18MOL   H100 3874   5.227   4.914   0.544  0.3451  1.8063  0.3956
   18MOL   C101 3875   5.344   5.009   0.700  0.3541  0.3825  0.7053
   18MOL   C102 3876   5.327   5.158   0.673 -0.4236  0.1538 -0.1604
   18MOL   O103 3877   5.272   5.192   0.573  0.3183 -0.6345  0.1536
   18MOL   C104 3878   5.389   5.250   0.777  0.6527  0.2705  0.0475
   18MOL   C105 3879   5.486   4.955   0.650  0.0012  0.7236  0.0046
   18MOL   H106 3880   5.350   4.999   0.808  0.0467 -0.8935  0.6086
   18MOL   H107 3881   5.369   5.356   0.764  0.7207  0.5235  1.9627
   18MOL   H108 3882   5.355   5.229   0.878 -1.6572  0.7959 -0.5919
   18MOL   H109 3883   5.497   5.256   0.762  0.5087  0.2726 -1.0288
   18MOL   H110 3884   5.490   4.847   0.668  0.2320  0.8649  0.8560
   18MOL   H111 3885   5.559   4.988   0.724 -0.6949 -1.5995  1.7949
   18MOL   C112 3886   5.536   5.000   0.509  0.1031 -0.0906  0.2113
   18MOL   C113 3887   5.465   4.926   0.397  0.1684  0.6254  0.0068
   18MOL   O114 3888   5.417   4.811   0.409  0.0035 -0.1236 -0.4763
   18MOL   C115 3889   5.449   5.010   0.267 -0.8490 -0.6282 -0.2242
   18MOL   C116 3890   5.685   4.965   0.493  0.0423  0.4399  0.3085
   18MOL   H117 3891   5.526   5.108   0.498 -0.9908 -0.1928  0.1451
   18MOL   H118 3892   5.343   5.036   0.265 -0.6078  0.3299 -0.9042
   18MOL   H119 3893   5.515   5.096   0.277  0.2386 -1.1631 -2.6221
   18MOL   H120 3894   5.485   4.954   0.181  2.4266 -0.7896  1.1845
   18MOL   H121 3895   5.719   4.968   0.390  1.1339 -0.8069  0.6237
   18MOL   H122 3896   5.697   4.865   0.535  0.0018  0.0642 -0.5600
   18MOL   C123 3897   5.787   5.061   0.562 -0.2922  0.2495 -0.5520
   18MOL   C124 3898   5.767   5.207   0.516 -0.0789 -0.6077 -0.9043
   18MOL   O125 3899   5.701   5.246   0.418  0.3126  0.1745 -0.0572
   18MOL   C126 3900   5.850   5.314   0.592  0.0253 -0.5114 -0.0018
   18MOL   C127 3901   5.936   5.008   0.546 -0.3685 -0.2731  0.6682
   18MOL   H128 3902   5.769   5.051   0.669 -0.9270 -3.8851 -0.9459
   18MOL   H129 3903   5.782   5.372   0.655  0.2475  0.7217 -0.8616
   18MOL   H130 3904   5.917   5.274   0.667  0.8458  0.0578 -0.4234
   18MOL   H131 3905   5.901   5.379   0.520  1.4271 -0.9986  0.5351
   18MOL   H132 3906   6.016   5.072   0.583  0.3068  1.2880 -3.2760
   18MOL   H133 3907   5.962   5.019   0.441  1.3431  1.2904  1.2470
   18MOL   C134 3908   5.958   4.865   0.601  0.5912 -0.0273  0.6041
   18MOL   C135 3909   5.938   4.877   0.753 -0.8242 -0.2191  0.4787
   18MOL   O136 3910   5.998   4.957   0.818 -0.6887  0.1983  0.3227
   18MOL   C137 3911   5.830   4.801   0.814  0.6596 -0.1205 -0.2998
   18MOL   C138 3912   6.104   4.813   0.582  1.4479 -0.5181  0.2726
   18MOL   H139 3913   5.883   4.802   0.553 -0.3467  1.4610  0.0520
   18MOL   H140 3914   5.800   4.715   0.753 -5.1316  1.0995  0.6024
   18MOL   H141 3915   5.861   4.768   0.913 -2.5244  2.1650  1.5236
   18MOL   H142 3916   5.743   4.866   0.820  0.5447 -0.0386 -2.2545
   18MOL   H143 3917   6.181   4.870   0.634  2.5470 -0.9256 -0.8762
   18MOL   H144 3918   6.132   4.847   0.482 -0.6453 -0.3952 -0.3067
   18MOL   C145 3919   6.131   4.665   0.579  0.6483  0.2389  0.2794
   18MOL   C146 3920   6.033   4.590   0.485 -0.5239  0.1404 -0.8423
   18MOL   O147 3921   5.918   4.551   0.516  0.3028 -0.0059  0.6075
   18MOL   C148 3922   6.086   4.560   0.346 -0.8211 -0.2613  0.3311
   18MOL   C149 3923   6.130   4.609   0.727 -0.0203  0.0916  0.4009
   18MOL   H150 3924   6.230   4.649   0.535  1.1587  1.5407  0.9363
   18MOL   H151 3925   6.156   4.478   0.331 -0.8747 -0.0533 -1.1870
   18MOL   H152 3926   6.001   4.536   0.282  1.0764 -4.1129 -0.8926
   18MOL   H153 3927   6.149   4.642   0.312 -1.1649 -0.4628 -0.8119
   18MOL   H154 3928   6.026   4.595   0.759 -0.3409  0.5490 -0.4178
   18MOL   H155 3929   6.170   4.675   0.803 -2.6500 -1.2063  3.0284
   18MOL   C156 3930   6.201   4.477   0.744 -0.6973 -0.2520  0.3207
   18MOL   C157 3931   6.174   4.400   0.873 -1.5356 -0.1170 -0.4065
   18MOL   O158 3932   6.155   4.280   0.870 -0.0680 -0.6900  0.3044
   18MOL   C159 3933   6.204   4.457   1.008  0.2346 -0.0911  0.1917
   18MOL   C160 3934   6.354   4.497   0.718  0.1982 -0.3342  0.6331
   18MOL   H161 3935   6.162   4.414   0.664  2.4029  0.4125 -1.7851
   18MOL   H162 3936   6.130   4.442   1.086  1.5673  2.8467  2.0835
   18MOL   H163 3937   6.292   4.406   1.047 -0.2789 -2.8145 -1.9783
   18MOL   H164 3938   6.212   4.565   0.994  0.7320 -0.1169  0.2657
   18MOL   H165 3939   6.382   4.581   0.782 -2.0199  0.8638  0.0763
   18MOL   H166 3940   6.370   4.521   0.613  0.0850  1.5848  1.0222
   18MOL   C167 3941   6.448   4.377   0.735  0.0388  0.3488 -0.2153
   18MOL   C168 3942   6.586   4.440   0.763 -0.0421  0.2788  0.1863
   18MOL   O169 3943   6.633   4.524   0.683 -0.5382 -0.1073 -0.3224
   18MOL   C170 3944   6.674   4.402   0.882 -0.4262  0.6747  0.4156
   18MOL   C171 3945   6.447   4.270   0.627 -0.2869 -0.4976  0.5416
   18MOL   H172 3946   6.416   4.333   0.830  1.0276 -2.5126 -1.1641
   18MOL   H173 3947   6.774   4.369   0.854 -0.8655 -1.3678  1.1859
   18MOL   H174 3948   6.684   4.483   0.955  1.7283  1.1939 -0.3887
   18MOL   H175 3949   6.629   4.314   0.927 -0.7921  0.6171 -0.0613
   18MOL   H176 3950   6.468   4.299   0.524  0.0289  1.5614  1.1620
   18MOL   H177 3951   6.344   4.241   0.603  0.5967 -2.4188 -1.1178
   18MOL   C178 3952   6.537   4.145   0.635 -0.1000  0.1782 -0.2257
   18MOL   C179 3953   6.522   4.065   0.766 -0.2382  0.3573  0.1532
   18MOL   O180 3954   6.611   4.041   0.841  0.2861  0.5162  0.1534
   18MOL   C181 3955   6.385   4.019   0.801  0.0286 -0.4241  0.5160
   18MOL   C182 3956   6.691   4.172   0.596 -0.2098  0.0641  0.1640
   18MOL   H183 3957   6.495   4.090   0.551  0.2465 -0.3752 -0.0387
   18MOL   H184 3958   6.346   4.072   0.888 -1.6848 -1.3213  0.3327
   18MOL   H185 3959   6.325   4.028   0.710  1.7325 -0.7803 -0.6784
   18MOL   H186 3960   6.396   3.913   0.827 -1.2540 -0.2168  1.9845
   18MOL   H187 3961   6.734   4.230   0.677 -2.5439  0.5380  1.0939
   18MOL   H188 3962   6.695   4.224   0.500 -4.8422 -1.4584 -1.0075
   18MOL   C189 3963   6.790   4.055   0.588  0.2309 -0.3428 -0.4401
   18MOL   C190 3964   6.923   4.100   0.539 -0.5166 -0.1981 -0.2382
   18MOL   O191 3965   6.945   4.128   0.424 -0.0705 -0.5096  0.8196
   18MOL   C192 3966   7.047   4.085   0.624  0.5011  0.0921 -0.0361
   18MOL   C193 3967   6.729   3.937   0.499  0.6296 -0.8268  0.0400
   18MOL   H194 3968   6.799   4.026   0.692 -0.5069  0.8824 -0.0191
   18MOL   H195 3969   7.132   4.123   0.569  0.4359 -2.9214 -2.3398
   18MOL   H196 3970   7.038   4.137   0.720  0.2330  1.0783 -0.5839
   18MOL   H197 3971   7.072   3.979   0.630 -1.2764 -0.2884  0.9715
   18MOL   H198 3972   6.687   3.986   0.411 -0.4002 -0.2190  0.8523
   18MOL   H199 3973   6.648   3.882   0.546 -0.6713  3.4923  3.2590
   18MOL   C200 3974   6.817   3.823   0.452  0.7561  0.3537 -0.3236
   18MOL   C201 3975   6.754   3.764   0.324 -0.2460 -0.4619 -0.0598
   18MOL   O202 3976   6.637   3.735   0.321 -0.0170  0.1093  0.1242
   18MOL   C203 3977   6.841   3.758   0.203  1.5007  0.0594  0.5978
   18MOL   C204 3978   6.847   3.722   0.563 -0.5608 -0.2753  0.1244
   18MOL   H205 3979   6.913   3.857   0.415  0.2743  0.9890 -1.0001
   18MOL   H206 3980   6.902   3.847   0.186  0.9926 -0.0346 -1.9674
   18MOL   H207 3981   6.910   3.674   0.194  0.7326 -0.5403  0.1969
   18MOL   H208 3982   6.769   3.742   0.122  0.1828  0.6186  1.6460
   18MOL   H209 3983   6.752   3.686   0.603 -1.1795  0.8651 -0.3012
   18MOL   H210 3984   6.880   3.775   0.653 -1.6873 -1.7343  1.4397
   18MOL   C211 3985   6.951   3.613   0.525 -0.0899  0.1393  0.5677
   18MOL   C212 3986   6.980   3.515   0.635  0.4127 -0.2251 -0.5696
   18MOL   O213 3987   7.033   3.409   0.608  0.9948 -0.7874 -0.1965
   18MOL   C214 3988   6.987   3.567   0.782  0.1823  0.7767 -0.1269
   18MOL   C215 3989   7.082   3.664   0.463 -0.1504  0.3335  1.0373
   18MOL   H216 3990   6.911   3.552   0.444  3.0118  0.1197 -1.0339
   18MOL   H217 3991   7.020   3.671   0.788  1.3755  0.4874 -1.3296
   18MOL   H218 3992   6.888   3.552   0.825 -0.1469 -1.3254 -1.5530
   18MOL   H219 3993   7.052   3.504   0.843 -1.1845 -2.0674 -1.4822
   18MOL   H220 3994   7.083   3.731   0.376  0.2938 -1.2352 -0.1887
   18MOL   H221 3995   7.125   3.577   0.413 -0.8902 -0.0919  1.1375
   18MOL   H222 3996   7.152   3.705   0.536  2.5605  0.9260 -1.8029
   19MOL     C1 3997   7.627   5.592   2.221  0.1278  0.7954 -0.2257
   19MOL     C2 3998   7.500   5.601   2.314 -0.4057 -1.0080 -0.2627
   19MOL     O3 3999   7.477   5.508   2.389 -0.0005 -0.2726  0.0867
   19MOL     C4 4000   7.416   5.728   2.318 -0.0861 -0.1739  0.2924
   19MOL     C5 4001   7.599   5.517   2.093  0.1857 -1.0884 -0.1312
   19MOL     H6 4002   7.670   5.691   2.217  0.0152  0.9846  2.3797
   19MOL     H7 4003   7.309   5.706   2.313 -0.0028 -1.0856  2.1908
   19MOL     H8 4004   7.431   5.778   2.414 -1.9458  0.2049  0.4128
   19MOL     H9 4005   7.444   5.791   2.233 -0.4078  0.2382  0.4924
   19MOL    H10 4006   7.534   5.576   2.028  0.1599  1.1296  1.8544
   19MOL    H11 4007   7.541   5.427   2.112  1.8314 -2.4844 -1.5391
   19MOL    H12 4008   7.709   5.536   2.266  1.4068  0.5388 -2.7969
   19MOL    C13 4009   7.720   5.481   2.007  0.0063 -0.0185  0.4069
   19MOL    C14 4010   7.806   5.605   1.969  0.7900 -0.5702  0.1015
   19MOL    O15 4011   7.744   5.713   1.944 -0.3878  0.1687  0.3440
   19MOL    C16 4012   0.112   5.587   1.948  0.2898  0.4598  0.4612
   19MOL    C17 4013   7.671   5.393   1.877  0.2574 -0.4583  0.1298
   19MOL    H18 4014   7.787   5.424   2.070  0.4329 -0.8707 -0.7942
   19MOL    H19 4015   0.131   5.535   1.853  2.1797 -0.1489  1.1318
   19MOL    H20 4016   0.151   5.688   1.955  1.4940 -0.0036  0.6535
   19MOL    H21 4017   0.151   5.535   2.036  0.6954 -0.9253 -0.5118
   19MOL    H22 4018   7.635   5.470   1.808 -2.1099 -1.4292  0.2475
   19MOL    H23 4019   7.589   5.323   1.888  1.0972 -1.5447 -0.4874
   19MOL    C24 4020   7.786   5.308   1.809 -0.0377  1.2098  0.2846
   19MOL    C25 4021   7.743   5.244   1.675  0.1933  0.4705 -0.4158
   19MOL    O26 4022   7.684   5.139   1.661 -0.3450 -0.1298  0.2217
   19MOL    C27 4023   7.782   5.321   1.552  0.4060 -0.7971  0.6104
   19MOL    C28 4024   0.011   5.186   1.895  0.8811  0.0614  0.2878
   19MOL    H29 4025   0.034   5.367   1.788 -0.7825  1.6784 -1.7589
   19MOL    H30 4026   7.841   5.264   1.479  0.2995  0.4373 -0.4522
   19MOL    H31 4027   7.692   5.361   1.506 -0.2760 -3.1293 -0.1847
   19MOL    H32 4028   7.838   5.411   1.577 -0.2987 -0.5668  1.3664
   19MOL    H33 4029   0.069   5.236   1.973 -0.0737 -1.4288  1.9899
   19MOL    H34 4030   0.080   5.148   1.820  3.2548  3.0875  0.8284
   19MOL    C35 4031   7.775   5.064   1.946 -0.2162 -0.5489  0.2734
   19MOL    C36 4032   7.683   5.105   2.057 -0.6440 -0.3794 -0.5285
   19MOL    O37 4033   7.729   5.162   2.155  0.3185 -0.1591  0.0123
   19MOL    C38 4034   7.533   5.100   2.036 -0.0488 -0.0264 -0.1704
   19MOL    C39 4035   0.027   4.949   1.980  0.1586 -0.4580  0.1844
   19MOL    H40 4036   7.719   5.020   1.863 -0.0940 -0.1404 -0.0229
   19MOL    H41 4037   7.503   5.120   1.933  1.7719 -2.0843 -1.1648
   19MOL    H42 4038   7.486   5.003   2.050 -0.5319  0.1920 -0.2573
   19MOL    H43 4039   7.491   5.172   2.105 -1.0135  0.9926 -1.7723
   19MOL    H44 4040   0.100   4.988   2.051  0.4336  1.1696 -0.9749
   19MOL    H45 4041   0.074   4.909   1.891 -1.3114  1.7231 -1.6358
   19MOL    C46 4042   7.807   4.820   2.034  0.0586 -0.6268  0.3445
   19MOL    C47 4043   0.074   4.736   2.101  0.5931  0.0568 -0.7980
   19MOL    O48 4044   0.185   4.718   2.060  0.1380 -0.7620 -0.0683
   19MOL    C49 4045   0.038   4.669   2.235  0.1676 -0.1527  0.9290
   19MOL    C50 4046   7.734   4.743   1.915 -1.1052 -0.5682 -0.3962
   19MOL    H51 4047   7.739   4.849   2.113 -1.1105 -2.6162  0.1127
   19MOL    H52 4048   0.031   4.562   2.221 -0.8860  0.1951 -1.3784
   19MOL    H53 4049   0.113   4.682   2.313 -0.6703  1.5719  1.4731
   19MOL    H54 4050   7.793   4.717   2.280  1.1680  1.3972  1.2853
   19MOL    H55 4051   7.799   4.678   1.856 -1.0097 -0.6327 -0.2241
   19MOL    H56 4052   7.686   4.816   1.851 -1.4503  0.5356  1.0929
   19MOL    C57 4053   7.625   4.645   1.965  1.0845 -0.1815  0.4952
   19MOL    C58 4054   7.628   4.519   1.884 -0.4965 -0.0516 -0.2002
   19MOL    O59 4055   7.576   4.512   1.773  0.0424  0.5503  0.0678
   19MOL    C60 4056   7.683   4.399   1.951  0.0783  0.7579  0.2831
   19MOL    C61 4057   7.489   4.715   1.980  0.3248  0.6789  0.2760
   19MOL    H62 4058   7.666   4.611   2.060  1.3101  0.0366  0.4741
   19MOL    H63 4059   7.609   4.350   2.015  1.4748  0.5345  1.7456
   19MOL    H64 4060   7.725   4.330   1.878  2.0977  0.0133  2.1306
   19MOL    H65 4061   7.766   4.422   2.018  0.1801  1.1886  0.0168
   19MOL    H66 4062   7.414   4.687   1.907 -0.9060  4.3348  0.0597
   19MOL    H67 4063   7.500   4.822   1.965 -1.2557  0.9601  0.9839
   19MOL    C68 4064   7.429   4.695   2.111  0.1833 -0.0539  0.1123
   19MOL    C69 4065   7.412   4.549   2.154 -0.5474  0.9800  0.7727
   19MOL    O70 4066   7.360   4.460   2.083 -0.5928 -0.0842  0.5882
   19MOL    C71 4067   7.443   4.508   2.296 -0.7492 -0.3912 -0.0992
   19MOL    C72 4068   7.296   4.776   2.107  0.1511  0.4212 -0.3982
   19MOL    H73 4069   7.489   4.745   2.187  1.3570 -0.9912 -0.1909
   19MOL    H74 4070   7.492   4.410   2.302  2.4079  1.1899  1.1406
   19MOL    H75 4071   7.530   4.559   2.337 -1.1150  0.2767 -0.1565
   19MOL    H76 4072   7.349   4.517   2.350 -0.6922  0.1955 -0.0951
   19MOL    H77 4073   7.241   4.760   2.014 -0.2668  0.9798 -0.2514
   19MOL    H78 4074   7.312   4.883   2.091  1.3812  0.5201  1.3686
   19MOL    C79 4075   7.202   4.759   2.231 -0.5159  0.8406  0.4244
   19MOL    C80 4076   7.097   4.646   2.217  0.5820 -0.4399 -0.0635
   19MOL    O81 4077   7.046   4.613   2.107 -0.4346  0.0235 -0.5129
   19MOL    C82 4078   7.051   4.582   2.346 -0.2512  0.1140  0.5865
   19MOL    C83 4079   7.152   4.892   2.278 -0.5079 -0.3738  0.3857
   19MOL    H84 4080   7.272   4.722   2.307 -0.0892  0.2623 -0.2391
   19MOL    H85 4081   7.006   4.656   2.412 -0.9112 -1.0435  1.4515
   19MOL    H86 4082   6.971   4.512   2.322 -0.7519  0.7689  0.3158
   19MOL    H87 4083   7.130   4.536   2.405  0.3711  0.1389 -0.2197
   19MOL    H88 4084   7.238   4.958   2.286  0.8058 -2.0511  0.6492
   19MOL    H89 4085   7.124   4.886   2.383  1.2480 -1.6459  0.8000
   19MOL    C90 4086   7.051   4.967   2.195 -0.0211 -0.2490  0.1593
   19MOL    C91 4087   7.105   5.072   2.097 -0.2523  0.3523 -0.9179
   19MOL    O92 4088   7.136   5.033   1.984 -0.8637 -0.2980 -0.5549
   19MOL    C93 4089   7.147   5.207   2.144 -0.4012  0.7007 -0.3111
   19MOL    C94 4090   6.934   5.027   2.274  0.2838 -0.1080  0.0129
   19MOL    H95 4091   7.004   4.889   2.136 -0.6919 -0.7946  1.3835
   19MOL    H96 4092   7.146   5.197   2.252 -4.0509 -0.5788 -0.3728
   19MOL    H97 4093   7.247   5.213   2.101  0.7133 -2.8692  1.5681
   19MOL    H98 4094   7.075   5.278   2.102 -0.4722  0.1955 -1.0710
   19MOL    H99 4095   6.871   5.098   2.221 -1.0415 -1.2206  0.0735
   19MOL   H100 4096   6.976   5.074   2.362 -1.8995 -0.4353  1.2655
   19MOL   C101 4097   6.836   4.918   2.326  0.1602 -0.6289  0.5231
   19MOL   C102 4098   6.751   4.850   2.212 -0.6008 -0.4497 -0.2574
   19MOL   O103 4099   6.702   4.915   2.117 -0.0628 -0.4438 -0.0143
   19MOL   C104 4100   6.722   4.702   2.227 -0.1372 -0.1580 -0.1685
   19MOL   C105 4101   6.751   4.955   2.452  0.0222 -0.4679 -0.5888
   19MOL   H106 4102   6.901   4.831   2.342 -0.1460 -1.0671 -0.5590
   19MOL   H107 4103   6.763   4.667   2.322 -0.6602 -1.2252 -0.3382
   19MOL   H108 4104   6.615   4.683   2.219 -0.1380 -0.5527  0.7696
   19MOL   H109 4105   6.772   4.649   2.146  0.0718  0.9083 -0.7438
   19MOL   H110 4106   6.822   4.983   2.529 -2.2950  0.7705  1.1562
   19MOL   H111 4107   6.695   4.869   2.489  0.0551 -1.6954 -3.2447
   19MOL   C112 4108   6.663   5.085   2.433  0.1058  0.1340 -0.1880
   19MOL   C113 4109   6.730   5.223   2.460 -0.3158 -0.1363  0.2185
   19MOL   O114 4110   6.727   5.314   2.376 -0.0259  0.3507  0.5684
   19MOL   C115 4111   6.790   5.241   2.599  0.3283 -0.5848  0.2645
   19MOL   C116 4112   6.536   5.082   2.520  0.9881  0.0866  0.0055
   19MOL   H117 4113   6.620   5.081   2.332 -0.6671  0.2480  0.1303
   19MOL   H118 4114   6.897   5.257   2.584 -0.4227  1.9198 -3.0259
   19MOL   H119 4115   6.747   5.332   2.640 -0.1944 -0.6821 -0.0631
   19MOL   H120 4116   6.768   5.152   2.657 -0.1024  0.9891  2.5658
   19MOL   H121 4117   6.488   5.180   2.527  0.8653 -0.0677  1.6743
   19MOL   H122 4118   6.561   5.071   2.626  0.8936  1.4762  0.1802
   19MOL   C123 4119   6.411   4.990   2.475  0.3773  0.2053  0.1605
   19MOL   C124 4120   6.428   4.840   2.515  0.3306  0.2960  0.0620
   19MOL   O125 4121   6.453   4.755   2.429  0.0763 -0.5251  0.3115
   19MOL   C126 4122   6.408   4.804   2.662  0.0950 -0.1916  1.2729
   19MOL   C127 4123   6.378   5.010   2.328  0.6027  0.3981  0.3973
   19MOL   H128 4124   6.331   5.038   2.531  0.1700  1.5542 -1.2484
   19MOL   H129 4125   6.470   4.720   2.695 -0.4159 -1.4915 -0.9873
   19MOL   H130 4126   6.437   4.891   2.721  1.2395 -0.9397  1.8498
   19MOL   H131 4127   6.308   4.762   2.670 -0.5916  1.1025 -0.1941
   19MOL   H132 4128   6.291   4.946   2.310  2.0919 -0.6598 -3.5948
   19MOL   H133 4129   6.450   4.951   2.272 -0.0522  1.0029 -1.1251
   19MOL   C134 4130   6.361   5.151   2.267  0.3562  0.3142  0.0270
   19MOL   C135 4131   6.261   5.240   2.344 -0.2551  0.1240  0.0766
   19MOL   O136 4132   6.172   5.187   2.417 -0.3620  0.4097  0.5416
   19MOL   C137 4133   6.257   5.390   2.316 -0.2714  0.1230 -0.1993
   19MOL   C138 4134   6.317   5.131   2.119 -0.9411  0.1890 -0.2430
   19MOL   H139 4135   6.457   5.199   2.284  0.9774 -0.7634 -0.4126
   19MOL   H140 4136   6.245   5.455   2.403  0.4121 -1.9463  1.4715
   19MOL   H141 4137   6.357   5.414   2.280  0.0597 -0.1010  0.5594
   19MOL   H142 4138   6.184   5.406   2.237 -0.9225  2.5540  0.8519
   19MOL   H143 4139   6.265   5.219   2.081 -0.7790  0.0808 -0.7117
   19MOL   H144 4140   6.248   5.048   2.111  1.1756 -1.7227  0.7418
   19MOL   C145 4141   6.431   5.110   2.012 -0.1728 -0.1410 -0.0992
   19MOL   C146 4142   6.510   5.248   1.984  0.1454  0.0818  0.3869
   19MOL   O147 4143   6.463   5.353   1.940 -0.3155  0.4534  0.1097
   19MOL   C148 4144   6.656   5.238   2.015  0.2759  0.1000  0.6117
   19MOL   C149 4145   6.371   5.057   1.886 -0.6531  0.1540  0.0332
   19MOL   H150 4146   6.510   5.046   2.050  1.3531  1.4824 -0.4682
   19MOL   H151 4147   6.715   5.152   1.983  0.9312  1.2010 -1.1695
   19MOL   H152 4148   6.703   5.332   1.988  0.9547 -0.4496 -0.1051
   19MOL   H153 4149   6.664   5.240   2.124  1.5226  2.0789  0.5029
   19MOL   H154 4150   6.310   5.141   1.853  0.1439 -0.7863 -4.2022
   19MOL   H155 4151   6.309   4.975   1.922  1.1891  0.7538  4.9235
   19MOL   C156 4152   6.473   5.003   1.784  0.0055 -0.3476  0.4442
   19MOL   C157 4153   6.442   5.058   1.642  0.0073 -0.3927  0.4644
   19MOL   O158 4154   6.395   4.981   1.555 -0.3745 -0.8278 -0.3301
   19MOL   C159 4155   6.465   5.203   1.610 -0.3902  0.8104 -0.3915
   19MOL   C160 4156   6.496   4.852   1.802  0.1332  0.2429 -0.2356
   19MOL   H161 4157   6.573   5.038   1.810  0.0314 -0.9122  1.1354
   19MOL   H162 4158   6.418   5.224   1.515  0.2868  0.6350 -0.7722
   19MOL   H163 4159   6.429   5.260   1.696 -1.0308 -1.9557  1.2015
   19MOL   H164 4160   6.567   5.235   1.588 -1.0519  3.3556  0.0578
   19MOL   H165 4161   6.407   4.796   1.774  1.3217 -1.8929  0.1682
   19MOL   H166 4162   6.506   4.836   1.910 -1.7079 -0.8116 -0.2023
   19MOL   C167 4163   6.620   4.785   1.731  0.3362 -0.4693 -0.0721
   19MOL   C168 4164   6.572   4.706   1.612  0.0965  0.9002  0.1370
   19MOL   O169 4165   6.525   4.598   1.622  0.2066 -0.3847 -0.4711
   19MOL   C170 4166   6.593   4.761   1.476 -0.1568  0.2413 -0.7447
   19MOL   C171 4167   6.702   4.709   1.842  0.0216  0.0911  0.0212
   19MOL   H172 4168   6.671   4.873   1.692  0.8582 -1.7215 -2.3319
   19MOL   H173 4169   6.498   4.773   1.423 -0.6088  1.2698  0.2915
   19MOL   H174 4170   6.637   4.860   1.484  0.0716  0.0213  0.8939
   19MOL   H175 4171   6.656   4.700   1.410 -0.1452  0.6981 -1.1600
   19MOL   H176 4172   6.648   4.633   1.898  2.1365 -0.7181  1.0561
   19MOL   H177 4173   6.729   4.784   1.916 -1.7249  0.2548  0.5132
   19MOL   C178 4174   6.841   4.649   1.789  0.5647  0.2289 -0.1316
   19MOL   C179 4175   6.936   4.753   1.718 -0.0894  0.4731 -0.2655
   19MOL   O180 4176   6.947   4.768   1.596  0.1264  0.4742  0.3944
   19MOL   C181 4177   7.033   4.827   1.802  0.0488  0.0338  0.6939
   19MOL   C182 4178   6.831   4.513   1.721  0.4775  0.7164 -0.2865
   19MOL   H183 4179   6.893   4.627   1.883  0.4400 -0.4865 -0.2254
   19MOL   H184 4180   7.136   4.794   1.804  0.5304  1.5090  0.6409
   19MOL   H185 4181   7.041   4.921   1.748  1.8031 -0.0962  0.7188
   19MOL   H186 4182   7.005   4.836   1.907  3.6613 -2.6763  1.9659
   19MOL   H187 4183   6.830   4.528   1.613 -1.2125 -1.3551 -0.5837
   19MOL   H188 4184   6.730   4.478   1.739  0.8064 -0.6719 -1.0353
   19MOL   C189 4185   6.944   4.417   1.760  0.7844 -0.5468  1.0013
   19MOL   C190 4186   7.072   4.455   1.688 -0.1636  0.3853  0.0404
   19MOL   O191 4187   7.091   4.443   1.567 -0.4251 -0.0363 -0.1816
   19MOL   C192 4188   7.182   4.512   1.769  0.8043  0.2959  0.3436
   19MOL   C193 4189   6.903   4.275   1.715 -0.7291  0.2974  0.1563
   19MOL   H194 4190   6.948   4.412   1.868  0.4078 -1.8034  0.9653
   19MOL   H195 4191   7.212   4.600   1.713  0.7713  0.1614  0.1114
   19MOL   H196 4192   7.153   4.544   1.869  0.2047  0.6572  0.0602
   19MOL   H197 4193   7.262   4.438   1.771  1.9607  1.5565  0.8295
   19MOL   H198 4194   6.876   4.261   1.610  0.8832  1.4829 -0.4330
   19MOL   H199 4195   6.802   4.264   1.755 -0.7135  0.4779  0.2429
   19MOL   C200 4196   6.985   4.163   1.773 -0.6471  0.1193  0.2901
   19MOL   C201 4197   6.927   4.024   1.738  0.8720 -0.1198  0.5772
   19MOL   O202 4198   6.822   3.982   1.788 -0.0152  0.2772 -0.1215
   19MOL   C203 4199   6.998   3.919   1.654  0.1296  0.0091  0.5175
   19MOL   C204 4200   7.003   4.161   1.924  0.0877 -0.6909 -0.0472
   19MOL   H205 4201   7.084   4.161   1.726 -0.4586 -1.2846  0.7115
   19MOL   H206 4202   6.960   3.925   1.552 -1.4760 -0.6046  1.0677
   19MOL   H207 4203   7.106   3.934   1.649  0.3620 -1.9308 -0.8123
   19MOL   H208 4204   6.987   3.823   1.704  0.6293  0.4013  1.4096
   19MOL   H209 4205   7.021   4.058   1.956  1.8724  0.3865  2.6897
   19MOL   H210 4206   6.900   4.170   1.957 -0.4388 -1.8166 -1.3341
   19MOL   C211 4207   7.112   4.243   1.994 -0.2193  0.1219  0.2054
   19MOL   C212 4208   7.248   4.168   2.014  0.8792 -0.9033 -0.0607
   19MOL   O213 4209   7.271   4.093   2.112 -0.6209 -0.1600 -0.3921
   19MOL   C214 4210   7.354   4.185   1.913 -0.1990 -0.8266 -0.2047
   19MOL   C215 4211   7.060   4.303   2.127 -0.0552  0.1453 -0.0475
   19MOL   H216 4212   7.139   4.332   1.938  1.5131  1.0196  2.3711
   19MOL   H217 4213   7.315   4.147   1.818 -2.5897 -0.1733  0.4819
   19MOL   H218 4214   7.394   4.286   1.906 -3.5671  0.8378  3.1421
   19MOL   H219 4215   7.436   4.121   1.946 -0.8209 -0.8464  1.3640
   19MOL   H220 4216   7.145   4.346   2.181 -0.1713 -2.5116  2.3786
   19MOL   H221 4217   7.003   4.233   2.188  1.2546  0.5760  1.7325
   19MOL   H222 4218   6.978   4.373   2.113 -1.6523 -1.5967  0.3100
   20MOL     C1 4219   1.335   4.647   0.036  0.2199  0.4285  0.0849
   20MOL     C2 4220   1.338   4.640   0.186  0.0390 -0.4201 -0.1087
   20MOL     O3 4221   1.364   4.532   0.242  0.3983  0.0843  0.1911
   20MOL     C4 4222   1.285   4.755   0.269 -0.5599 -0.5852  0.2145
   20MOL     C5 4223   1.324   4.515   7.801 -0.0407  0.0812  0.0033
   20MOL     H6 4224   1.262   4.717   7.836  0.1063 -1.7925 -3.6744
   20MOL     H7 4225   1.188   4.780   0.225  0.3579  0.3959 -1.3138
   20MOL     H8 4226   1.273   4.746   0.377 -0.0333 -1.1821  0.2222
   20MOL     H9 4227   1.334   4.845   0.231 -3.5509  0.4005 -1.4482
   20MOL    H10 4228   1.240   4.463   0.006  1.9393 -0.5218  2.9974
   20MOL    H11 4229   1.408   4.452   7.831  2.0237  3.6644  2.0871
   20MOL    H12 4230   1.430   4.690   0.006  0.2487 -0.1256 -0.6423
   20MOL    C13 4231   1.304   4.522   7.651 -0.1687  0.6669 -0.4246
   20MOL    C14 4232   1.418   4.584   7.578 -0.1943 -0.4908  0.4449
   20MOL    O15 4233   1.412   4.699   7.524 -0.0901 -0.2230 -0.7466
   20MOL    C16 4234   1.546   4.495   7.567 -0.3375 -0.0737  0.3185
   20MOL    C17 4235   1.165   4.575   7.609 -0.0744  0.2977 -0.3333
   20MOL    H18 4236   1.308   4.417   7.623  0.7424  0.8308 -0.9230
   20MOL    H19 4237   1.620   4.554   7.620  0.3073  1.5697 -2.2969
   20MOL    H20 4238   1.547   4.396   7.612  1.6468 -0.5266 -0.6864
   20MOL    H21 4239   1.571   4.477   7.463  0.6645 -1.6606  0.8217
   20MOL    H22 4240   1.175   4.680   7.579 -0.4034  0.8874  1.5413
   20MOL    H23 4241   1.094   4.586   7.692  0.8527  0.2417  0.4738
   20MOL    C24 4242   1.083   4.500   7.502  0.4240 -0.3810 -0.5861
   20MOL    C25 4243   0.954   4.580   7.462  0.3044  0.0040 -0.4612
   20MOL    O26 4244   0.847   4.549   7.510 -0.6398  0.3086 -0.6141
   20MOL    C27 4245   0.960   4.682   7.343  0.5626  0.1545  0.2103
   20MOL    C28 4246   1.045   4.352   7.537 -0.1154 -0.2614  0.4194
   20MOL    H29 4247   1.156   4.503   7.421 -0.4665 -0.8241 -1.4004
   20MOL    H30 4248   0.925   4.635   7.252  1.4200  1.6083 -0.8787
   20MOL    H31 4249   0.898   4.767   7.370  1.7780  0.6883  1.3960
   20MOL    H32 4250   1.064   4.708   7.326  1.2304 -1.2779  1.9406
   20MOL    H33 4251   0.976   4.353   7.622  0.8955 -1.9950  1.2921
   20MOL    H34 4252   1.125   4.289   7.576 -1.5749 -2.5072 -0.0522
   20MOL    C35 4253   0.970   4.272   7.431 -0.2438  0.0781  0.2669
   20MOL    C36 4254   0.894   4.158   7.495  0.9206 -0.0197  0.4035
   20MOL    O37 4255   0.942   4.047   7.502  0.1146 -0.5529 -0.2605
   20MOL    C38 4256   0.750   4.194   7.533 -0.0202 -0.1784 -0.5553
   20MOL    C39 4257   1.056   4.234   7.306  0.0616  0.2857 -0.4078
   20MOL    H40 4258   0.885   4.331   7.395 -1.3403 -1.7374 -0.2151
   20MOL    H41 4259   0.760   4.259   7.620 -1.6092 -1.0578  0.3209
   20MOL    H42 4260   0.692   4.249   7.459  1.1342 -0.4705 -1.6915
   20MOL    H43 4261   0.697   4.103   7.562  0.7070 -0.7545 -1.0185
   20MOL    H44 4262   1.125   4.166   7.356  2.0671  2.7082  0.2534
   20MOL    H45 4263   1.111   4.321   7.268 -0.0209 -0.0973 -1.4191
   20MOL    C46 4264   0.981   4.183   7.187 -0.1312  0.9418 -0.1790
   20MOL    C47 4265   1.083   4.125   7.086 -0.1154 -0.0824 -0.3761
   20MOL    O48 4266   1.156   4.191   7.011 -0.2062 -0.4996 -0.1287
   20MOL    C49 4267   1.098   3.976   7.099  0.3449 -0.0999 -0.1140
   20MOL    C50 4268   0.892   4.286   7.109  0.8469 -0.0451  0.5499
   20MOL    H51 4269   0.916   4.101   7.217  1.9553  0.1368  2.3602
   20MOL    H52 4270   1.077   3.938   6.999 -2.9777  1.3177 -0.0112
   20MOL    H53 4271   1.196   3.946   7.135 -0.3479 -1.0723  0.9997
   20MOL    H54 4272   1.018   3.936   7.161 -1.6984  0.0938 -2.5252
   20MOL    H55 4273   0.957   4.355   7.057 -1.3802  0.3533 -1.8372
   20MOL    H56 4274   0.836   4.339   7.186  0.6976  0.0964  0.3437
   20MOL    C57 4275   0.783   4.227   7.012  0.0910  0.6560  0.0133
   20MOL    C58 4276   0.674   4.130   7.070  0.0171 -0.5848 -0.4128
   20MOL    O59 4277   0.668   4.015   7.033 -0.0410  1.1389 -0.4665
   20MOL    C60 4278   0.587   4.194   7.185 -0.6106  0.4254  0.3035
   20MOL    C61 4279   0.833   4.182   6.874 -0.1019  0.8746  1.0750
   20MOL    H62 4280   0.717   4.312   6.993 -2.8287 -0.7902  3.1163
   20MOL    H63 4281   0.505   4.241   7.131 -1.6812  0.4850  1.9434
   20MOL    H64 4282   0.546   4.129   7.262  0.1362  0.3941  0.6810
   20MOL    H65 4283   0.638   4.279   7.230  1.1553 -0.1981 -0.4931
   20MOL    H66 4284   0.745   4.143   6.822  1.1002 -2.4880  1.4353
   20MOL    H67 4285   0.894   4.092   6.883  0.0266  1.0674  2.1324
   20MOL    C68 4286   0.916   4.283   6.788 -0.4340  0.3900 -0.6460
   20MOL    C69 4287   0.832   4.408   6.750  0.1995  0.6102  0.5617
   20MOL    O70 4288   0.717   4.399   6.705  0.1492 -0.0151 -0.0016
   20MOL    C71 4289   0.889   4.548   6.798  0.0736  0.2256 -0.9478
   20MOL    C72 4290   0.964   4.219   6.655 -0.4938 -0.5839  0.0083
   20MOL    H73 4291   1.004   4.315   6.845  0.6425 -0.9818 -1.4863
   20MOL    H74 4292   0.869   4.552   6.905  0.4825 -0.6701 -0.8399
   20MOL    H75 4293   0.997   4.549   6.781  0.2294  2.0238  0.0357
   20MOL    H76 4294   0.849   4.635   6.746 -2.3541  0.4589  1.2087
   20MOL    H77 4295   0.977   4.292   6.576 -0.0500  0.5613  1.1149
   20MOL    H78 4296   0.893   4.149   6.612 -0.0874 -1.7065  1.1286
   20MOL    C79 4297   1.099   4.140   6.671  0.9948 -0.0734 -0.3089
   20MOL    C80 4298   1.224   4.236   6.683  0.3035 -0.3897  0.6347
   20MOL    O81 4299   1.205   4.351   6.653  0.1757  0.2587  0.1774
   20MOL    C82 4300   1.351   4.188   6.748  0.3400 -0.0467  0.5260
   20MOL    C83 4301   1.125   4.042   6.553 -0.0919  0.4012 -0.6743
   20MOL    H84 4302   1.092   4.083   6.763  0.0975 -0.4492 -0.5988
   20MOL    H85 4303   1.341   4.154   6.851 -1.2012  2.0414  1.1143
   20MOL    H86 4304   1.390   4.114   6.678  0.5236 -1.0359  1.6610
   20MOL    H87 4305   1.420   4.273   6.739  0.8202 -0.5179 -0.3710
   20MOL    H88 4306   1.048   3.969   6.579  2.6393 -0.5714  5.5957
   20MOL    H89 4307   1.219   3.987   6.563  0.0372  0.7961  0.3376
   20MOL    C90 4308   1.130   4.096   6.402 -0.0400 -0.5349  0.5203
   20MOL    C91 4309   0.989   4.114   6.349 -0.7472  0.4139  0.3406
   20MOL    O92 4310   0.901   4.032   6.382 -0.4992 -0.2396 -0.0793
   20MOL    C93 4311   0.969   4.225   6.250 -0.0036  0.0480  0.2347
   20MOL    C94 4312   1.211   4.006   6.306 -0.3784  0.0131  0.5886
   20MOL    H95 4313   1.159   4.201   6.394 -2.4586  0.1358  0.1561
   20MOL    H96 4314   1.055   4.250   6.188 -2.4131  0.0221 -3.2911
   20MOL    H97 4315   0.884   4.196   6.188  0.1153  0.1151  0.0397
   20MOL    H98 4316   0.942   4.306   6.319  1.4813 -0.9226  1.9919
   20MOL    H99 4317   1.178   4.042   6.208  1.9694  0.9872  0.0951
   20MOL   H100 4318   1.193   3.900   6.319  1.0820 -0.3416 -0.1899
   20MOL   C101 4319   1.363   4.038   6.303  0.4638  0.9092 -0.3559
   20MOL   C102 4320   1.391   4.188   6.267  1.0092  0.6099  0.6548
   20MOL   O103 4321   1.320   4.261   6.198 -0.8527 -0.1482  0.4078
   20MOL   C104 4322   1.524   4.239   6.312  0.6958 -0.0725  0.4915
   20MOL   C105 4323   1.441   3.939   6.215 -0.2537 -0.3583  0.1299
   20MOL   H106 4324   1.398   4.013   6.403  1.0356  3.2166  0.0257
   20MOL   H107 4325   1.580   4.173   6.378  0.8029  1.3759  1.8642
   20MOL   H108 4326   1.585   4.269   6.226  1.9928 -1.4473  0.9012
   20MOL   H109 4327   1.509   4.329   6.372 -1.1630  0.5486 -0.8581
   20MOL   H110 4328   1.548   3.962   6.221 -0.5852  1.6302 -1.0235
   20MOL   H111 4329   1.432   3.951   6.107 -1.5924 -5.9554 -0.5401
   20MOL   C112 4330   1.415   3.786   6.232 -0.2252  0.0004  0.0800
   20MOL   C113 4331   1.445   3.739   6.369  0.0150 -0.2832 -1.0320
   20MOL   O114 4332   1.527   3.790   6.439  0.1105  0.6897 -0.1106
   20MOL   C115 4333   1.353   3.625   6.421  0.2683 -0.3071  0.1158
   20MOL   C116 4334   1.490   3.711   6.121 -0.3749 -0.0797 -0.2904
   20MOL   H117 4335   1.309   3.770   6.214  0.1357 -1.0918 -1.1692
   20MOL   H118 4336   1.272   3.684   6.465  2.7521  2.4975  1.1152
   20MOL   H119 4337   1.309   3.558   6.348 -1.8680  1.1497  0.0182
   20MOL   H120 4338   1.416   3.575   6.494  0.6536  0.9031  0.6313
   20MOL   H121 4339   1.503   3.611   6.164  0.4577 -0.7295 -2.0144
   20MOL   H122 4340   1.591   3.752   6.121  0.5695 -2.3128  0.6563
   20MOL   C123 4341   1.429   3.699   5.981  0.8070 -0.0529  0.7269
   20MOL   C124 4342   1.278   3.658   5.975  0.2529 -0.2771  0.2512
   20MOL   O125 4343   1.227   3.601   6.070  0.3394  0.7193  0.2401
   20MOL   C126 4344   1.197   3.692   5.853 -0.2600 -0.6739 -0.5307
   20MOL   C127 4345   1.509   3.598   5.887  0.3071  0.2597  0.4815
   20MOL   H128 4346   1.419   3.797   5.934 -2.1444 -0.3096  0.7068
   20MOL   H129 4347   1.137   3.605   5.829 -1.0066  0.1424 -1.6813
   20MOL   H130 4348   1.111   3.758   5.868 -0.4070 -0.5149 -2.0058
   20MOL   H131 4349   1.259   3.731   5.772 -1.0445 -0.2098 -0.9155
   20MOL   H132 4350   1.438   3.539   5.828  0.2336  1.3019 -0.4988
   20MOL   H133 4351   1.571   3.535   5.950 -0.3505 -1.4251 -0.5022
   20MOL   C134 4352   1.599   3.662   5.783  1.3521  0.5455 -0.0510
   20MOL   C135 4353   1.694   3.768   5.848 -0.8854 -0.0532 -0.0333
   20MOL   O136 4354   1.686   3.890   5.838 -0.0879  0.0866  0.2339
   20MOL   C137 4355   1.815   3.703   5.920  0.0498  0.2134  0.2682
   20MOL   C138 4356   1.520   3.724   5.660 -0.5312 -0.4397  0.4543
   20MOL   H139 4357   1.657   3.588   5.727  1.4473  1.4605 -1.1873
   20MOL   H140 4358   1.876   3.779   5.970 -0.1823 -0.0311  0.9397
   20MOL   H141 4359   1.795   3.617   5.985  0.4492 -1.5020 -1.8205
   20MOL   H142 4360   1.880   3.665   5.842  0.0666  1.7941 -0.5136
   20MOL   H143 4361   1.515   3.832   5.673 -1.3822 -0.5945  1.5765
   20MOL   H144 4362   1.419   3.681   5.657 -1.3122  1.2724  1.2645
   20MOL   C145 4363   1.588   3.681   5.528  0.0067 -0.8834  0.3972
   20MOL   C146 4364   1.561   3.782   5.413  0.3791 -1.0032  0.5345
   20MOL   O147 4365   1.470   3.758   5.331  0.3580 -0.2103 -0.2724
   20MOL   C148 4366   1.655   3.901   5.398  0.8089 -0.4921  0.2257
   20MOL   C149 4367   1.552   3.535   5.478  0.2080 -0.4290 -0.6116
   20MOL   H150 4368   1.696   3.682   5.538  0.3376  0.5382 -2.6512
   20MOL   H151 4369   1.664   3.953   5.303 -1.3729  2.3220  1.4847
   20MOL   H152 4370   1.612   3.957   5.481  0.6263 -0.2355 -0.0448
   20MOL   H153 4371   1.760   3.877   5.420  0.4064 -1.4330  1.1684
   20MOL   H154 4372   1.446   3.532   5.453 -0.4605 -1.5158  2.2278
   20MOL   H155 4373   1.561   3.467   5.562  2.1107  2.4264  1.5938
   20MOL   C156 4374   1.639   3.485   5.360  0.3170  0.1575  0.5505
   20MOL   C157 4375   1.557   3.396   5.263  0.4250  0.5305  0.4892
   20MOL   O158 4376   1.526   3.285   5.300  0.0617  0.1731 -0.3958
   20MOL   C159 4377   1.534   3.438   5.116  0.5342  0.0001  0.2144
   20MOL   C160 4378   1.759   3.419   5.416  0.4750 -0.5875 -0.0182
   20MOL   H161 4379   1.682   3.559   5.293 -1.0272  0.0682 -0.4344
   20MOL   H162 4380   1.432   3.419   5.083  1.2643 -0.5424 -1.8453
   20MOL   H163 4381   1.535   3.546   5.109  0.5012 -0.0789 -1.2379
   20MOL   H164 4382   1.603   3.386   5.049  1.0708 -0.8728  1.4216
   20MOL   H165 4383   1.725   3.326   5.461 -1.6092 -0.6904 -1.7366
   20MOL   H166 4384   1.798   3.484   5.495  2.1334 -0.1474 -1.1556
   20MOL   C167 4385   1.876   3.403   5.323 -0.4134  0.0558  0.4332
   20MOL   C168 4386   1.940   3.268   5.343 -0.8357  0.7270  0.9082
   20MOL   O169 4387   2.022   3.237   5.428 -0.0375  0.9034 -0.1340
   20MOL   C170 4388   1.879   3.150   5.266 -0.4607 -0.0775 -0.2468
   20MOL   C171 4389   1.973   3.522   5.312  0.1457  0.2520  0.3011
   20MOL   H172 4390   1.816   3.393   5.232 -2.0039 -1.6474  1.6343
   20MOL   H173 4391   1.906   3.142   5.161  2.7474  1.9433  0.3595
   20MOL   H174 4392   1.900   3.051   5.305  1.5457  0.3733 -0.1114
   20MOL   H175 4393   1.773   3.174   5.275 -0.5044 -0.4676  0.2983
   20MOL   H176 4394   1.924   3.619   5.320  0.9528  0.5680  1.7390
   20MOL   H177 4395   2.023   3.510   5.216  1.5502 -0.2845  1.0772
   20MOL   C178 4396   2.091   3.533   5.415  0.1896  0.2989 -0.6040
   20MOL   C179 4397   2.042   3.558   5.564 -0.1312  1.0358  0.9350
   20MOL   O180 4398   1.959   3.640   5.590  0.1112  0.3347  0.4407
   20MOL   C181 4399   2.091   3.464   5.678  0.2877  0.1744 -1.0866
   20MOL   C182 4400   2.186   3.643   5.379 -0.2871 -0.6196  0.4266
   20MOL   H183 4401   2.148   3.441   5.404  1.1417  1.0525 -2.1712
   20MOL   H184 4402   2.199   3.458   5.678  0.2690 -0.4283 -2.9914
   20MOL   H185 4403   2.034   3.488   5.768  0.9273  0.7036 -0.8231
   20MOL   H186 4404   2.053   3.364   5.659 -0.5338  0.4742 -1.0637
   20MOL   H187 4405   2.140   3.736   5.412  1.2686  0.4667 -0.3617
   20MOL   H188 4406   2.181   3.643   5.270  1.2272 -1.2025  0.3503
   20MOL   C189 4407   2.332   3.625   5.432 -0.8042  0.0622  0.4590
   20MOL   C190 4408   2.382   3.748   5.503  0.1014 -0.1519 -0.5300
   20MOL   O191 4409   2.480   3.807   5.455  0.0885 -0.4597  0.5286
   20MOL   C192 4410   2.298   3.800   5.616  0.4011 -0.1122  0.3186
   20MOL   C193 4411   2.417   3.567   5.317 -0.2036 -0.5058  0.5656
   20MOL   H194 4412   2.322   3.538   5.498  1.6307 -1.4017 -1.0037
   20MOL   H195 4413   2.266   3.716   5.676  0.3848  0.1179  0.6317
   20MOL   H196 4414   2.349   3.871   5.681  2.0914 -2.5822  1.7828
   20MOL   H197 4415   2.204   3.837   5.575 -0.0389 -1.0995  0.4419
   20MOL   H198 4416   2.438   3.654   5.254  0.8567 -0.6862  0.6652
   20MOL   H199 4417   2.367   3.487   5.262  0.4608  0.3573 -1.3487
   20MOL   C200 4418   2.564   3.528   5.361 -0.2696  0.2460 -0.8815
   20MOL   C201 4419   2.671   3.581   5.263 -0.3878 -1.5583  0.1319
   20MOL   O202 4420   2.688   3.537   5.151  0.5285  0.1739 -0.4943
   20MOL   C203 4421   2.762   3.700   5.314  0.1554  0.4278  0.8507
   20MOL   C204 4422   2.578   3.371   5.383  0.2549 -0.3844 -0.2205
   20MOL   H205 4423   2.580   3.571   5.460 -1.4555 -1.5370  0.0976
   20MOL   H206 4424   2.725   3.720   5.415  0.1762  0.6752  0.8090
   20MOL   H207 4425   2.867   3.671   5.307  0.2820  1.2733 -1.0790
   20MOL   H208 4426   2.750   3.790   5.255  1.8857  1.0588  1.4138
   20MOL   H209 4427   2.617   3.332   5.289  1.0597  0.5585 -0.2964
   20MOL   H210 4428   2.477   3.330   5.380  0.7526 -1.6106 -0.3820
   20MOL   C211 4429   2.653   3.314   5.504 -0.8015  0.4948 -0.1657
   20MOL   C212 4430   2.590   3.367   5.633 -0.8090 -0.5391  0.4381
   20MOL   O213 4431   2.489   3.314   5.679 -0.1849  0.3426  0.5238
   20MOL   C214 4432   2.645   3.484   5.708 -0.1956 -0.1406 -0.0781
   20MOL   C215 4433   2.805   3.336   5.502 -0.7135  0.3973  0.9082
   20MOL   H216 4434   2.625   3.209   5.504  0.0772  0.2585 -1.1788
   20MOL   H217 4435   2.625   3.469   5.814  1.2609  2.0433  0.5446
   20MOL   H218 4436   2.751   3.495   5.684 -0.4064 -0.3813 -1.1640
   20MOL   H219 4437   2.593   3.578   5.689 -0.5934 -0.5606 -1.1487
   20MOL   H220 4438   2.853   3.284   5.419  1.0413  2.0249  0.8881
   20MOL   H221 4439   2.857   3.298   5.590 -0.4618  0.7791  0.9256
   20MOL   H222 4440   2.838   3.439   5.495  0.1713 -0.0278 -1.6494
   21MOL     C1 4441   2.274   1.989   4.735 -0.3519 -0.3447 -0.8602
   21MOL     C2 4442   2.202   1.914   4.615  0.2451 -0.0824 -0.2019
   21MOL     O3 4443   2.175   1.795   4.628  0.7645 -0.3754 -0.0124
   21MOL     C4 4444   2.168   1.993   4.487 -1.0674  0.7501 -0.1073
   21MOL     C5 4445   2.429   2.012   4.711 -0.0663 -0.5155  0.7332
   21MOL     H6 4446   2.225   2.085   4.753 -0.2698 -0.8113  1.9876
   21MOL     H7 4447   2.077   2.052   4.473 -3.2411 -2.2908  0.7050
   21MOL     H8 4448   2.253   2.053   4.457  0.1566 -1.6280 -1.5277
   21MOL     H9 4449   2.157   1.917   4.410 -0.4625  0.0571  0.4792
   21MOL    H10 4450   2.437   2.054   4.611  1.4356 -0.8224  0.7037
   21MOL    H11 4451   2.474   1.913   4.722 -0.3382 -0.7305 -0.0207
   21MOL    H12 4452   2.260   1.928   4.824 -1.6885  1.8087  0.4495
   21MOL    C13 4453   2.502   2.117   4.795  0.4898  0.5120  0.2938
   21MOL    C14 4454   2.493   2.094   4.944  0.3984  0.2438  0.1172
   21MOL    O15 4455   2.420   2.158   5.019  0.7277 -0.6728  0.0977
   21MOL    C16 4456   2.580   1.986   5.000 -0.1785  0.1190 -0.1028
   21MOL    C17 4457   2.469   2.269   4.752 -0.2759 -0.3430 -0.3848
   21MOL    H18 4458   2.605   2.094   4.768 -0.2118 -1.2058 -0.9842
   21MOL    H19 4459   2.525   1.891   5.000 -1.5244  0.8957  0.1014
   21MOL    H20 4460   2.676   1.964   4.952  0.1604  1.5132 -0.0670
   21MOL    H21 4461   2.607   2.014   5.102  2.1162 -1.1691 -0.3154
   21MOL    H22 4462   2.528   2.333   4.818 -0.3845  1.2015 -1.7668
   21MOL    H23 4463   2.368   2.299   4.780 -0.2960 -0.6169 -0.1567
   21MOL    C24 4464   2.475   2.318   4.609 -0.2902 -0.3222 -0.0670
   21MOL    C25 4465   2.616   2.289   4.547 -0.4720  0.0514 -0.7331
   21MOL    O26 4466   2.702   2.374   4.558  0.4624 -0.1308 -0.3665
   21MOL    C27 4467   2.643   2.163   4.472  0.3843 -0.1552  0.4823
   21MOL    C28 4468   2.438   2.470   4.603 -0.0565 -0.1794 -0.2150
   21MOL    H29 4469   2.406   2.267   4.543 -0.6266  1.1471 -0.8895
   21MOL    H30 4470   2.551   2.124   4.427  1.0690 -0.5777 -0.5834
   21MOL    H31 4471   2.701   2.197   4.386  0.9353 -1.7445  0.2091
   21MOL    H32 4472   2.694   2.084   4.528  1.3066  1.2819  1.6998
   21MOL    H33 4473   2.520   2.532   4.640  0.8590 -1.3727 -0.2158
   21MOL    H34 4474   2.352   2.482   4.669 -0.2851 -1.1573 -0.3350
   21MOL    C35 4475   2.393   2.527   4.465 -0.1556 -0.9245 -0.2121
   21MOL    C36 4476   2.501   2.524   4.356  0.1128  0.2723 -0.1838
   21MOL    O37 4477   2.507   2.427   4.277 -0.6105  0.2180  0.1194
   21MOL    C38 4478   2.614   2.625   4.353 -0.1448 -0.8263  0.9128
   21MOL    C39 4479   2.317   2.658   4.476 -0.0315 -0.0109 -0.2815
   21MOL    H40 4480   2.315   2.459   4.430 -2.5705  1.8326 -0.3973
   21MOL    H41 4481   2.679   2.608   4.267 -0.6749  0.6463  0.1980
   21MOL    H42 4482   2.564   2.721   4.341 -1.9679 -1.8866 -0.2360
   21MOL    H43 4483   2.678   2.622   4.441  1.4526  1.0869 -0.1430
   21MOL    H44 4484   2.373   2.723   4.543 -0.7613 -0.4536  0.7835
   21MOL    H45 4485   2.234   2.634   4.543  1.2409  0.3034  1.4133
   21MOL    C46 4486   2.258   2.727   4.349 -0.1234  1.0379 -0.4695
   21MOL    C47 4487   2.189   2.858   4.381  0.0723 -0.2108  0.5318
   21MOL    O48 4488   2.067   2.880   4.383  0.8278 -0.0084  0.3876
   21MOL    C49 4489   2.285   2.985   4.387 -0.5774 -0.1101 -0.3914
   21MOL    C50 4490   2.160   2.633   4.279 -0.1480 -0.2070  1.0700
   21MOL    H51 4491   2.338   2.753   4.280 -1.5588  4.2007 -1.0470
   21MOL    H52 4492   2.292   3.018   4.491 -1.5034 -0.9338 -0.0704
   21MOL    H53 4493   2.381   2.951   4.346 -0.0473  0.0348  0.7026
   21MOL    H54 4494   2.237   3.055   4.319  0.3791  1.1681  0.2343
   21MOL    H55 4495   2.084   2.610   4.353 -2.5481  0.0416 -1.2305
   21MOL    H56 4496   2.212   2.540   4.257 -1.3793 -0.6238 -0.1207
   21MOL    C57 4497   2.101   2.675   4.134  0.1358  0.2613  0.2734
   21MOL    C58 4498   1.963   2.613   4.113  0.6326  0.3934 -0.0051
   21MOL    O59 4499   1.939   2.528   4.022  0.0015 -0.0601 -0.2123
   21MOL    C60 4500   1.848   2.671   4.200  0.1199  0.3461 -0.0199
   21MOL    C61 4501   2.197   2.633   4.015 -0.1460  0.3942 -0.0444
   21MOL    H62 4502   2.083   2.782   4.129  0.5887  0.2389 -3.0176
   21MOL    H63 4503   1.782   2.593   4.238 -1.6802  1.7613 -0.2242
   21MOL    H64 4504   1.882   2.735   4.282 -0.3029  1.6213 -0.8265
   21MOL    H65 4505   1.786   2.734   4.136  1.4767  2.0202  0.2786
   21MOL    H66 4506   2.147   2.643   3.919  0.9554 -0.0077 -0.6660
   21MOL    H67 4507   2.227   2.528   4.010  2.0099  0.9998 -0.4471
   21MOL    C68 4508   2.331   2.712   4.003 -0.1221 -0.3192  0.3183
   21MOL    C69 4509   2.311   2.865   4.015  0.7931 -0.0524 -0.2226
   21MOL    O70 4510   2.380   2.929   4.096 -0.3089  0.4457 -0.3317
   21MOL    C71 4511   2.216   2.935   3.926  0.6838  0.5047  1.0488
   21MOL    C72 4512   2.420   2.677   3.878  0.1856  0.4858  0.0100
   21MOL    H73 4513   2.390   2.690   4.092 -0.8290 -1.0684  0.6094
   21MOL    H74 4514   2.163   3.018   3.972  0.1947  1.3359 -0.9391
   21MOL    H75 4515   2.280   2.971   3.845  0.2441 -1.1621 -0.0669
   21MOL    H76 4516   2.148   2.860   3.885 -0.3603  2.0988 -0.1942
   21MOL    H77 4517   2.505   2.744   3.884  0.5213 -0.0031  0.8569
   21MOL    H78 4518   2.365   2.700   3.787  0.6526 -0.9456 -0.6482
   21MOL    C79 4519   2.462   2.531   3.874  0.3681  0.9580 -0.1257
   21MOL    C80 4520   2.613   2.517   3.843 -0.0070  0.1426  0.0162
   21MOL    O81 4521   2.658   2.482   3.733 -0.3200  0.4944 -0.1533
   21MOL    C82 4522   2.710   2.558   3.954  0.5987 -0.6704  0.3591
   21MOL    C83 4523   2.375   2.434   3.789  0.0751 -0.3812  0.2804
   21MOL    H84 4524   2.442   2.488   3.972 -0.2873 -0.2862 -0.8062
   21MOL    H85 4525   2.669   2.629   4.026  1.0538  0.9197 -0.9212
   21MOL    H86 4526   2.758   2.470   3.996 -2.2949 -1.4668  2.1570
   21MOL    H87 4527   2.801   2.602   3.914 -0.4490  0.2742 -1.0110
   21MOL    H88 4528   2.403   2.461   3.687  2.0133 -0.1571  0.8497
   21MOL    H89 4529   2.269   2.459   3.795  0.0713 -0.8866  2.7582
   21MOL    C90 4530   2.395   2.281   3.821  0.7098  0.8268 -0.4396
   21MOL    C91 4531   2.357   2.201   3.698  0.0493 -0.6373 -0.3440
   21MOL    O92 4532   2.243   2.160   3.687  0.5404  0.0767  0.0928
   21MOL    C93 4533   2.448   2.195   3.581  0.5815 -0.2344 -0.1768
   21MOL    C94 4534   2.313   2.249   3.950  0.1022 -0.1910  0.0160
   21MOL    H95 4535   2.502   2.270   3.835  1.0343  1.3406 -2.3256
   21MOL    H96 4536   2.514   2.282   3.583 -0.3406  0.4589  1.2814
   21MOL    H97 4537   2.499   2.099   3.581  2.2405  0.6248 -1.3742
   21MOL    H98 4538   2.382   2.203   3.494 -1.0963 -3.0355  0.7732
   21MOL    H99 4539   2.208   2.276   3.936 -0.2645 -0.4031  2.2100
   21MOL   H100 4540   2.342   2.312   4.034  0.9767 -0.5345 -0.0236
   21MOL   C101 4541   2.290   2.101   3.998 -0.9223  0.6112  0.0187
   21MOL   C102 4542   2.182   2.114   4.102  0.8978  0.6533  0.8533
   21MOL   O103 4543   2.192   2.108   4.226  0.0931 -0.8538  0.4021
   21MOL   C104 4544   2.044   2.126   4.044 -0.0273  0.2504 -0.0343
   21MOL   C105 4545   2.417   2.049   4.065  0.2934  0.4412  0.7076
   21MOL   H106 4546   2.252   2.045   3.913  0.6386  2.2852 -1.8549
   21MOL   H107 4547   2.042   2.122   3.935  1.5067  3.3538 -0.2374
   21MOL   H108 4548   1.978   2.046   4.078 -0.1248  0.6486  0.7422
   21MOL   H109 4549   2.006   2.227   4.059 -2.3111 -0.5831  0.0401
   21MOL   H110 4550   2.450   2.121   4.140 -2.1572 -0.8615  3.0936
   21MOL   H111 4551   2.505   2.067   4.003 -1.2540 -1.2045 -2.0554
   21MOL   C112 4552   2.423   1.909   4.142  0.2531 -0.6287 -0.1273
   21MOL   C113 4553   2.540   1.895   4.242  0.4038 -0.1071 -0.3533
   21MOL   O114 4554   2.651   1.936   4.209 -0.1047  0.3247  0.6543
   21MOL   C115 4555   2.518   1.818   4.369  0.5800  0.1252 -1.0168
   21MOL   C116 4556   2.408   1.788   4.051 -0.6441 -0.2345 -0.1256
   21MOL   H117 4557   2.334   1.905   4.205 -0.1297  2.0459 -0.4566
   21MOL   H118 4558   2.473   1.719   4.357  0.4040  0.0223  0.3571
   21MOL   H119 4559   2.604   1.799   4.433  0.1014  1.2640 -0.0136
   21MOL   H120 4560   2.448   1.875   4.430 -1.8921 -2.0785 -1.7038
   21MOL   H121 4561   2.320   1.797   3.987  0.1619 -1.1900 -1.3933
   21MOL   H122 4562   2.367   1.704   4.108  0.4471  0.0987  1.1517
   21MOL   C123 4563   2.532   1.745   3.970 -0.1348  0.7947  0.0620
   21MOL   C124 4564   2.496   1.755   3.820 -0.1533  0.3103  0.1869
   21MOL   O125 4565   2.479   1.654   3.759  0.2899 -0.2333  0.5219
   21MOL   C126 4566   2.472   1.890   3.753 -0.2251  0.0770  0.0817
   21MOL   C127 4567   2.588   1.612   4.010 -0.2691  0.6578  0.4100
   21MOL   H128 4568   2.601   1.826   3.992  0.0681  1.3077 -2.3649
   21MOL   H129 4569   2.524   1.892   3.658 -3.2718  2.0584 -1.6427
   21MOL   H130 4570   2.366   1.896   3.729 -0.5661  0.4348  1.6281
   21MOL   H131 4571   2.497   1.977   3.814  0.5988  0.9007 -1.4056
   21MOL   H132 4572   2.515   1.531   4.019  0.1655 -0.0260 -1.8816
   21MOL   H133 4573   2.610   1.619   4.117 -1.7199 -0.5282  0.8060
   21MOL   C134 4574   2.736   1.570   3.948  0.1404 -0.1760 -0.0847
   21MOL   C135 4575   2.777   1.426   3.959  0.1984 -0.4583  0.4511
   21MOL   O136 4576   2.729   1.350   4.036  0.3007 -0.0557  0.0345
   21MOL   C137 4577   2.883   1.378   3.870 -0.4151 -0.5873 -0.0637
   21MOL   C138 4578   2.849   1.654   4.015 -0.5372 -0.7885 -0.4751
   21MOL   H139 4579   2.738   1.583   3.840 -1.2746 -2.4208 -0.4288
   21MOL   H140 4580   2.878   1.436   3.778 -2.2102 -1.1034 -0.3023
   21MOL   H141 4581   2.980   1.383   3.921 -1.0189 -1.3007  1.1730
   21MOL   H142 4582   2.870   1.274   3.837  2.2315 -1.7745  2.4280
   21MOL   H143 4583   2.944   1.604   4.027 -0.2911  0.0116  0.9545
   21MOL   H144 4584   2.828   1.679   4.119  1.1919  0.2751 -0.3725
   21MOL   C145 4585   2.890   1.785   3.946  0.3154  0.2512  0.1825
   21MOL   C146 4586   2.940   1.752   3.804  0.0424 -0.3572  0.4458
   21MOL   O147 4587   3.049   1.699   3.772 -0.2104 -0.6273 -0.0726
   21MOL   C148 4588   2.836   1.799   3.693 -0.6190 -0.4010  0.3328
   21MOL   C149 4589   2.981   1.869   4.036 -0.8158  0.2391  0.4240
   21MOL   H150 4590   2.792   1.833   3.940 -0.9922 -2.1055  1.7666
   21MOL   H151 4591   2.740   1.747   3.698 -0.1068 -1.2841  1.0636
   21MOL   H152 4592   2.814   1.904   3.714 -0.3563  0.0460 -1.5103
   21MOL   H153 4593   2.866   1.799   3.588 -1.1917  0.1024  0.1617
   21MOL   H154 4594   3.073   1.813   4.018 -1.0990 -0.1602  0.2083
   21MOL   H155 4595   2.954   1.855   4.141 -1.8509  1.4542  0.3247
   21MOL   C156 4596   3.002   2.021   4.012 -0.4594 -0.4456  0.2843
   21MOL   C157 4597   2.872   2.099   3.992 -0.3200  0.3039 -0.0485
   21MOL   O158 4598   2.804   2.087   3.884 -0.1004 -0.4449 -0.4917
   21MOL   C159 4599   2.828   2.189   4.108  0.4304  0.1023  0.6805
   21MOL   C160 4600   3.101   2.044   3.896  0.0202  0.2189 -0.4395
   21MOL   H161 4601   3.049   2.047   4.107 -3.4559 -1.4347  2.1100
   21MOL   H162 4602   2.877   2.283   4.082 -1.2357 -0.6121 -5.9319
   21MOL   H163 4603   2.722   2.213   4.097  0.1127 -1.7407 -0.3945
   21MOL   H164 4604   2.849   2.155   4.209 -1.0801 -0.5596  0.7793
   21MOL   H165 4605   3.062   2.126   3.836 -0.1635 -0.2594 -0.9817
   21MOL   H166 4606   3.110   1.959   3.827  1.5907 -0.6825  0.8460
   21MOL   C167 4607   3.245   2.080   3.939 -0.2577  0.1815  0.0084
   21MOL   C168 4608   3.306   2.208   3.871  0.9499  0.4766 -0.1318
   21MOL   O169 4609   3.245   2.258   3.777 -0.7653 -0.0568  0.6571
   21MOL   C170 4610   3.434   2.274   3.924 -0.5496  0.3442  0.2827
   21MOL   C171 4611   3.346   1.962   3.943  0.3299 -0.7508 -0.0500
   21MOL   H172 4612   3.234   2.110   4.043 -3.2964 -0.5266 -0.0422
   21MOL   H173 4613   3.514   2.300   3.854 -1.8047  0.8661 -0.9838
   21MOL   H174 4614   3.402   2.361   3.981 -1.6627 -0.0761  0.3056
   21MOL   H175 4615   3.479   2.206   3.997 -0.1871  1.7434  1.3751
   21MOL   H176 4616   3.449   1.997   3.940  0.2574 -0.5533 -0.2287
   21MOL   H177 4617   3.350   1.907   3.849  3.0281 -2.0241  0.7660
   21MOL   C178 4618   3.342   1.865   4.066 -0.9018 -0.3377  0.4284
   21MOL   C179 4619   3.323   1.935   4.205  0.5072 -0.5994 -0.1026
   21MOL   O180 4620   3.391   2.029   4.235  0.0993  0.2668 -0.3114
   21MOL   C181 4621   3.235   1.868   4.311  0.6342 -0.3144 -0.3369
   21MOL   C182 4622   3.468   1.778   4.069  0.2081  0.1328 -0.2136
   21MOL   H183 4623   3.260   1.794   4.071 -0.0581 -1.2789  1.1303
   21MOL   H184 4624   3.220   1.762   4.290 -0.0684 -0.0678 -1.0789
   21MOL   H185 4625   3.281   1.866   4.410  1.5445 -1.1771 -0.7648
   21MOL   H186 4626   3.137   1.912   4.324 -0.3430 -3.1457  2.7634
   21MOL   H187 4627   3.544   1.816   4.138  0.5165 -1.8784  0.5701
   21MOL   H188 4628   3.502   1.777   3.966  0.0441  0.2883 -0.2699
   21MOL   C189 4629   3.435   1.635   4.114  0.1592  0.5764 -0.5250
   21MOL   C190 4630   3.568   1.552   4.156  0.1513 -0.0757  0.2691
   21MOL   O191 4631   3.615   1.470   4.081 -0.0683  0.1764 -0.4309
   21MOL   C192 4632   3.618   1.558   4.304 -0.2030 -0.5783 -0.2469
   21MOL   C193 4633   3.367   1.558   4.000  0.7156 -0.3881  0.0177
   21MOL   H194 4634   3.373   1.640   4.203  0.7910  1.9599 -0.1418
   21MOL   H195 4635   3.724   1.576   4.321 -0.8010  1.6595  1.4233
   21MOL   H196 4636   3.562   1.640   4.350  0.4475 -0.5154  0.4391
   21MOL   H197 4637   3.591   1.471   4.364 -0.5830 -0.6990 -0.5878
   21MOL   H198 4638   3.430   1.561   3.911 -0.7176  1.6812 -0.9748
   21MOL   H199 4639   3.278   1.617   3.977  1.3971  0.9119  0.6348
   21MOL   C200 4640   3.312   1.410   4.018  1.5277 -0.2661 -0.0581
   21MOL   C201 4641   3.307   1.349   3.878 -0.2751 -0.0643 -0.9165
   21MOL   O202 4642   3.204   1.327   3.811  0.3111 -0.0805 -0.8597
   21MOL   C203 4643   3.438   1.286   3.816 -0.0705  0.6429  0.5655
   21MOL   C204 4644   3.183   1.390   4.102  0.8915 -1.1577 -0.2147
   21MOL   H205 4645   3.395   1.360   4.068 -0.2042 -1.4688  1.6603
   21MOL   H206 4646   3.516   1.354   3.781 -0.4697  2.6849  3.4813
   21MOL   H207 4647   3.486   1.234   3.900 -0.9044 -0.3011  0.4672
   21MOL   H208 4648   3.422   1.213   3.737  0.1146  2.8214 -1.5458
   21MOL   H209 4649   3.105   1.453   4.057 -0.1796 -0.9140  1.9415
   21MOL   H210 4650   3.195   1.431   4.202  0.3044 -0.4091 -0.4434
   21MOL   C211 4651   3.130   1.247   4.101  0.4267 -0.0328 -0.3908
   21MOL   C212 4652   3.003   1.233   4.192 -1.0328 -0.6174 -0.0612
   21MOL   O213 4653   2.977   1.310   4.283  0.0944  0.9267 -0.4816
   21MOL   C214 4654   2.917   1.110   4.166 -0.6487 -0.1429 -0.7659
   21MOL   C215 4655   3.242   1.159   4.173 -0.0915  0.8691 -0.2387
   21MOL   H216 4656   3.111   1.208   4.001  4.2302 -0.4973 -1.0117
   21MOL   H217 4657   2.823   1.110   4.221 -0.3971 -0.9554 -0.3382
   21MOL   H218 4658   2.892   1.090   4.062  0.2330  0.3376 -1.0785
   21MOL   H219 4659   2.968   1.021   4.203  0.4641  1.0853  0.7296
   21MOL   H220 4660   3.200   1.059   4.186  0.6369  0.8435  1.9886
   21MOL   H221 4661   3.276   1.204   4.266  0.5401 -1.7274  0.8104
   21MOL   H222 4662   3.331   1.140   4.114  0.0477  2.1374 -0.4549
   22MOL     C1 4663   6.270   4.809   7.038 -0.2507  0.5949  0.0170
   22MOL     C2 4664   6.327   4.767   7.171  0.4285 -1.0827 -0.5136
   22MOL     O3 4665   6.272   4.802   7.277  0.8744  0.0211  0.4663
   22MOL     C4 4666   6.434   4.668   7.178  0.0195 -0.3007 -0.5970
   22MOL     C5 4667   6.224   4.956   7.035  0.1824 -0.2040 -0.2660
   22MOL     H6 4668   6.352   4.796   6.968 -0.3429 -0.1164  0.0344
   22MOL     H7 4669   6.444   4.611   7.085 -0.0193 -1.2348 -0.0337
   22MOL     H8 4670   6.527   4.721   7.197 -0.6695 -0.0681  2.3899
   22MOL     H9 4671   6.395   4.604   7.257 -1.8236 -1.9338 -2.7409
   22MOL    H10 4672   6.318   5.011   7.035 -0.1844  0.4358 -0.0759
   22MOL    H11 4673   6.182   4.974   7.134 -0.6191  0.6211 -0.7466
   22MOL    H12 4674   6.189   4.745   7.002  0.0897 -0.8734  1.7707
   22MOL    C13 4675   6.136   4.999   6.917  0.5356 -0.4120  0.0856
   22MOL    C14 4676   6.005   4.911   6.902 -0.8247 -0.9540 -0.4966
   22MOL    O15 4677   5.974   4.862   6.795 -0.2876 -0.4195 -0.2292
   22MOL    C16 4678   5.903   4.924   7.013  0.4074  0.2343  0.5871
   22MOL    C17 4679   6.221   4.993   6.780 -0.3085  0.0614  0.4841
   22MOL    H18 4680   6.106   5.102   6.933 -0.4602 -0.7464  0.4632
   22MOL    H19 4681   5.950   4.867   7.093 -1.1603  0.8033  1.9256
   22MOL    H20 4682   5.895   5.028   7.041 -0.2695  0.9095 -1.9673
   22MOL    H21 4683   5.808   4.881   6.983  0.9830 -0.1650 -0.7244
   22MOL    H22 4684   6.210   4.892   6.741 -1.1250 -0.3301  1.6588
   22MOL    H23 4685   6.327   5.005   6.803  0.1227 -2.2595 -0.1996
   22MOL    C24 4686   6.164   5.104   6.683 -0.2164 -0.5448 -0.2734
   22MOL    C25 4687   6.223   5.070   6.548 -0.0509  0.6091 -0.9204
   22MOL    O26 4688   6.321   5.127   6.501  0.1020  0.1758  0.2359
   22MOL    C27 4689   6.153   4.963   6.458 -0.1868 -0.5609  0.1048
   22MOL    C28 4690   6.202   5.245   6.733 -0.4281 -0.0563  0.0912
   22MOL    H29 4691   6.055   5.098   6.678 -0.5376  0.8576  3.4238
   22MOL    H30 4692   6.184   4.863   6.489 -1.6995 -1.1448 -0.2098
   22MOL    H31 4693   6.044   4.977   6.455  0.1979  2.9269  0.5478
   22MOL    H32 4694   6.181   4.982   6.354  1.1679  2.3882  0.9597
   22MOL    H33 4695   6.122   5.288   6.793  1.1457  1.4707  1.1417
   22MOL    H34 4696   6.203   5.317   6.651 -0.0150  1.1397  1.1290
   22MOL    C35 4697   6.337   5.277   6.818  0.7135 -0.0993  0.5883
   22MOL    C36 4698   6.327   5.419   6.879 -1.0568  0.2803  0.5049
   22MOL    O37 4699   6.314   5.437   7.001  0.5740  0.0111  0.2174
   22MOL    C38 4700   6.329   5.538   6.790 -0.5367 -0.0971 -0.3156
   22MOL    C39 4701   6.470   5.256   6.751 -0.2483  0.2209  0.8670
   22MOL    H40 4702   6.326   5.211   6.904  0.0005  1.7779  1.9611
   22MOL    H41 4703   6.371   5.615   6.854  0.5703 -1.9892  1.2702
   22MOL    H42 4704   6.389   5.542   6.699  1.1308  0.4538  0.7871
   22MOL    H43 4705   6.231   5.584   6.779  0.1599  1.9910  1.7670
   22MOL    H44 4706   6.470   5.323   6.665 -0.1494  0.5856  1.1540
   22MOL    H45 4707   6.465   5.155   6.709 -0.6154 -0.2070  1.9160
   22MOL    C46 4708   6.592   5.279   6.835 -0.0009 -0.2661 -0.8128
   22MOL    C47 4709   6.719   5.279   6.736  0.1252 -0.7940  0.5584
   22MOL    O48 4710   6.797   5.187   6.723  0.1242 -0.3591 -0.3725
   22MOL    C49 4711   6.741   5.411   6.671  0.1759  0.1077 -0.1645
   22MOL    C50 4712   6.606   5.187   6.956 -0.5245  0.7707  0.5334
   22MOL    H51 4713   6.595   5.383   6.868  0.7122 -0.3622 -0.5633
   22MOL    H52 4714   6.777   5.410   6.568 -0.1823  0.0476 -0.2878
   22MOL    H53 4715   6.648   5.467   6.668  0.8891  1.3452  0.5714
   22MOL    H54 4716   6.808   5.459   6.742 -1.7369  1.9368  0.4235
   22MOL    H55 4717   6.711   5.160   6.962 -0.2270  1.7028 -0.2890
   22MOL    H56 4718   6.551   5.095   6.940  0.4349  0.1741  0.6320
   22MOL    C57 4719   6.574   5.249   7.095 -0.0545  0.2776  0.5779
   22MOL    C58 4720   6.661   5.374   7.136 -0.0106 -0.9585 -0.7279
   22MOL    O59 4721   6.777   5.381   7.098 -0.3870 -0.1892  0.2099
   22MOL    C60 4722   6.593   5.491   7.204  0.1537  0.0301 -1.1927
   22MOL    C61 4723   6.594   5.149   7.208  0.6532 -0.9769 -0.2723
   22MOL    H62 4724   6.466   5.260   7.088 -0.0367  0.8989  1.1507
   22MOL    H63 4725   6.525   5.532   7.129  1.0190  0.5875 -1.6785
   22MOL    H64 4726   6.538   5.459   7.292 -0.0668  0.2625 -1.2458
   22MOL    H65 4727   6.670   5.561   7.236 -0.9611  0.5371  0.4168
   22MOL    H66 4728   6.700   5.144   7.236  0.4970 -2.4896  0.0881
   22MOL    H67 4729   6.567   5.048   7.176  0.4316 -1.0918  0.2752
   22MOL    C68 4730   6.513   5.170   7.343 -0.2440  0.0242  0.3278
   22MOL    C69 4731   6.566   5.058   7.441 -0.3391 -0.6802  0.0874
   22MOL    O70 4732   6.525   4.944   7.430 -0.2607  0.2052 -0.0980
   22MOL    C71 4733   6.655   5.093   7.550  0.8914  0.1177 -0.2461
   22MOL    C72 4734   6.362   5.161   7.315  0.4978 -0.1713 -0.3513
   22MOL    H73 4735   6.546   5.269   7.375 -0.3156  0.1306  0.0771
   22MOL    H74 4736   6.599   5.129   7.637  0.2603 -2.0975  0.2885
   22MOL    H75 4737   6.714   5.003   7.564  2.1463  0.9740  0.0815
   22MOL    H76 4738   6.730   5.168   7.523  0.7381  0.5257  0.4352
   22MOL    H77 4739   6.331   5.057   7.304  0.7899 -0.2696 -0.2438
   22MOL    H78 4740   6.336   5.193   7.214 -0.0703  1.9335  0.4379
   22MOL    C79 4741   6.264   5.233   7.416 -0.2566 -0.5725  0.7384
   22MOL    C80 4742   6.299   5.384   7.419  0.6263 -0.1806  0.5215
   22MOL    O81 4743   6.346   5.432   7.523 -0.6559  0.3480  0.0825
   22MOL    C82 4744   6.252   5.469   7.303  0.3649 -0.5345  0.4446
   22MOL    C83 4745   6.246   5.171   7.556  0.1015  0.2614 -0.0297
   22MOL    H84 4746   6.169   5.231   7.364  0.1252  0.1421 -0.0059
   22MOL    H85 4747   6.177   5.542   7.333  0.0458 -1.2043  1.2818
   22MOL    H86 4748   6.340   5.520   7.262 -0.4932 -0.0988 -0.8701
   22MOL    H87 4749   6.204   5.416   7.221 -0.7582  1.9898 -0.5727
   22MOL    H88 4750   6.212   5.242   7.632 -3.7721 -1.6909  0.2226
   22MOL    H89 4751   6.344   5.147   7.596  0.0243  1.5031  0.9404
   22MOL    C90 4752   6.155   5.051   7.553 -0.0177  0.8864  0.5185
   22MOL    C91 4753   6.006   5.085   7.529 -1.1937  0.3073 -0.0837
   22MOL    O92 4754   5.938   5.148   7.617 -0.7960  0.4660  0.0315
   22MOL    C93 4755   5.948   5.051   7.397 -0.0780 -0.3782 -0.4435
   22MOL    C94 4756   6.167   4.953   7.675  0.4330  0.5982  0.5676
   22MOL    H95 4757   6.180   4.996   7.463  0.7937  2.9571 -0.5645
   22MOL    H96 4758   5.914   4.948   7.389 -2.2039  0.4881 -3.9530
   22MOL    H97 4759   5.855   5.107   7.385  0.1700  0.0131 -0.5602
   22MOL    H98 4760   6.022   5.074   7.320  0.8669 -0.9044  0.3004
   22MOL    H99 4761   6.166   5.028   7.754 -1.8048  0.9060  0.2833
   22MOL   H100 4762   6.270   4.921   7.687  0.4096  0.0452 -0.6077
   22MOL   C101 4763   6.060   4.841   7.697  0.2120 -0.2706 -0.1442
   22MOL   C102 4764   6.036   4.809   0.004 -0.6039 -0.6312 -0.2777
   22MOL   O103 4765   6.105   4.725   0.066  0.6543 -0.1637  0.0514
   22MOL   C104 4766   5.941   4.895   0.082 -0.2539  0.1326  0.1109
   22MOL   C105 4767   6.094   4.704   7.624 -0.1926 -0.0545  0.2894
   22MOL   H106 4768   5.966   4.877   7.656 -0.9966 -1.1810  1.7331
   22MOL   H107 4769   5.974   4.908   0.185 -0.3534  0.4178  0.1070
   22MOL   H108 4770   5.918   4.987   0.028 -0.4617 -0.8998 -1.5912
   22MOL   H109 4771   5.845   4.843   0.088 -0.2265  0.2065  1.2378
   22MOL   H110 4772   6.157   4.641   7.686  0.5671 -0.2700 -0.6766
   22MOL   H111 4773   6.157   4.727   7.538  0.2492 -2.4184 -0.0481
   22MOL   C112 4774   5.981   4.615   7.563  0.4995 -0.4700  0.6559
   22MOL   C113 4775   5.909   4.666   7.435  0.5077  0.0077  0.6962
   22MOL   O114 4776   5.806   4.734   7.446  0.3933 -0.3620  0.0832
   22MOL   C115 4777   5.966   4.636   7.305  0.0811 -0.8831 -0.9946
   22MOL   C116 4778   5.868   4.582   7.670 -0.7035 -0.5666  0.4014
   22MOL   H117 4779   6.031   4.522   7.536 -2.2080 -2.1323  1.2318
   22MOL   H118 4780   5.947   4.533   7.274  0.4516 -1.1927 -0.2024
   22MOL   H119 4781   5.916   4.702   7.234  0.1758  0.0411 -0.2099
   22MOL   H120 4782   6.074   4.650   7.301 -0.3619  3.0411 -1.4427
   22MOL   H121 4783   5.821   4.672   7.709 -0.5820  0.1890 -1.1501
   22MOL   H122 4784   5.932   4.540   7.748 -1.0149  2.6170  2.4401
   22MOL   C123 4785   5.754   4.479   7.647  0.2353  0.1671  0.6086
   22MOL   C124 4786   5.625   4.531   7.578  0.2015 -0.5790 -0.3388
   22MOL   O125 4787   5.584   4.641   7.598 -0.5550  0.1478 -0.0116
   22MOL   C126 4788   5.558   4.436   7.477  0.2822 -0.1997  0.4041
   22MOL   C127 4789   5.739   4.387   7.762 -0.2478  0.3219 -0.0252
   22MOL   H128 4790   5.787   4.409   7.570 -1.3643  1.4007 -1.2632
   22MOL   H129 4791   5.615   4.343   7.474  0.0463 -0.3223 -0.3115
   22MOL   H130 4792   5.457   4.416   7.516  0.4112  0.2523  0.9765
   22MOL   H131 4793   5.560   4.475   7.376  2.5735  1.7613  1.1638
   22MOL   H132 4794   5.838   4.351   7.789 -0.0652  0.9003  0.0601
   22MOL   H133 4795   5.695   4.298   7.716  2.4742 -2.0360  1.7768
   22MOL   C134 4796   5.653   4.428   0.043 -0.3081  0.2105  0.4092
   22MOL   C135 4797   5.710   4.543   0.124  0.0012 -0.6691  0.2343
   22MOL   O136 4798   5.811   4.529   0.188  0.3572  0.7266 -0.2800
   22MOL   C137 4799   5.626   4.667   0.128 -0.6789  0.0731 -0.1425
   22MOL   C138 4800   5.644   4.307   0.138  0.5632  0.1591 -0.0895
   22MOL   H139 4801   5.553   4.453   0.007 -0.4264 -1.7525 -0.6836
   22MOL   H140 4802   5.522   4.643   0.153 -0.6936  1.6281  1.3724
   22MOL   H141 4803   5.661   4.730   0.210  1.5951  0.1899 -1.1771
   22MOL   H142 4804   5.639   4.731   0.041 -1.4265  0.3717 -0.0442
   22MOL   H143 4805   5.620   4.335   0.240 -2.7716 -0.0432 -0.7827
   22MOL   H144 4806   5.742   4.259   0.137  1.0730  1.1604  0.7829
   22MOL   C145 4807   5.540   4.203   0.098 -0.1252 -0.1079 -0.3279
   22MOL   C146 4808   5.393   4.257   0.120  0.4831 -0.5039  0.2501
   22MOL   O147 4809   5.364   4.363   0.175 -0.3146 -0.4698 -0.0105
   22MOL   C148 4810   5.279   4.190   0.043 -0.2486  0.1529 -0.0962
   22MOL   C149 4811   5.560   4.070   0.174 -0.4828  0.5647 -0.1728
   22MOL   H150 4812   5.558   4.185   7.834 -0.8641 -0.6141 -0.3692
   22MOL   H151 4813   5.223   4.113   0.098 -0.1727 -0.0414 -0.2927
   22MOL   H152 4814   5.202   4.260   0.012 -0.6756  0.7226  2.1399
   22MOL   H153 4815   5.315   4.144   7.793  0.6344 -1.0062  0.8216
   22MOL   H154 4816   5.462   4.040   0.211  0.6388 -0.2786  2.1902
   22MOL   H155 4817   5.622   4.072   0.263 -0.0540  2.2035 -0.4841
   22MOL   C156 4818   5.607   3.959   0.076  0.0843 -0.4315 -0.1348
   22MOL   C157 4819   5.497   3.868   0.012  0.2909 -0.3767 -0.5105
   22MOL   O158 4820   5.479   3.877   7.732  0.8005 -0.1069  0.7297
   22MOL   C159 4821   5.413   3.774   0.087 -0.7608 -0.4698  0.3532
   22MOL   C160 4822   5.708   3.866   0.140  0.0886  0.4064  0.7273
   22MOL   H161 4823   5.653   4.004   7.830  0.1102 -0.2213 -0.0147
   22MOL   H162 4824   5.456   3.736   0.180 -1.6312  0.5112  1.1775
   22MOL   H163 4825   5.323   3.831   0.111 -1.5963 -0.7145 -2.1242
   22MOL   H164 4826   5.390   3.686   0.027 -1.2105  0.8785 -1.4870
   22MOL   H165 4827   5.703   3.765   0.097  0.9970  0.2838  0.8983
   22MOL   H166 4828   5.690   3.849   0.246  2.4994  2.2825  1.4885
   22MOL   C167 4829   5.851   3.921   0.127 -0.4478 -1.0609  0.3011
   22MOL   C168 4830   5.899   3.961   7.827  0.3291 -0.2506 -0.1288
   22MOL   O169 4831   5.935   4.073   7.812  0.2897 -0.1211 -0.3071
   22MOL   C170 4832   5.900   3.859   7.717 -0.1489  0.2364  0.6451
   22MOL   C171 4833   5.951   3.819   0.196  0.0546 -0.8930  1.1804
   22MOL   H172 4834   5.851   4.007   0.194 -4.7483  0.5643 -1.6092
   22MOL   H173 4835   5.942   3.897   7.623  0.0141  0.1675  0.6907
   22MOL   H174 4836   5.971   3.778   7.734 -1.0768 -0.5197  0.9451
   22MOL   H175 4837   5.800   3.817   7.710  0.0675 -0.3545  1.0472
   22MOL   H176 4838   5.960   3.740   0.122 -0.1908 -0.6118  0.8484
   22MOL   H177 4839   5.909   3.765   0.281 -0.6323 -1.3766  0.5466
   22MOL   C178 4840   6.087   3.888   0.241 -0.0773  0.6160 -0.5284
   22MOL   C179 4841   6.214   3.807   0.199 -0.0368 -0.2042  0.4553
   22MOL   O180 4842   6.216   3.684   0.209 -0.0174  0.3676  0.3191
   22MOL   C181 4843   6.339   3.883   0.150  0.3649  0.0266 -0.0457
   22MOL   C182 4844   6.092   3.919   0.393  0.9726 -1.1343 -0.4278
   22MOL   H183 4845   6.098   3.984   0.190  0.5859  0.8472  0.0501
   22MOL   H184 4846   6.394   3.815   0.084  0.9152  0.2699  0.1668
   22MOL   H185 4847   6.300   3.970   0.097  0.0505  1.0464  1.8511
   22MOL   H186 4848   6.389   3.912   0.242  0.4998 -1.2516  0.2917
   22MOL   H187 4849   6.195   3.932   0.427  0.4346 -0.6900  1.0736
   22MOL   H188 4850   6.058   3.828   0.442  0.6094 -1.2791 -0.9457
   22MOL   C189 4851   6.002   4.033   0.457  0.3051  0.1959 -0.4952
   22MOL   C190 4852   6.034   4.171   0.398 -0.1759 -1.1669 -0.4893
   22MOL   O191 4853   6.145   4.223   0.416 -0.8704 -0.5589  0.0663
   22MOL   C192 4854   5.921   4.261   0.346  0.4897  0.0096  0.9997
   22MOL   C193 4855   6.020   4.021   0.608 -0.2071 -0.7176 -0.2856
   22MOL   H194 4856   5.902   3.999   0.432 -0.0672  0.5741  0.4511
   22MOL   H195 4857   5.831   4.202   0.326  0.4463  1.7986 -4.9143
   22MOL   H196 4858   5.891   4.333   0.422  0.0917  0.0334  0.8208
   22MOL   H197 4859   5.947   4.309   0.252  0.2801 -0.3875  0.7332
   22MOL   H198 4860   6.104   4.083   0.640  2.2625 -2.4280 -3.1133
   22MOL   H199 4861   6.045   3.924   0.651 -1.4285 -0.1807  1.6684
   22MOL   C200 4862   5.890   4.052   0.692  0.8323  0.5298  0.5651
   22MOL   C201 4863   5.757   3.980   0.644 -0.4354 -0.6346  0.0960
   22MOL   O202 4864   5.671   4.052   0.591 -0.2053 -0.4161  0.2231
   22MOL   C203 4865   5.760   3.835   0.636 -0.2745 -0.8884  0.4644
   22MOL   C204 4866   5.862   4.204   0.712  0.4415  0.2692  0.3877
   22MOL   H205 4867   5.905   4.007   0.790 -0.7813  0.6630  0.8859
   22MOL   H206 4868   5.839   3.789   0.697  1.3595  1.9816  0.5834
   22MOL   H207 4869   5.659   3.805   0.663 -0.5422 -1.5352 -1.1908
   22MOL   H208 4870   5.791   3.813   0.534  1.1240  3.2194 -0.0866
   22MOL   H209 4871   5.834   4.248   0.617 -0.4503 -0.8793  0.1066
   22MOL   H210 4872   5.958   4.247   0.742  0.3504  0.7231  0.0364
   22MOL   C211 4873   5.774   4.241   0.834 -0.7964  0.5390  0.3078
   22MOL   C212 4874   5.744   4.397   0.822  0.0389 -0.9181  0.4496
   22MOL   O213 4875   5.825   4.478   0.871  0.6191  0.0947 -0.5024
   22MOL   C214 4876   5.645   4.442   0.715  0.5508  0.2119 -0.5198
   22MOL   C215 4877   5.838   4.207   0.969  0.0278 -0.7333 -0.1372
   22MOL   H216 4878   5.680   4.186   0.838 -1.0644  1.0016  0.3855
   22MOL   H217 4879   5.691   4.422   0.618  1.0553 -0.4538 -0.1497
   22MOL   H218 4880   5.556   4.381   0.729  0.7954 -0.6038 -2.3411
   22MOL   H219 4881   5.603   4.542   0.724  1.8519  0.6823  0.4785
   22MOL   H220 4882   5.842   4.102   0.998  1.0249 -0.5480  0.4399
   22MOL   H221 4883   5.782   4.251   1.051 -1.2356 -3.2303  0.4008
   22MOL   H222 4884   5.934   4.258   0.974 -0.2964 -0.0139 -1.1529
   23MOL     C1 4885   1.627   2.168   2.181 -0.3072  0.4581  0.1667
   23MOL     C2 4886   1.609   2.040   2.091 -0.2595 -0.4631 -0.2486
   23MOL     O3 4887   1.516   2.030   2.013  0.3057 -0.5200 -0.3947
   23MOL     C4 4888   1.712   1.930   2.118 -0.3051  0.1892  0.1261
   23MOL     C5 4889   1.492   2.244   2.197  0.2438 -0.1802 -0.6480
   23MOL     H6 4890   1.663   2.121   2.273  0.7845  0.7499 -0.0996
   23MOL     H7 4891   1.667   1.857   2.185 -0.8961  0.1966 -0.2615
   23MOL     H8 4892   1.750   1.893   2.023  3.6716  1.9570  0.9066
   23MOL     H9 4893   1.799   1.984   2.157 -0.1078  0.1398 -0.2478
   23MOL    H10 4894   1.411   2.174   2.216  1.4874 -1.5941 -0.4240
   23MOL    H11 4895   1.467   2.273   2.095  0.5548 -1.0694 -0.9843
   23MOL    H12 4896   1.713   2.227   2.149  1.7616 -1.2144  2.3584
   23MOL    C13 4897   1.491   2.362   2.300 -0.4118  0.0770 -0.1719
   23MOL    C14 4898   1.483   2.490   2.218 -0.9406  0.2313  0.3030
   23MOL    O15 4899   1.572   2.518   2.134  0.3205  0.6672 -0.1993
   23MOL    C16 4900   1.354   2.575   2.222 -1.1658 -0.8243  0.1716
   23MOL    C17 4901   1.604   2.363   2.411 -0.0771 -0.1896  0.0299
   23MOL    H18 4902   1.398   2.361   2.355  0.1482 -2.3337  0.8179
   23MOL    H19 4903   1.354   2.675   2.264  1.8682 -1.4288  1.7741
   23MOL    H20 4904   1.318   2.581   2.119 -1.4205  1.3440  0.3774
   23MOL    H21 4905   1.274   2.529   2.280 -1.6592 -1.5343 -1.0508
   23MOL    H22 4906   1.699   2.395   2.369  1.7651 -2.3542  2.3416
   23MOL    H23 4907   1.634   2.260   2.434 -1.2586 -0.9288 -1.6728
   23MOL    C24 4908   1.565   2.448   2.536 -0.3200 -0.8505  0.3966
   23MOL    C25 4909   1.694   2.500   2.610 -0.0866 -0.1575 -0.2877
   23MOL    O26 4910   1.721   2.482   2.729  0.6624 -0.3822  0.3831
   23MOL    C27 4911   1.790   2.599   2.532 -0.5460 -0.0898  0.1784
   23MOL    C28 4912   1.467   2.378   2.626  0.6197  0.0031 -0.0974
   23MOL    H29 4913   1.526   2.538   2.488  0.9745  0.1706  1.1916
   23MOL    H30 4914   1.851   2.540   2.464 -1.2774 -1.8007  0.9753
   23MOL    H31 4915   1.740   2.677   2.475  0.4244 -0.7307 -1.5774
   23MOL    H32 4916   1.856   2.648   2.603  1.0356 -1.9341  0.0159
   23MOL    H33 4917   1.527   2.303   2.678 -0.0835 -0.9713 -0.6937
   23MOL    H34 4918   1.406   2.312   2.565 -0.3800  1.3162 -0.5369
   23MOL    C35 4919   1.394   2.464   2.737  0.4675  0.4959  0.3044
   23MOL    C36 4920   1.290   2.375   2.804  0.1996 -0.9175  1.3292
   23MOL    O37 4921   1.185   2.345   2.750 -0.1052 -0.0452  0.2932
   23MOL    C38 4922   1.326   2.326   2.944 -0.7839 -0.0957 -0.6402
   23MOL    C39 4923   1.328   2.593   2.673  0.6978  0.1435 -1.0077
   23MOL    H40 4924   1.473   2.502   2.802 -0.2349 -0.3044  1.6380
   23MOL    H41 4925   1.274   2.388   3.017  0.6513 -0.7001  0.9190
   23MOL    H42 4926   1.296   2.224   2.968  0.8243  0.0090  2.0164
   23MOL    H43 4927   1.433   2.323   2.964 -0.8654  1.4789  0.1117
   23MOL    H44 4928   1.265   2.559   2.591 -1.5037 -1.3836  1.2232
   23MOL    H45 4929   1.405   2.654   2.627 -1.0844  2.1781 -1.3365
   23MOL    C46 4930   1.259   2.682   2.782  0.2336 -0.7496  0.1759
   23MOL    C47 4931   1.119   2.715   2.732 -0.0073  0.2692 -0.2081
   23MOL    O48 4932   1.105   2.742   2.614  0.2277 -0.1296  0.0877
   23MOL    C49 4933   0.999   2.691   2.823 -0.4858  0.2312 -0.6090
   23MOL    C50 4934   1.330   2.811   2.828  1.1943  0.1056  0.4444
   23MOL    H51 4935   1.240   2.621   2.870  1.0273 -0.6326  0.4342
   23MOL    H52 4936   0.939   2.782   2.826  1.1614  1.3130  3.0863
   23MOL    H53 4937   0.934   2.615   2.779  0.0810  0.2192 -1.4422
   23MOL    H54 4938   1.032   2.668   2.924 -1.2630  0.3440 -0.3238
   23MOL    H55 4939   1.264   2.865   2.895  1.1137 -1.5793  1.7716
   23MOL    H56 4940   1.339   2.866   2.734 -0.4186 -1.1349 -0.4721
   23MOL    C57 4941   1.462   2.785   2.907  0.6615  0.3994  0.1937
   23MOL    C58 4942   1.445   2.715   3.047 -0.0182 -0.1746 -0.1320
   23MOL    O59 4943   1.488   2.604   3.062 -0.5940  0.2913  0.1977
   23MOL    C60 4944   1.380   2.786   3.168  0.2509 -0.5021  0.0477
   23MOL    C61 4945   1.538   2.920   2.920 -0.7961  0.0984  0.3837
   23MOL    H62 4946   1.526   2.717   2.850 -1.9647 -3.1664  1.3171
   23MOL    H63 4947   1.335   2.707   3.229 -2.1894 -0.3912 -1.5492
   23MOL    H64 4948   1.458   2.840   3.222  1.9762 -1.3844 -1.5054
   23MOL    H65 4949   1.298   2.851   3.139 -1.2668 -1.5025  1.9880
   23MOL    H66 4950   1.478   2.968   2.997 -3.3476 -1.8332 -0.2863
   23MOL    H67 4951   1.523   2.986   2.834  0.7157  0.3281  0.2905
   23MOL    C68 4952   1.691   2.915   2.960  0.1646  0.1219  0.5794
   23MOL    C69 4953   1.730   3.054   3.014 -0.5850 -0.5633  0.4979
   23MOL    O70 4954   1.792   3.134   2.942  0.1750 -0.5554  0.6020
   23MOL    C71 4955   1.672   3.097   3.147  0.4238 -0.1304 -0.8637
   23MOL    C72 4956   1.779   2.859   2.847  0.4274  0.0594 -0.5006
   23MOL    H73 4957   1.672   2.855   3.049  1.9776  1.0459  1.6331
   23MOL    H74 4958   1.744   3.140   3.217  1.2734 -3.3278  0.3357
   23MOL    H75 4959   1.589   3.166   3.133 -1.2605 -1.8322  0.5149
   23MOL    H76 4960   1.633   3.008   3.197  0.6942  0.7379  0.9588
   23MOL    H77 4961   1.806   2.931   2.771 -1.9126  0.0662 -1.3755
   23MOL    H78 4962   1.723   2.787   2.787 -0.2471 -2.4862  3.0102
   23MOL    C79 4963   1.907   2.797   2.893  0.7407 -0.3375  0.2876
   23MOL    C80 4964   2.019   2.806   2.788  0.1150  0.2973 -0.1375
   23MOL    O81 4965   2.069   2.708   2.736  0.4487  0.4700 -0.4697
   23MOL    C82 4966   2.059   2.941   2.741 -0.4460  0.7094 -0.0019
   23MOL    C83 4967   1.880   2.660   2.954 -0.5117 -0.2542  0.3376
   23MOL    H84 4968   1.939   2.861   2.975  1.2532  1.7425 -1.4676
   23MOL    H85 4969   2.148   2.934   2.678 -0.6265 -1.8181 -0.0293
   23MOL    H86 4970   1.985   3.007   2.695  0.1721  1.1406 -0.3904
   23MOL    H87 4971   2.091   3.007   2.823  0.2764 -0.9081  1.0380
   23MOL    H88 4972   1.844   2.597   2.872  2.2610 -3.2425  1.3051
   23MOL    H89 4973   1.792   2.677   3.017 -1.4313 -0.2046 -0.9310
   23MOL    C90 4974   1.996   2.583   3.028  0.0893  1.0001 -0.3251
   23MOL    C91 4975   1.937   2.452   3.098 -0.1048  0.1921 -0.5913
   23MOL    O92 4976   1.996   2.409   3.196 -0.2603 -0.1765 -0.1005
   23MOL    C93 4977   1.840   2.364   3.023 -0.0711 -0.6806  0.9428
   23MOL    C94 4978   2.072   2.675   3.134  0.1706  0.1755  0.4230
   23MOL    H95 4979   2.057   2.543   2.947 -0.0075 -0.0387  0.1079
   23MOL    H96 4980   1.883   2.353   2.924 -0.8855 -3.1034  0.8359
   23MOL    H97 4981   1.849   2.264   3.065  1.0497 -0.9291  0.1129
   23MOL    H98 4982   1.738   2.399   3.008 -0.6096 -2.1518  1.0808
   23MOL    H99 4983   2.102   2.772   3.094  2.4413 -0.6570  0.0744
   23MOL   H100 4984   2.161   2.615   3.148  1.1325  1.6209  0.5739
   23MOL   C101 4985   2.012   2.694   3.275  0.1607 -0.0074  0.1891
   23MOL   C102 4986   1.857   2.724   3.285  0.3710  0.7379  0.2810
   23MOL   O103 4987   1.817   2.843   3.267 -0.1889 -0.2006  0.0995
   23MOL   C104 4988   1.769   2.609   3.316 -0.6204  0.4048  0.2339
   23MOL   C105 4989   2.093   2.802   3.356 -0.6487 -0.4228 -0.1903
   23MOL   H106 4990   2.016   2.597   3.325  0.5807 -1.1443 -1.9624
   23MOL   H107 4991   1.727   2.554   3.232 -0.5371  0.1012  0.3887
   23MOL   H108 4992   1.837   2.535   3.358 -1.2228  0.9331  2.2029
   23MOL   H109 4993   1.701   2.642   3.395  1.9966  0.9641  2.3211
   23MOL   H110 4994   2.040   2.812   3.450 -0.7407  0.5105 -0.3390
   23MOL   H111 4995   2.102   2.900   3.309 -1.4116 -0.5155 -0.5400
   23MOL   C112 4996   2.234   2.768   3.395  0.1210  0.6002  0.0968
   23MOL   C113 4997   2.229   2.648   3.490 -0.4846 -0.3228  0.2867
   23MOL   O114 4998   2.186   2.658   3.601 -0.5194  0.1097  0.3883
   23MOL   C115 4999   2.282   2.515   3.430  0.1412  0.1498  0.1195
   23MOL   C116 5000   2.314   2.888   3.448 -0.6725  0.0391  0.5083
   23MOL   H117 5001   2.280   2.738   3.300  0.1707 -0.6618  0.5061
   23MOL   H118 5002   2.274   2.527   3.322  0.5575  0.4571  0.1165
   23MOL   H119 5003   2.389   2.502   3.451  0.0197  0.3954  0.9269
   23MOL   H120 5004   2.223   2.435   3.473 -1.6830  0.0109 -2.5529
   23MOL   H121 5005   2.260   2.927   3.533 -1.5161  0.4220 -0.1914
   23MOL   H122 5006   2.311   2.966   3.372 -0.4849  0.2013  0.6678
   23MOL   C123 5007   2.470   2.864   3.458 -0.6354  0.2913 -0.5454
   23MOL   C124 5008   2.529   2.927   3.590  0.2892  0.3069  0.3687
   23MOL   O125 5009   2.472   3.007   3.661  0.6187 -0.3420 -0.0551
   23MOL   C126 5010   2.665   2.881   3.625 -0.6320  0.5184 -0.3207
   23MOL   C127 5011   2.549   2.893   3.331  0.9464  0.3530 -0.2775
   23MOL   H128 5012   2.486   2.758   3.480 -1.0999  0.8559  2.7559
   23MOL   H129 5013   2.732   2.959   3.662  0.9728 -0.5894 -0.7852
   23MOL   H130 5014   2.666   2.802   3.700  0.9214 -0.8445 -1.7098
   23MOL   H131 5015   2.708   2.832   3.537 -0.4268 -0.4460  0.3073
   23MOL   H132 5016   2.657   2.889   3.341  0.9814 -0.3664 -0.9006
   23MOL   H133 5017   2.536   2.999   3.312 -1.7799  0.2814  0.8674
   23MOL   C134 5018   2.511   2.805   3.206 -0.5935  0.9962  0.4341
   23MOL   C135 5019   2.545   2.658   3.228  0.3593  0.0948 -0.5080
   23MOL   O136 5020   2.480   2.567   3.174 -0.0939 -0.1821 -0.3296
   23MOL   C137 5021   2.656   2.615   3.324  0.0998 -1.2802 -0.8586
   23MOL   C138 5022   2.559   2.858   3.076 -0.1768  0.6912 -0.2314
   23MOL   H139 5023   2.403   2.805   3.189 -0.4353 -1.0073 -0.8332
   23MOL   H140 5024   2.615   2.599   3.424  0.7390 -0.6879 -0.5001
   23MOL   H141 5025   2.702   2.519   3.302 -3.4173 -2.8508 -1.8251
   23MOL   H142 5026   2.727   2.696   3.338 -0.5552 -0.4630 -2.1897
   23MOL   H143 5027   2.627   2.789   3.026  0.7399  1.4440 -0.0415
   23MOL   H144 5028   2.623   2.945   3.088  0.7133 -0.2666  2.2227
   23MOL   C145 5029   2.440   2.872   2.969 -0.5222 -0.1041 -0.2656
   23MOL   C146 5030   2.350   2.987   3.005 -0.0436  0.1395  0.1188
   23MOL   O147 5031   2.228   2.975   3.017 -0.0915 -0.1262  0.2058
   23MOL   C148 5032   2.413   3.125   3.026  0.2611 -0.2968 -0.2723
   23MOL   C149 5033   2.360   2.744   2.939 -0.3116  0.1180  0.5987
   23MOL   H150 5034   2.478   2.907   2.873 -0.6933 -2.2037 -1.1286
   23MOL   H151 5035   2.506   3.135   2.969 -0.9619  1.2144 -2.0795
   23MOL   H152 5036   2.345   3.204   2.995  2.2566  1.3146 -0.6734
   23MOL   H153 5037   2.428   3.137   3.133 -2.1662 -2.0997  0.3013
   23MOL   H154 5038   2.272   2.765   2.879  1.3483  0.7266 -1.7111
   23MOL   H155 5039   2.320   2.709   3.034  0.4533  2.1076  1.6823
   23MOL   C156 5040   2.449   2.641   2.864 -0.4112  0.4207 -0.0514
   23MOL   C157 5041   2.497   2.695   2.722 -0.7301 -0.5275  0.3733
   23MOL   O158 5042   2.614   2.718   2.695 -0.3276 -0.0945 -0.4549
   23MOL   C159 5043   2.387   2.723   2.621 -0.0371  0.0409 -0.2040
   23MOL   C160 5044   2.376   2.507   2.854  0.1352 -0.4825 -0.5054
   23MOL   H161 5045   2.539   2.625   2.925 -1.1984 -0.2527  0.9508
   23MOL   H162 5046   2.305   2.778   2.667  1.2237 -0.6212  2.9900
   23MOL   H163 5047   2.440   2.804   2.571 -0.5393  1.2604  1.1992
   23MOL   H164 5048   2.356   2.636   2.564  0.6922  0.9612 -2.0473
   23MOL   H165 5049   2.329   2.498   2.756  2.1527 -1.7194 -1.3896
   23MOL   H166 5050   2.300   2.504   2.932  2.1951  0.5162  1.6112
   23MOL   C167 5051   2.466   2.392   2.886  0.5134 -0.2213  0.0041
   23MOL   C168 5052   2.503   2.319   2.756 -0.0131  0.4505  0.2888
   23MOL   O169 5053   2.422   2.243   2.703 -0.0334  0.3829 -0.0839
   23MOL   C170 5054   2.622   2.370   2.676 -0.0776 -0.2568 -0.2870
   23MOL   C171 5055   2.408   2.306   2.996 -0.2652  0.2928 -0.2843
   23MOL   H172 5056   2.552   2.431   2.940  1.7977 -3.1900  0.1860
   23MOL   H173 5057   2.657   2.454   2.736  0.2774  0.4557 -1.4675
   23MOL   H174 5058   2.708   2.302   2.668  1.5097  1.6073  0.5391
   23MOL   H175 5059   2.593   2.410   2.579 -3.9441 -0.9815  0.4886
   23MOL   H176 5060   2.307   2.274   2.967 -1.4302  3.1905  0.4587
   23MOL   H177 5061   2.377   2.361   3.085 -0.6579  1.6618 -1.2649
   23MOL   C178 5062   2.492   2.176   3.035  0.4248 -0.4966  0.3196
   23MOL   C179 5063   2.442   2.056   2.945  0.1732  0.0372  0.8232
   23MOL   O180 5064   2.321   2.032   2.939 -0.0643  0.6235 -0.1356
   23MOL   C181 5065   2.539   1.972   2.855  0.2151  0.3922  0.7979
   23MOL   C182 5066   2.485   2.140   3.183 -0.2563 -0.8079 -0.0672
   23MOL   H183 5067   2.594   2.196   3.002  0.1594 -0.6107 -0.5782
   23MOL   H184 5068   2.489   1.877   2.840 -0.8700  1.1182 -0.2199
   23MOL   H185 5069   2.577   2.022   2.766 -0.2034 -2.3322 -0.9711
   23MOL   H186 5070   2.631   1.946   2.909  0.4838  2.0833  1.2012
   23MOL   H187 5071   2.389   2.090   3.198  0.4370 -2.7167 -1.7562
   23MOL   H188 5072   2.476   2.232   3.241  0.8953 -0.0932 -0.9987
   23MOL   C189 5073   2.604   2.056   3.224 -0.0972  0.2987  0.2316
   23MOL   C190 5074   2.559   1.947   3.327  0.3732 -0.3775 -0.1664
   23MOL   O191 5075   2.599   1.934   3.441 -1.0699 -0.2310  0.5903
   23MOL   C192 5076   2.508   1.808   3.282  0.2392 -0.8354 -0.1884
   23MOL   C193 5077   2.712   2.156   3.283 -0.1950 -0.3545 -0.4038
   23MOL   H194 5078   2.649   1.989   3.151 -0.9420 -0.0570  0.0394
   23MOL   H195 5079   2.495   1.806   3.174 -0.7326 -0.5359 -0.0810
   23MOL   H196 5080   2.581   1.731   3.308  1.9513  0.7815 -0.1577
   23MOL   H197 5081   2.411   1.785   3.326 -0.0090  0.6802  0.0547
   23MOL   H198 5082   2.681   2.202   3.376 -0.0258 -2.3473  0.6700
   23MOL   H199 5083   2.732   2.236   3.212 -2.1476  0.9773  0.5324
   23MOL   C200 5084   2.856   2.087   3.321 -0.2197 -0.3201 -0.0386
   23MOL   C201 5085   2.941   2.175   3.425 -0.2313  0.2667  0.1341
   23MOL   O202 5086   2.987   2.280   3.380 -0.4600  0.1720  0.3772
   23MOL   C203 5087   2.921   2.150   3.573 -0.3541  1.4097 -0.0459
   23MOL   C204 5088   2.936   2.045   3.193 -0.1960  0.1458 -0.1837
   23MOL   H205 5089   2.837   2.002   3.387 -0.2381  0.4933  1.0069
   23MOL   H206 5090   2.950   2.238   3.629 -0.2013  1.5116 -0.2849
   23MOL   H207 5091   2.826   2.111   3.610 -0.7121  1.4708 -0.8739
   23MOL   H208 5092   2.984   2.066   3.601 -2.8499 -1.1842 -1.8616
   23MOL   H209 5093   3.015   2.118   3.176  0.0378 -0.1973 -0.5768
   23MOL   H210 5094   2.877   2.060   3.102  1.1606 -1.2680 -1.3316
   23MOL   C211 5095   2.996   1.903   3.189  0.5369  0.1517 -0.3251
   23MOL   C212 5096   2.885   1.798   3.190  0.0856  0.6313 -0.1931
   23MOL   O213 5097   2.835   1.761   3.297  0.5931 -0.3486  0.4654
   23MOL   C214 5098   2.854   1.731   3.060  0.0764 -0.2280  0.1277
   23MOL   C215 5099   3.100   1.890   3.306  0.1296  0.2675  0.4831
   23MOL   H216 5100   3.062   1.884   3.104  1.9623  1.9210  0.3442
   23MOL   H217 5101   2.921   1.645   3.054 -1.1147 -1.1858  0.4479
   23MOL   H218 5102   2.751   1.697   3.059 -0.8283  2.3927 -0.8010
   23MOL   H219 5103   2.867   1.792   2.970 -1.5938  0.7922  0.5553
   23MOL   H220 5104   3.165   1.805   3.285 -1.6049 -0.8052 -0.6111
   23MOL   H221 5105   3.045   1.881   3.399  1.7041 -0.8418  1.3332
   23MOL   H222 5106   3.181   1.963   3.313 -0.6506  1.1316  0.5099
   24MOL     C1 5107   4.787   2.124   6.621 -0.2891 -0.8608  0.1884
   24MOL     C2 5108   4.689   2.221   6.683 -1.1307 -0.3363  0.1192
   24MOL     O3 5109   4.605   2.183   6.763  0.1418  0.0074 -0.4015
   24MOL     C4 5110   4.705   2.368   6.650 -0.0917  0.8460  0.6086
   24MOL     C5 5111   4.719   2.013   6.545 -0.3438 -0.3773 -0.1304
   24MOL     H6 5112   4.847   2.185   6.555 -0.2023 -2.8260 -1.5816
   24MOL     H7 5113   4.615   2.426   6.668 -0.7003 -0.4405  1.7768
   24MOL     H8 5114   4.790   2.408   6.705  0.9252 -1.8161  1.0640
   24MOL     H9 5115   4.719   2.360   6.542 -0.9986  4.0149  0.2088
   24MOL    H10 5116   4.793   1.983   6.470  0.1917 -1.8263  0.9456
   24MOL    H11 5117   4.640   2.047   6.478 -1.3324 -0.7317  0.8387
   24MOL    H12 5118   4.860   2.086   6.692  1.3599 -0.4180 -1.2620
   24MOL    C13 5119   4.666   1.890   6.625 -0.5840  0.5304  0.5373
   24MOL    C14 5120   4.781   1.802   6.679 -0.1483 -0.1922 -0.1115
   24MOL    O15 5121   4.861   1.746   6.607 -0.0101 -0.3659  0.7007
   24MOL    C16 5122   4.809   1.806   6.833 -0.1709  0.6014 -1.0325
   24MOL    C17 5123   4.559   1.819   6.529  1.3663  0.1450  0.3747
   24MOL    H18 5124   4.610   1.933   6.708 -1.5346  1.1017 -0.3866
   24MOL    H19 5125   4.768   1.900   6.870  0.4451  1.0724 -1.5323
   24MOL    H20 5126   4.763   1.712   6.862 -1.3383  1.0068 -1.5292
   24MOL    H21 5127   4.917   1.800   6.838 -0.1652  0.6134 -1.1481
   24MOL    H22 5128   4.618   1.776   6.447  0.0246 -1.4586  0.2417
   24MOL    H23 5129   4.492   1.885   6.475  2.6545  1.3605  0.2152
   24MOL    C24 5130   4.460   1.717   6.589  1.0119 -0.6390 -0.1369
   24MOL    C25 5131   4.426   1.592   6.501 -0.1047 -0.0861  1.0697
   24MOL    O26 5132   4.318   1.557   6.462  0.3769 -0.0230 -0.0359
   24MOL    C27 5133   4.538   1.490   6.478 -0.4162 -0.2451  0.3285
   24MOL    C28 5134   4.331   1.789   6.630  0.2084 -0.3535  0.4156
   24MOL    H29 5135   4.505   1.664   6.673  1.3502  1.1494  0.8444
   24MOL    H30 5136   4.610   1.495   6.560  0.6469  1.3224 -0.6574
   24MOL    H31 5137   4.495   1.391   6.463  0.7074 -0.7216  0.1624
   24MOL    H32 5138   4.593   1.515   6.386  0.5002 -1.1572  0.6242
   24MOL    H33 5139   4.283   1.810   6.534  1.8804 -0.1037 -0.3915
   24MOL    H34 5140   4.357   1.878   6.687 -0.5046  0.1517 -0.0469
   24MOL    C35 5141   4.234   1.705   6.725 -0.5715 -0.2697  0.4267
   24MOL    C36 5142   4.105   1.784   6.740 -0.0530 -0.7018 -0.2160
   24MOL    O37 5143   4.098   1.904   6.704  0.2835  0.4261  0.1743
   24MOL    C38 5144   3.989   1.720   6.800 -0.4400  0.3655  0.2057
   24MOL    C39 5145   4.306   1.658   6.857  0.0253 -0.1539  0.1961
   24MOL    H40 5146   4.191   1.620   6.670 -2.1145  0.9824 -0.3496
   24MOL    H41 5147   4.017   1.683   6.899  0.3240  2.9730  0.9885
   24MOL    H42 5148   3.916   1.800   6.808 -0.8379  0.1377 -1.0295
   24MOL    H43 5149   3.932   1.650   6.738  0.3051  1.6789 -2.0087
   24MOL    H44 5150   4.241   1.680   6.943  1.7352 -1.5698  1.8817
   24MOL    H45 5151   4.393   1.719   6.880  0.8904 -1.1333 -0.4593
   24MOL    C46 5152   4.335   1.507   6.878  0.3433 -0.5476  0.6413
   24MOL    C47 5153   4.206   1.426   6.900 -0.4751 -1.4910  0.5023
   24MOL    O48 5154   4.138   1.436   7.003  0.1817 -0.1426  0.1462
   24MOL    C49 5155   4.181   1.324   6.791  0.0890  0.1362  0.7201
   24MOL    C50 5156   4.429   1.496   6.997 -0.4103  0.5606 -0.4883
   24MOL    H51 5157   4.390   1.473   6.790  1.8732  0.7782  1.0616
   24MOL    H52 5158   4.170   1.232   6.847  1.0697  0.6683  1.8116
   24MOL    H53 5159   4.094   1.355   6.734  1.0545 -1.2775 -1.5836
   24MOL    H54 5160   4.270   1.324   6.728 -0.5350  2.0424 -0.1944
   24MOL    H55 5161   4.377   1.485   7.092  0.4689  0.8690  0.0374
   24MOL    H56 5162   4.489   1.586   7.011 -1.6745  1.5222 -1.1894
   24MOL    C57 5163   4.538   1.378   7.002  0.2246  0.0099  0.2611
   24MOL    C58 5164   4.646   1.395   6.886  0.4568  0.3538 -0.2705
   24MOL    O59 5165   4.623   1.382   6.768 -0.2604  0.7571  0.7476
   24MOL    C60 5166   4.790   1.428   6.927  0.0325 -0.0270 -0.0104
   24MOL    C61 5167   4.479   1.232   7.020 -0.3105 -0.4016 -0.2065
   24MOL    H62 5168   4.590   1.402   7.095 -1.1663 -0.7264  1.2501
   24MOL    H63 5169   4.836   1.330   6.939 -2.9472 -1.3781  0.7290
   24MOL    H64 5170   4.845   1.472   6.844 -0.1312 -0.3584 -0.2976
   24MOL    H65 5171   4.787   1.498   7.011  0.1024 -0.6062  0.4811
   24MOL    H66 5172   4.446   1.194   6.924 -1.5091  2.6457 -1.0554
   24MOL    H67 5173   4.388   1.235   7.081  0.9090  3.1576  1.5957
   24MOL    C68 5174   4.572   1.117   7.067 -0.2073  0.1488 -0.1078
   24MOL    C69 5175   4.659   1.155   7.185  0.4749  0.5673  0.0134
   24MOL    O70 5176   4.779   1.152   7.180  0.3137 -0.0679 -0.3071
   24MOL    C71 5177   4.598   1.180   7.323  0.1916 -0.0434 -0.7429
   24MOL    C72 5178   4.647   1.054   6.948  0.8555  0.4770  0.6313
   24MOL    H73 5179   4.502   1.037   7.093 -2.4512  2.1311  0.2029
   24MOL    H74 5180   4.492   1.158   7.326  0.6026 -1.8495  2.0348
   24MOL    H75 5181   4.649   1.123   7.401 -0.5664 -0.0229 -0.2330
   24MOL    H76 5182   4.600   1.287   7.344  2.3509 -0.3324  0.7118
   24MOL    H77 5183   4.734   1.114   6.921  1.7836  0.0453  2.5189
   24MOL    H78 5184   4.590   1.043   6.856  0.4484  0.2909  0.9051
   24MOL    C79 5185   4.692   0.908   6.985  0.4911  0.9265  0.0480
   24MOL    C80 5186   4.827   0.876   6.914  0.4419 -0.9142 -0.2986
   24MOL    O81 5187   4.839   0.862   6.792 -0.5310  0.0203 -0.0763
   24MOL    C82 5188   4.949   0.868   7.002 -0.2124 -0.4449  0.6662
   24MOL    C83 5189   4.582   0.796   6.963 -1.2975  0.2634 -0.1121
   24MOL    H84 5190   4.720   0.905   7.090 -0.2201  1.5127  0.2605
   24MOL    H85 5191   4.930   0.776   7.057 -0.4324 -1.4534 -1.0717
   24MOL    H86 5192   5.040   0.852   6.944 -1.9576 -0.2717 -2.2466
   24MOL    H87 5193   4.961   0.958   7.062  1.0937  0.5587 -1.0295
   24MOL    H88 5194   4.627   0.717   6.903  0.7937  2.4123 -1.5059
   24MOL    H89 5195   4.511   0.833   6.889 -0.2274  2.8910  0.0998
   24MOL    C90 5196   4.513   0.748   7.094 -0.6887 -0.3235  0.2732
   24MOL    C91 5197   4.610   0.668   7.189  0.6891 -0.0365 -0.4574
   24MOL    O92 5198   4.646   0.719   7.290  0.0545  0.0328 -0.4830
   24MOL    C93 5199   4.658   0.528   7.145 -0.2004 -0.9683 -0.0695
   24MOL    C94 5200   4.377   0.673   7.070 -0.1308 -0.1912  0.2391
   24MOL    H95 5201   4.483   0.824   7.165  0.1268 -2.7816  3.3655
   24MOL    H96 5202   4.639   0.517   7.039  0.0498 -0.1467 -0.2069
   24MOL    H97 5203   4.765   0.511   7.157  0.1153  1.1443  0.3192
   24MOL    H98 5204   4.601   0.446   7.188 -1.8519  0.3969  0.4404
   24MOL    H99 5205   4.399   0.594   6.998 -0.7058 -0.5330  0.4410
   24MOL   H100 5206   4.307   0.734   7.012 -0.7917 -1.0363  0.1491
   24MOL   C101 5207   4.304   0.623   7.199  0.1226 -0.2418  0.0361
   24MOL   C102 5208   4.205   0.511   7.164  0.1235  0.2872  0.1288
   24MOL   O103 5209   4.090   0.512   7.207  0.0669 -0.1526  0.5173
   24MOL   C104 5210   4.258   0.392   7.083 -0.0510  0.9919  0.1515
   24MOL   C105 5211   4.257   0.718   7.305 -0.5349 -0.5019 -0.2255
   24MOL   H106 5212   4.377   0.566   7.257  1.4099  1.7670  0.4362
   24MOL   H107 5213   4.362   0.381   7.055  0.2890  1.8742  1.0532
   24MOL   H108 5214   4.238   0.299   7.136 -1.9441  0.9400 -0.5989
   24MOL   H109 5215   4.195   0.393   6.994  1.3059  0.3119 -0.8230
   24MOL   H110 5216   4.335   0.792   7.323 -1.2931  0.8192 -2.2059
   24MOL   H111 5217   4.252   0.665   7.400  0.5361  1.8741  1.2187
   24MOL   C112 5218   4.130   0.796   7.271 -0.1637  0.2714 -0.4304
   24MOL   C113 5219   4.152   0.930   7.198 -0.8120  0.3855 -0.1486
   24MOL   O114 5220   4.262   0.988   7.200 -0.1232 -0.3474 -0.1533
   24MOL   C115 5221   4.031   0.999   7.129  0.2860 -0.1223 -0.5040
   24MOL   C116 5222   4.048   0.845   7.398  0.0485 -0.2346 -0.4783
   24MOL   H117 5223   4.069   0.737   7.202  1.3017 -1.0806 -0.6022
   24MOL   H118 5224   3.943   0.944   7.162 -0.7923  2.2009  0.5989
   24MOL   H119 5225   4.022   1.101   7.166  0.2463 -0.8614  1.5563
   24MOL   H120 5226   4.042   1.008   7.021 -2.2666  1.5304 -0.6847
   24MOL   H121 5227   3.983   0.929   7.374 -0.5936 -0.6570 -0.2447
   24MOL   H122 5228   4.110   0.894   7.472 -1.1406  0.4975  0.0471
   24MOL   C123 5229   3.959   0.737   7.456 -0.0149 -0.3564  0.3824
   24MOL   C124 5230   3.844   0.707   7.358  0.2725  0.5806 -0.4366
   24MOL   O125 5231   3.787   0.794   7.292 -0.4954  0.0770 -0.3236
   24MOL   C126 5232   3.796   0.563   7.341  0.2234  0.1697  0.6348
   24MOL   C127 5233   3.917   0.780   7.597  0.8099 -0.6766 -0.4393
   24MOL   H128 5234   4.011   0.641   7.458 -1.2401 -1.0163  2.4081
   24MOL   H129 5235   3.807   0.532   7.237  3.1090 -1.4856  1.3754
   24MOL   H130 5236   3.851   0.493   7.403  0.7442  0.2659  0.2874
   24MOL   H131 5237   3.690   0.559   7.366 -0.5588 -3.1837 -2.7320
   24MOL   H132 5238   3.994   0.764   7.673 -0.3065  0.3761  0.9369
   24MOL   H133 5239   3.844   0.706   7.629 -1.3272  1.4434 -0.2669
   24MOL   C134 5240   3.852   0.918   7.635 -0.6149 -0.0829  1.1227
   24MOL   C135 5241   3.958   1.033   7.665 -0.3950 -0.2928 -0.4948
   24MOL   O136 5242   4.075   1.005   7.699 -0.2753 -0.7948 -0.0459
   24MOL   C137 5243   3.916   1.176   7.670  0.1738  0.3823  0.7726
   24MOL   C138 5244   3.745   0.908   7.756 -0.1367  0.0907  0.7371
   24MOL   H139 5245   3.799   0.958   7.548  0.5819 -0.4312  0.2311
   24MOL   H140 5246   3.923   1.212   7.568 -0.5416 -0.9376  0.2381
   24MOL   H141 5247   3.811   1.187   7.700 -0.1310  0.9375 -0.4769
   24MOL   H142 5248   3.978   1.235   7.738 -0.1297 -1.3519  2.6279
   24MOL   H143 5249   3.755   0.987   7.831 -0.6460  1.1084 -0.2539
   24MOL   H144 5250   3.744   0.819   7.819 -0.8101 -0.6038 -0.2387
   24MOL   C145 5251   3.601   0.918   7.706  0.1928  0.6495 -0.4569
   24MOL   C146 5252   3.515   0.974   7.825  0.0132  0.5428 -0.2215
   24MOL   O147 5253   3.459   0.901   0.072 -0.2108 -0.3021  0.3216
   24MOL   C148 5254   3.502   1.128   7.826 -0.0502  0.2195 -0.1638
   24MOL   C149 5255   3.546   0.781   7.657  0.6662  0.3156 -0.4323
   24MOL   H150 5256   3.598   0.990   7.624 -0.3987  0.9614 -0.1621
   24MOL   H151 5257   3.470   1.175   0.077  2.5942  3.0939 -0.6219
   24MOL   H152 5258   3.599   1.170   7.802  0.5923 -0.5027  1.1203
   24MOL   H153 5259   3.437   1.166   7.747 -0.9435 -2.1911 -0.6106
   24MOL   H154 5260   3.571   0.702   7.727  3.3155  1.3691 -0.1424
   24MOL   H155 5261   3.601   0.760   7.565 -0.9023  1.2026 -1.6092
   24MOL   C156 5262   3.395   0.776   7.613 -0.2385  0.3435  0.3639
   24MOL   C157 5263   3.363   0.627   7.595 -0.1266 -0.2462 -0.3410
   24MOL   O158 5264   3.328   0.583   7.486  0.1451 -0.4637  0.2110
   24MOL   C159 5265   3.368   0.528   7.713  0.2273  0.1506 -0.6003
   24MOL   C160 5266   3.373   0.860   7.478 -0.0218  0.7641 -0.3321
   24MOL   H161 5267   3.332   0.811   7.695  0.4171 -0.5943  1.2846
   24MOL   H162 5268   3.380   0.573   7.812  0.3165 -0.3012 -0.4022
   24MOL   H163 5269   3.271   0.479   7.717  0.3912 -0.0363  1.8815
   24MOL   H164 5270   3.433   0.442   7.698  0.1950 -0.1410  0.7853
   24MOL   H165 5271   3.416   0.807   7.393 -1.8003  1.6623 -1.8386
   24MOL   H166 5272   3.442   0.944   7.471 -0.9220  1.4870 -0.6157
   24MOL   C167 5273   3.228   0.908   7.456 -0.4650 -0.1426 -0.2922
   24MOL   C168 5274   3.199   0.921   7.310 -0.1268 -0.4396 -0.0421
   24MOL   O169 5275   3.164   1.031   7.270  0.0256  0.1732 -0.4340
   24MOL   C170 5276   3.184   0.797   7.230 -0.1521  0.4342  0.9130
   24MOL   C171 5277   3.211   1.040   7.539  0.2408  0.4185 -1.2035
   24MOL   H172 5278   3.160   0.828   7.486  1.0109 -0.8203  1.2707
   24MOL   H173 5279   3.285   0.764   7.204 -1.4945 -3.1566  0.0260
   24MOL   H174 5280   3.137   0.716   7.285  0.7549 -0.1575  0.8351
   24MOL   H175 5281   3.137   0.826   7.136  1.7716 -0.4212 -0.3650
   24MOL   H176 5282   3.274   1.121   7.503  1.1998  0.3387  0.2668
   24MOL   H177 5283   3.254   1.016   7.636 -2.5230  1.9468  0.4451
   24MOL   C178 5284   3.065   1.100   7.550 -0.5189 -0.3876 -0.0169
   24MOL   C179 5285   3.065   1.240   7.601  0.0600 -0.7656  0.7711
   24MOL   O180 5286   3.035   1.327   7.521  0.7741 -0.5752 -0.1011
   24MOL   C181 5287   3.135   1.272   7.736  0.0643 -0.1257  1.1120
   24MOL   C182 5288   2.962   1.013   7.626  0.3320 -0.1596  0.2142
   24MOL   H183 5289   3.018   1.098   7.452  0.3199 -1.0670 -0.4088
   24MOL   H184 5290   3.221   1.336   7.718 -1.1691  0.9884 -1.0794
   24MOL   H185 5291   3.058   1.318   7.798 -0.2786 -1.3476  1.6120
   24MOL   H186 5292   3.167   1.180   7.784  0.0318 -2.2693 -2.7160
   24MOL   H187 5293   2.998   0.986   7.725 -1.0395 -2.2281  0.1918
   24MOL   H188 5294   2.956   0.922   7.566 -1.1875  0.3047 -0.3769
   24MOL   C189 5295   2.817   1.059   7.632  0.1390 -0.4506  0.5149
   24MOL   C190 5296   2.735   0.980   7.732  0.6879 -0.1991 -0.1029
   24MOL   O191 5297   2.771   0.871   7.771  0.1037 -0.1928  0.0707
   24MOL   C192 5298   2.600   1.036   7.778  0.1729  0.8488 -0.5763
   24MOL   C193 5299   2.756   1.075   7.490 -0.2747 -0.0960  0.6261
   24MOL   H194 5300   2.826   1.157   7.679  2.2198  0.1515 -1.0438
   24MOL   H195 5301   2.529   1.057   7.697 -3.2773 -1.1368  1.8234
   24MOL   H196 5302   2.551   0.960   7.839  1.6645  1.1734  1.0518
   24MOL   H197 5303   2.598   1.127   7.838  0.5966 -0.1165  0.9040
   24MOL   H198 5304   2.790   1.166   7.440 -1.7338 -0.8254 -1.7978
   24MOL   H199 5305   2.650   1.088   7.513 -0.1858 -2.0046  2.2353
   24MOL   C200 5306   2.766   0.958   7.390 -0.1116 -0.0518  0.0296
   24MOL   C201 5307   2.732   1.024   7.251 -0.0409 -0.0763 -0.2209
   24MOL   O202 5308   2.618   1.024   7.208  0.0923  1.0392  0.2082
   24MOL   C203 5309   2.856   1.080   7.177 -0.5362  0.1665 -0.3183
   24MOL   C204 5310   2.687   0.833   7.423  0.4161 -0.1622  0.0905
   24MOL   H205 5311   2.867   0.920   7.371 -0.7918 -2.0172  0.1658
   24MOL   H206 5312   2.905   1.168   7.218  0.6110 -1.7231  2.4548
   24MOL   H207 5313   2.927   0.998   7.173 -0.5190  0.1410  0.5208
   24MOL   H208 5314   2.823   1.105   7.076  3.2186  1.2802 -1.3494
   24MOL   H209 5315   2.585   0.856   7.455 -0.0596 -2.7358  0.5272
   24MOL   H210 5316   2.733   0.794   7.514 -0.5921 -0.6154  0.4113
   24MOL   C211 5317   2.684   0.720   7.318 -0.6415  0.0805 -0.5404
   24MOL   C212 5318   2.605   0.607   7.373  0.7044 -0.3529 -0.1767
   24MOL   O213 5319   2.653   0.511   7.432  0.3075  0.0312  0.1181
   24MOL   C214 5320   2.456   0.615   7.364 -0.5162 -0.1275 -0.6025
   24MOL   C215 5321   2.823   0.670   7.262  0.3860 -0.2385 -0.6112
   24MOL   H216 5322   2.635   0.761   7.230  0.6678  1.1626 -0.7840
   24MOL   H217 5323   2.414   0.617   7.263 -0.5419  0.4843 -0.5838
   24MOL   H218 5324   2.403   0.530   7.407 -0.1654 -0.4967 -0.8913
   24MOL   H219 5325   2.412   0.701   7.416  1.0202 -0.0535  0.5890
   24MOL   H220 5326   2.911   0.703   7.318  0.1833  0.1013 -0.4879
   24MOL   H221 5327   2.837   0.710   7.162  1.8946  0.7582 -0.0215
   24MOL   H222 5328   2.828   0.562   7.251 -1.4944 -0.3967 -0.1070
   25MOL     C1 5329   0.639   6.406   2.244 -0.7815  0.6408 -0.9209
   25MOL     C2 5330   0.579   6.314   2.350 -0.4346 -0.5381 -0.0848
   25MOL     O3 5331   0.590   6.190   2.346 -0.5410  0.2226 -0.4885
   25MOL     C4 5332   0.492   6.386   2.454 -0.2900  0.2918 -0.0583
   25MOL     C5 5333   0.792   6.417   2.242  0.0628  0.0481 -0.1384
   25MOL     H6 5334   0.597   6.363   2.154 -2.8453 -0.1768  0.4030
   25MOL     H7 5335   0.491   6.325   2.544  1.5295 -1.2879 -1.0635
   25MOL     H8 5336   0.530   6.482   2.490  0.9881 -0.6166  1.0764
   25MOL     H9 5337   0.387   6.383   2.425 -0.7020 -0.8230  1.4662
   25MOL    H10 5338   0.815   6.486   2.162  1.6383 -0.1628  0.1199
   25MOL    H11 5339   0.831   6.324   2.200 -0.2291 -0.0502 -0.1888
   25MOL    H12 5340   0.597   6.506   2.257 -0.1899  0.8092 -0.2088
   25MOL    C13 5341   0.860   6.466   2.378  0.2897  0.3940 -0.0978
   25MOL    C14 5342   0.846   6.615   2.404  0.3252 -0.2487 -0.2922
   25MOL    O15 5343   0.882   6.689   2.314  0.1469 -0.2728 -0.0489
   25MOL    C16 5344   0.764   6.666   2.523 -0.3138 -0.5858 -0.0825
   25MOL    C17 5345   1.011   6.431   2.382 -0.1129 -0.5883  0.1298
   25MOL    H18 5346   0.809   6.428   2.467 -0.2725  0.7367 -0.2735
   25MOL    H19 5347   0.660   6.635   2.519 -1.1602  2.3714 -1.9022
   25MOL    H20 5348   0.809   6.640   2.620  0.4247  1.1243  0.0495
   25MOL    H21 5349   0.759   6.774   2.518 -1.1785 -0.5284  1.4945
   25MOL    H22 5350   1.074   6.497   2.441  0.6222 -0.3147 -0.9537
   25MOL    H23 5351   1.039   6.435   2.276 -0.3028  1.9743  0.1489
   25MOL    C24 5352   1.044   6.282   2.427 -0.3067 -0.2334 -0.3571
   25MOL    C25 5353   1.002   6.248   2.566  0.2938 -0.0768 -0.4032
   25MOL    O26 5354   0.896   6.183   2.588  0.0072 -0.6130 -0.1910
   25MOL    C27 5355   1.085   6.296   2.681 -0.0221  0.2510  0.5319
   25MOL    C28 5356   1.205   6.265   2.420  0.1660 -0.0998 -0.8803
   25MOL    H29 5357   0.991   6.207   2.369 -0.9180 -1.1780  1.4036
   25MOL    H30 5358   1.150   6.376   2.644  0.0659  1.1552  2.5759
   25MOL    H31 5359   1.027   6.348   2.757  2.4613  0.7622  2.1274
   25MOL    H32 5360   1.142   6.217   2.728 -0.9524  0.6006  2.2970
   25MOL    H33 5361   1.234   6.165   2.451 -0.8331  0.3265  1.5500
   25MOL    H34 5362   1.247   6.340   2.486 -0.7501  0.2672 -0.6980
   25MOL    C35 5363   1.265   6.278   2.274 -0.6270 -0.5520  0.1950
   25MOL    C36 5364   1.208   6.169   2.180  0.0729 -0.2816  0.1487
   25MOL    O37 5365   1.223   6.050   2.199  0.3666 -0.4918 -0.0558
   25MOL    C38 5366   1.132   6.215   2.061  0.3777  0.1015  0.3552
   25MOL    C39 5367   1.422   6.274   2.281  0.0879 -0.1502 -0.4161
   25MOL    H40 5368   1.237   6.376   2.236 -0.2441 -0.6583 -0.3646
   25MOL    H41 5369   1.032   6.237   2.099 -0.2784  0.1535 -1.3308
   25MOL    H42 5370   1.174   6.304   2.013 -0.8348  0.3544 -0.2823
   25MOL    H43 5371   1.111   6.140   1.985 -0.8946 -0.1795  0.9604
   25MOL    H44 5372   1.452   6.169   2.275  0.7771 -0.1680  2.3319
   25MOL    H45 5373   1.448   6.318   2.377  2.3955 -1.2076 -0.5250
   25MOL    C46 5374   1.484   6.351   2.164 -0.7928 -0.7252  0.2342
   25MOL    C47 5375   1.564   6.257   2.063  0.8092 -0.0248  0.0785
   25MOL    O48 5376   1.639   6.169   2.101  0.7549  0.1413 -0.6468
   25MOL    C49 5377   1.544   6.284   1.914 -0.4609  0.2332  0.5297
   25MOL    C50 5378   1.570   6.471   2.205  0.8351 -0.7149 -0.3876
   25MOL    H51 5379   1.411   6.390   2.093  1.0372  1.0103 -0.7264
   25MOL    H52 5380   1.596   6.376   1.886 -2.1181  0.8056 -0.7837
   25MOL    H53 5381   1.597   6.209   1.857 -1.2397  0.2225 -0.1929
   25MOL    H54 5382   1.440   6.300   1.884 -0.1589 -0.7051 -1.0192
   25MOL    H55 5383   1.501   6.531   2.264  0.6980 -0.0099 -1.2371
   25MOL    H56 5384   1.585   6.526   2.112  0.2250 -2.5206 -1.5769
   25MOL    C57 5385   1.713   6.458   2.274 -0.0332 -0.6104 -0.3502
   25MOL    C58 5386   1.702   6.388   2.408 -0.0917 -0.0789  0.8289
   25MOL    O59 5387   1.644   6.435   2.507  0.6655 -0.2698 -0.0669
   25MOL    C60 5388   1.762   6.250   2.420  0.5290 -0.2946 -0.2603
   25MOL    C61 5389   1.787   6.598   2.281 -0.1810  0.0561 -1.2094
   25MOL    H62 5390   1.770   6.386   2.215 -0.9032 -1.1314 -0.5683
   25MOL    H63 5391   1.696   6.173   2.458  1.5694 -0.3592  1.4773
   25MOL    H64 5392   1.784   6.217   2.319  1.5794  0.3211 -0.2449
   25MOL    H65 5393   1.853   6.237   2.478  1.0480  1.2792 -0.6888
   25MOL    H66 5394   1.739   6.662   2.356  0.7385 -1.0311  0.3437
   25MOL    H67 5395   1.765   6.645   2.186  0.6824  0.6435 -1.1141
   25MOL    C68 5396   1.942   6.583   2.281 -0.2567 -0.0545 -0.2325
   25MOL    C69 5397   1.997   6.545   2.420  0.2480 -0.1090  0.7228
   25MOL    O70 5398   2.071   6.446   2.427  0.1378  0.4370 -0.1529
   25MOL    C71 5399   1.957   6.628   2.541 -0.3706 -1.3389 -0.5510
   25MOL    C72 5400   2.003   6.707   2.227  0.1696 -0.5201 -0.4493
   25MOL    H73 5401   1.961   6.501   2.211  0.1917 -2.1846  2.2794
   25MOL    H74 5402   1.854   6.663   2.550 -0.6876 -2.2309 -0.5520
   25MOL    H75 5403   1.978   6.571   2.632 -1.8356 -0.1282  0.5775
   25MOL    H76 5404   2.028   6.708   2.558 -1.4948 -0.5084  0.3845
   25MOL    H77 5405   1.968   6.793   2.284 -1.1182 -0.3639 -1.4477
   25MOL    H78 5406   1.960   6.735   2.131 -0.6882  3.8371  1.0974
   25MOL    C79 5407   2.158   6.721   2.204 -0.8150 -0.0185 -0.1887
   25MOL    C80 5408   2.208   6.861   2.232 -0.3722 -0.1703 -0.0410
   25MOL    O81 5409   2.166   6.959   2.161 -0.1703  0.3480 -0.4134
   25MOL    C82 5410   2.309   6.883   2.344 -0.0581  0.2010 -0.3542
   25MOL    C83 5411   2.195   6.685   2.054  0.1453 -0.2213  0.0781
   25MOL    H84 5412   2.204   6.656   2.279  0.9094  0.4740 -0.8047
   25MOL    H85 5413   2.387   6.959   2.336  1.2722 -0.9746  1.0823
   25MOL    H86 5414   2.249   6.897   2.434  0.5205  0.2593  0.0230
   25MOL    H87 5415   2.368   6.792   2.353  0.3502  0.6704  2.1846
   25MOL    H88 5416   2.154   6.762   1.989  2.7803  0.7083 -0.5485
   25MOL    H89 5417   2.131   6.602   2.025  0.4624 -0.7561  0.8833
   25MOL    C90 5418   2.338   6.641   2.016  0.8185  0.0863 -0.1293
   25MOL    C91 5419   2.387   6.521   2.108 -0.0055  0.5550  0.2168
   25MOL    O92 5420   2.406   6.541   2.222  0.2313  0.4069  0.0470
   25MOL    C93 5421   2.411   6.384   2.046 -0.1913  0.5722  0.2127
   25MOL    C94 5422   2.439   6.757   2.025 -0.3602 -0.7906  0.2461
   25MOL    H95 5423   2.338   6.595   1.917 -3.0551  1.2340 -0.7513
   25MOL    H96 5424   2.353   6.307   2.097 -3.2300  0.8363 -2.6885
   25MOL    H97 5425   2.374   6.387   1.944 -0.0876 -0.4221  0.1355
   25MOL    H98 5426   2.518   6.365   2.056 -0.2424 -0.4763 -1.1295
   25MOL    H99 5427   2.533   6.719   2.066  1.0127  0.8246 -1.2780
   25MOL   H100 5428   2.409   6.834   2.096  0.0283 -0.5321  0.1328
   25MOL   C101 5429   2.480   6.818   1.892  1.1066 -0.6897 -0.3073
   25MOL   C102 5430   2.367   6.889   1.814  0.1282 -0.4004  0.0080
   25MOL   O103 5431   2.341   6.852   1.699  0.5248  0.3868 -0.0625
   25MOL   C104 5432   2.309   7.015   1.863  1.0073 -0.3896  0.5181
   25MOL   C105 5433   2.567   6.731   1.805  0.8099  0.1047  0.3154
   25MOL   H106 5434   2.555   6.890   1.924 -1.5276  2.5450 -1.1853
   25MOL   H107 5435   2.381   7.071   1.922  1.3015  0.0752 -0.2696
   25MOL   H108 5436   2.284   7.085   1.783  3.6224  0.0768  0.0575
   25MOL   H109 5437   2.221   7.000   1.925 -1.4744 -0.2146 -2.8342
   25MOL   H110 5438   2.497   6.652   1.777  0.2564  0.6785  0.0724
   25MOL   H111 5439   2.629   6.674   1.874  0.8474  1.9912  1.8738
   25MOL   C112 5440   2.664   6.788   1.695 -0.3678 -0.0646  0.0374
   25MOL   C113 5441   2.719   6.663   1.623 -0.5514 -0.8502  0.1807
   25MOL   O114 5442   2.783   6.580   1.689 -0.3736  0.5376 -0.2906
   25MOL   C115 5443   2.689   6.643   1.472  0.7010 -0.5340  0.4156
   25MOL   C116 5444   2.775   6.873   1.741 -0.3373  0.3684  0.5018
   25MOL   H117 5445   2.613   6.843   1.616  2.4311 -0.6059 -2.2681
   25MOL   H118 5446   2.589   6.624   1.434  1.3166 -0.0447 -1.4659
   25MOL   H119 5447   2.728   6.735   1.427  1.6884 -0.1126  2.0928
   25MOL   H120 5448   2.748   6.560   1.436  1.2558  0.7143 -1.6432
   25MOL   H121 5449   2.846   6.873   1.658 -0.8245  0.3817  0.0836
   25MOL   H122 5450   2.825   6.819   1.821 -1.6578 -2.9188 -0.8407
   25MOL   C123 5451   2.748   7.021   1.771 -0.5844  0.0312  0.6359
   25MOL   C124 5452   2.710   7.098   1.645 -0.6551 -0.7345  0.2425
   25MOL   O125 5453   2.767   7.069   1.538 -0.4742 -0.0349 -0.9854
   25MOL   C126 5454   2.594   7.195   1.661  0.8861 -0.0194 -0.0903
   25MOL   C127 5455   2.863   7.086   1.853 -0.0248 -0.6380  0.7514
   25MOL   H128 5456   2.660   7.020   1.836 -0.8137  2.3620  0.4095
   25MOL   H129 5457   2.515   7.182   1.586 -0.8367  2.7176  1.1662
   25MOL   H130 5458   2.544   7.191   1.757  1.1356 -0.9963 -0.0011
   25MOL   H131 5459   2.649   7.289   1.650  2.3196 -0.7227  0.9623
   25MOL   H132 5460   2.956   7.100   1.796  0.4146 -0.8108  1.4256
   25MOL   H133 5461   2.883   7.013   1.930 -0.7274 -1.3712  0.2442
   25MOL   C134 5462   2.831   7.223   1.921  0.0069  0.4814  0.0082
   25MOL   C135 5463   2.961   7.273   1.983 -0.1004 -0.3983 -0.0969
   25MOL   O136 5464   2.979   7.287   2.102  0.9716 -0.4363 -0.4207
   25MOL   C137 5465   3.077   7.324   1.898 -0.1334 -0.0648  0.4847
   25MOL   C138 5466   2.706   7.212   2.022  0.0802  0.7119  0.3894
   25MOL   H139 5467   2.812   7.295   1.841 -0.0206  2.2546  1.5668
   25MOL   H140 5468   3.098   7.429   1.917  2.0094 -0.6763  1.5813
   25MOL   H141 5469   3.171   7.270   1.904 -0.0532 -0.0486 -0.5078
   25MOL   H142 5470   3.035   7.324   1.797 -1.0844 -3.3866  0.8160
   25MOL   H143 5471   2.746   7.162   2.109  2.2792 -0.1224 -1.0534
   25MOL   H144 5472   2.630   7.154   1.969  0.9725 -1.5687  1.5529
   25MOL   C145 5473   2.640   7.348   2.068 -0.1930  0.5993  0.4021
   25MOL   C146 5474   2.528   7.304   2.168 -0.0364 -0.4268  0.3503
   25MOL   O147 5475   2.473   7.197   2.168 -0.0043 -0.9722 -0.1554
   25MOL   C148 5476   2.485   7.417   2.267  0.0481 -0.1921 -0.8029
   25MOL   C149 5477   2.578   7.430   1.952 -0.2645 -0.0839 -0.1035
   25MOL   H150 5478   2.717   7.403   2.121  0.5613  0.4598 -0.5534
   25MOL   H151 5479   2.382   7.450   2.253  0.0874  0.1661 -0.2499
   25MOL   H152 5480   2.484   7.383   2.370  0.2107 -0.7727 -0.9905
   25MOL   H153 5481   2.544   7.509   2.264 -0.8696  0.6018  2.9419
   25MOL   H154 5482   2.470   7.410   1.949 -0.4209  0.8637 -0.9365
   25MOL   H155 5483   2.617   7.405   1.854  1.7163 -1.0576  0.9022
   25MOL   C156 5484   2.599   7.581   1.966 -0.2509 -0.1456 -0.4392
   25MOL   C157 5485   2.502   7.642   1.864  0.2449 -0.1166  0.1208
   25MOL   O158 5486   2.536   7.708   1.767 -0.2383 -0.3445  0.2106
   25MOL   C159 5487   2.354   7.634   1.892 -0.1633  0.2719 -0.1032
   25MOL   C160 5488   2.747   7.615   1.947  0.6269  0.2937  0.1582
   25MOL   H161 5489   2.570   7.615   2.065  0.7632 -0.9905  0.1494
   25MOL   H162 5490   2.306   7.538   1.871  0.1259  0.4268 -1.4974
   25MOL   H163 5491   2.320   7.657   1.993  0.8457 -3.1146  1.0812
   25MOL   H164 5492   2.303   7.710   1.833  0.5730  1.1089  0.3394
   25MOL   H165 5493   2.766   7.603   1.840  0.5176 -1.0163  0.2711
   25MOL   H166 5494   2.802   7.537   2.000 -0.1596 -1.0119 -0.8981
   25MOL   C167 5495   2.799   7.756   1.997 -0.0487  0.5701 -0.3055
   25MOL   C168 5496   2.925   7.795   1.922 -0.2208  0.8773 -0.0876
   25MOL   O169 5497   3.026   7.732   1.945 -0.1634 -0.3883 -0.2237
   25MOL   C170 5498   2.922   0.062   1.810  0.0281  0.2591 -0.4684
   25MOL   C171 5499   2.813   7.767   2.149 -0.0303 -0.2951  0.0833
   25MOL   H172 5500   2.723   7.826   1.960 -0.6126 -0.8446 -1.8805
   25MOL   H173 5501   2.990   0.130   1.861  0.8943 -1.0999  0.2358
   25MOL   H174 5502   2.964   0.026   1.716  2.4627  1.2951  0.1768
   25MOL   H175 5503   2.827   0.115   1.812 -0.1659 -0.0736  3.1109
   25MOL   H176 5504   2.896   7.698   2.166 -0.8445 -0.6992  2.6689
   25MOL   H177 5505   2.725   7.723   2.197  0.3108 -0.1435  0.8540
   25MOL   C178 5506   2.845   0.065   2.203  0.7117  0.2776 -0.2575
   25MOL   C179 5507   2.924   0.058   2.334 -0.1196  0.3053  0.2254
   25MOL   O180 5508   2.876   0.075   2.446  0.3902 -0.4156 -0.1224
   25MOL   C181 5509   3.073   0.029   2.333 -0.5413  0.9268  0.0476
   25MOL   C182 5510   2.709   0.145   2.222 -0.0751  0.3646  0.3368
   25MOL   H183 5511   2.909   0.106   2.125  0.8973  1.1192  0.3275
   25MOL   H184 5512   3.137   0.116   2.318  0.6307 -0.2089 -1.7592
   25MOL   H185 5513   3.104   7.814   2.420 -0.2336  0.1033 -0.5944
   25MOL   H186 5514   3.091   7.806   2.247 -0.1046  1.5769 -0.3553
   25MOL   H187 5515   2.667   0.107   2.314 -1.0846  0.1031 -0.2286
   25MOL   H188 5516   2.636   0.110   2.149  1.4405 -0.1844 -0.9512
   25MOL   C189 5517   2.741   0.297   2.224  0.0992 -0.8113  1.3732
   25MOL   C190 5518   2.632   0.378   2.302 -0.6269  0.0443  0.0566
   25MOL   O191 5519   2.596   0.490   2.262 -0.0632 -0.0211  0.7086
   25MOL   C192 5520   2.578   0.320   2.434  0.7426 -0.5215 -0.1973
   25MOL   C193 5521   2.763   0.342   2.076  0.8163 -0.5079 -0.1650
   25MOL   H194 5522   2.834   0.307   2.281  0.9042  1.4088 -0.2421
   25MOL   H195 5523   2.516   0.232   2.416 -2.5119  0.9229  3.0959
   25MOL   H196 5524   2.661   0.285   2.495  0.1644 -0.1844  0.7987
   25MOL   H197 5525   2.533   0.396   2.498  0.3765  0.2560 -1.3692
   25MOL   H198 5526   2.669   0.371   2.029  0.7754 -1.1675 -0.4937
   25MOL   H199 5527   2.805   0.260   2.018  1.1567 -2.1024  2.2623
   25MOL   C200 5528   2.870   0.451   2.062  0.4402  0.6994  0.3040
   25MOL   C201 5529   2.851   0.520   1.922 -0.3325  0.0162 -1.0451
   25MOL   O202 5530   2.923   0.491   1.831  1.0316 -0.0343  0.0543
   25MOL   C203 5531   2.736   0.620   1.907 -0.1395  0.2659  0.2310
   25MOL   C204 5532   3.014   0.409   2.086  0.1799 -0.3216 -0.0366
   25MOL   H205 5533   2.833   0.527   2.131 -3.6220 -0.9146  0.0166
   25MOL   H206 5534   2.641   0.567   1.894  0.0780 -0.0270 -0.1916
   25MOL   H207 5535   2.733   0.672   2.002  2.3207 -1.0082  1.0551
   25MOL   H208 5536   2.768   0.693   1.832  0.2885  0.0730  0.2237
   25MOL   H209 5537   3.061   0.346   2.011 -0.9269  2.5236 -3.2451
   25MOL   H210 5538   3.006   0.345   2.174 -0.6789  0.2468  0.3058
   25MOL   C211 5539   3.089   0.539   2.114 -0.3184  0.3336  0.1893
   25MOL   C212 5540   3.226   0.542   2.049 -0.0727 -0.9029 -0.0202
   25MOL   O213 5541   3.332   0.542   2.120 -0.0330 -0.1524 -0.5139
   25MOL   C214 5542   3.241   0.569   1.902 -0.2678 -1.0395 -0.2255
   25MOL   C215 5543   3.101   0.558   2.263  0.0942  0.0519 -0.4187
   25MOL   H216 5544   3.033   0.626   2.079  0.5925  0.5786 -0.6841
   25MOL   H217 5545   3.342   0.555   1.863  0.0191  0.1619  0.0789
   25MOL   H218 5546   3.178   0.498   1.848 -0.1862 -1.0995 -0.2418
   25MOL   H219 5547   3.212   0.672   1.877  2.3342 -0.0949  0.5520
   25MOL   H220 5548   3.133   0.467   2.314  1.6600  0.8202  0.0075
   25MOL   H221 5549   3.005   0.588   2.304 -0.0052  0.0813 -0.6687
   25MOL   H222 5550   3.165   0.642   2.292 -1.6852  0.2470  3.1915
   26MOL     C1 5551   3.369   3.271   7.006  0.1783 -0.1457  0.7722
   26MOL     C2 5552   3.322   3.163   7.097  0.0973 -0.3061 -0.5875
   26MOL     O3 5553   3.216   3.107   7.075 -0.2715 -0.2546  0.2321
   26MOL     C4 5554   3.424   3.121   7.202  0.6763  0.5234  0.2694
   26MOL     C5 5555   3.372   3.236   6.852  0.4600 -0.6450 -0.2395
   26MOL     H6 5556   3.304   3.356   7.024 -2.6482 -2.1914  0.5018
   26MOL     H7 5557   3.501   3.053   7.163 -2.2763 -3.0055  0.2747
   26MOL     H8 5558   3.476   3.213   7.229 -0.6669  1.9751 -1.9163
   26MOL     H9 5559   3.373   3.078   7.288 -1.5984  0.4443 -1.0847
   26MOL    H10 5560   3.367   3.330   6.799 -0.2758  0.3192  1.5198
   26MOL    H11 5561   3.284   3.180   6.821  0.8586 -2.1577  1.2484
   26MOL    H12 5562   3.468   3.301   7.041 -0.7606  1.2154  2.3258
   26MOL    C13 5563   3.495   3.157   6.818  0.4767  0.4440  0.6334
   26MOL    C14 5564   3.617   3.248   6.811  0.6216 -0.1060  0.7428
   26MOL    O15 5565   3.607   3.369   6.793  0.3799 -0.3473 -0.2720
   26MOL    C16 5566   3.757   3.195   6.810 -0.4373 -0.6163 -0.2934
   26MOL    C17 5567   3.484   3.090   6.675 -0.1517  0.5864  0.6366
   26MOL    H18 5568   3.528   3.082   6.890  1.0179  0.5646  0.5148
   26MOL    H19 5569   3.760   3.088   6.791 -1.1537 -0.3013 -2.2465
   26MOL    H20 5570   3.819   3.253   6.742  1.7051 -1.9669  0.4525
   26MOL    H21 5571   3.811   3.218   6.902 -2.1544  2.7783 -0.0676
   26MOL    H22 5572   3.582   3.065   6.633 -0.6616 -1.5518  0.6621
   26MOL    H23 5573   3.430   3.154   6.606  2.1366  2.0710  0.1495
   26MOL    C24 5574   3.424   2.957   6.691 -0.5539  0.2162 -0.6952
   26MOL    C25 5575   3.516   2.847   6.751 -0.6920  0.3590 -0.1884
   26MOL    O26 5576   3.510   2.811   6.870 -0.1750  0.3466 -0.3788
   26MOL    C27 5577   3.623   2.776   6.664  0.0720 -0.2951 -0.1235
   26MOL    C28 5578   3.381   2.910   6.549 -0.7104 -0.2272 -0.9249
   26MOL    H29 5579   3.342   2.964   6.763 -0.1475 -0.2340 -0.1795
   26MOL    H30 5580   3.624   2.672   6.696 -1.5978 -0.0994  0.6110
   26MOL    H31 5581   3.603   2.767   6.557 -1.0873 -2.4910  0.2611
   26MOL    H32 5582   3.720   2.823   6.682 -0.4760  1.1052 -0.7601
   26MOL    H33 5583   3.465   2.906   6.480  1.5285  0.4240  1.6729
   26MOL    H34 5584   3.320   2.986   6.500 -1.4774  0.5301  1.1228
   26MOL    C35 5585   3.302   2.780   6.546 -0.7011  0.2063  0.5641
   26MOL    C36 5586   3.270   2.744   6.398 -0.3219  0.9152 -0.2720
   26MOL    O37 5587   3.182   2.796   6.337 -0.0321 -0.2287 -0.1740
   26MOL    C38 5588   3.371   2.656   6.328 -0.1420 -0.7823  0.6190
   26MOL    C39 5589   3.170   2.778   6.628  0.7384  0.5956  0.5070
   26MOL    H40 5590   3.371   2.700   6.575  0.2422  1.1317  0.9187
   26MOL    H41 5591   3.416   2.588   6.400  0.2571 -0.5869  0.5504
   26MOL    H42 5592   3.323   2.606   6.243  0.0470 -1.9369  1.1775
   26MOL    H43 5593   3.465   2.701   6.298  0.5389 -2.9479 -0.6018
   26MOL    H44 5594   3.109   2.860   6.590 -0.0052 -0.5983 -0.9300
   26MOL    H45 5595   3.177   2.808   6.732  0.1958 -1.3885  1.1505
   26MOL    C46 5596   3.081   2.646   6.621 -0.4770  0.3182 -0.5741
   26MOL    C47 5597   2.933   2.677   6.632  0.1315 -0.3241 -0.0553
   26MOL    O48 5598   2.851   2.638   6.551 -0.1671  0.2020 -0.7513
   26MOL    C49 5599   2.877   2.739   6.761  0.3682  0.0499 -0.0319
   26MOL    C50 5600   3.134   2.538   6.720  0.3781 -0.0142  0.4027
   26MOL    H51 5601   3.088   2.612   6.518  0.8687 -0.2458 -0.3072
   26MOL    H52 5602   2.957   2.806   6.795  1.0327 -0.5782 -0.3591
   26MOL    H53 5603   2.782   2.783   6.730 -0.0058 -1.2687 -0.7678
   26MOL    H54 5604   2.861   2.672   6.845 -2.2260 -0.3505 -0.7934
   26MOL    H55 5605   3.137   2.587   6.817  0.3412  0.5588  0.1143
   26MOL    H56 5606   3.240   2.526   6.695  0.2275  1.7353 -1.1440
   26MOL    C57 5607   3.064   2.401   6.736  0.1358  0.2228 -0.2270
   26MOL    C58 5608   3.116   2.327   6.861 -0.2186  0.5908 -0.1959
   26MOL    O59 5609   3.225   2.271   6.865  0.5390 -0.2623 -1.1001
   26MOL    C60 5610   3.023   2.322   6.983  0.8069  0.3932  0.4273
   26MOL    C61 5611   3.088   2.316   6.605  0.0657  0.3805  0.4501
   26MOL    H62 5612   2.957   2.418   6.741  0.2052  1.1687 -1.6484
   26MOL    H63 5613   2.932   2.277   6.943  2.0649  0.8402 -3.0774
   26MOL    H64 5614   3.053   2.279   7.078  3.1076 -0.2872 -0.5742
   26MOL    H65 5615   2.998   2.427   7.002  1.0274  0.5501 -0.1480
   26MOL    H66 5616   3.086   2.208   6.621  0.2977  0.5062  1.3677
   26MOL    H67 5617   3.194   2.321   6.578 -0.3114  1.8327 -0.8664
   26MOL    C68 5618   2.988   2.338   6.492  0.2092 -0.5562  0.0933
   26MOL    C69 5619   2.841   2.300   6.531 -0.8689 -0.2363 -0.5195
   26MOL    O70 5620   2.818   2.202   6.606  0.5513  0.6972  0.1703
   26MOL    C71 5621   2.723   2.370   6.469 -0.0804  0.3091  0.1987
   26MOL    C72 5622   3.032   2.265   6.361  0.2829  0.3507  0.0475
   26MOL    H73 5623   2.972   2.444   6.470  0.7603 -0.6193 -0.6463
   26MOL    H74 5624   2.767   2.436   6.393 -0.3109  1.0855  0.7277
   26MOL    H75 5625   2.660   2.294   6.425 -2.5336  2.7768 -0.7186
   26MOL    H76 5626   2.657   2.420   6.540 -1.7221 -1.5582  0.0088
   26MOL    H77 5627   3.009   2.159   6.368 -1.0350  0.5501 -1.0101
   26MOL    H78 5628   3.141   2.268   6.352  0.4910  1.9167  2.6465
   26MOL    C79 5629   2.977   2.326   6.220  0.4033 -0.4388  0.3108
   26MOL    C80 5630   3.006   2.224   6.109 -0.0828 -0.8180 -1.1814
   26MOL    O81 5631   3.114   2.177   6.081  0.2052 -0.6447  0.4351
   26MOL    C82 5632   2.894   2.153   6.041  0.7536 -0.0284 -0.6778
   26MOL    C83 5633   3.036   2.464   6.185 -0.1496 -0.2695 -0.2838
   26MOL    H84 5634   2.869   2.328   6.215  0.4288 -1.2114 -0.5805
   26MOL    H85 5635   2.929   2.057   6.003  1.7803  1.0908 -2.6379
   26MOL    H86 5636   2.810   2.124   6.103 -0.8780  1.8329 -1.9667
   26MOL    H87 5637   2.868   2.202   5.948  0.5579 -0.8492 -1.0532
   26MOL    H88 5638   3.143   2.460   6.170  0.2710  3.4777  1.2446
   26MOL    H89 5639   3.028   2.522   6.277 -0.4585 -1.0604  0.1936
   26MOL    C90 5640   2.962   2.552   6.086  0.1858  0.0976  0.0535
   26MOL    C91 5641   2.823   2.588   6.139  0.4359 -0.1847 -0.2597
   26MOL    O92 5642   2.723   2.526   6.096  0.5896  0.1975 -0.8817
   26MOL    C93 5643   2.812   2.695   6.239  0.1046  0.6138 -0.8464
   26MOL    C94 5644   2.951   2.487   5.949  0.3900  0.2806  0.3112
   26MOL    H95 5645   3.012   2.649   6.082 -2.4137  1.4849 -0.0376
   26MOL    H96 5646   2.788   2.650   6.335 -1.3618  2.1026 -0.4900
   26MOL    H97 5647   2.913   2.736   6.242  0.6372 -0.7426 -0.0044
   26MOL    H98 5648   2.729   2.764   6.221 -0.6700  0.2471  1.1761
   26MOL    H99 5649   2.859   2.431   5.931 -0.3832  1.7362 -0.3643
   26MOL   H100 5650   3.036   2.419   5.942  0.7379  0.7462 -0.0519
   26MOL   C101 5651   2.938   2.589   5.830  0.3786 -0.5305  0.1372
   26MOL   C102 5652   2.901   2.509   5.699 -0.2532  0.4488  0.1134
   26MOL   O103 5653   2.919   2.388   5.677 -0.4263  0.2071  0.2342
   26MOL   C104 5654   2.836   2.590   5.591  0.2432  0.8264 -0.4310
   26MOL   C105 5655   3.056   2.693   5.816  0.1573 -0.2791 -0.3175
   26MOL   H106 5656   2.852   2.647   5.864  1.7394  1.0522  0.9816
   26MOL   H107 5657   2.913   2.602   5.516  0.8179  0.0480  0.0377
   26MOL   H108 5658   2.752   2.535   5.548  0.1048  0.3906  0.3814
   26MOL   H109 5659   2.803   2.693   5.611  0.4050  0.6535  0.7790
   26MOL   H110 5660   3.064   2.752   5.908  0.6528  0.4875 -0.8444
   26MOL   H111 5661   3.019   2.756   5.735 -1.1488 -0.0113  0.4664
   26MOL   C112 5662   3.198   2.641   5.775  0.6792  0.6599 -0.4156
   26MOL   C113 5663   3.290   2.620   5.901  0.4910 -0.6600  0.4969
   26MOL   O114 5664   3.253   2.639   6.018  0.6014  0.2829  0.1175
   26MOL   C115 5665   3.429   2.569   5.876 -0.3992  0.2116  0.5394
   26MOL   C116 5666   3.254   2.717   5.660  0.1328  0.5847 -0.0615
   26MOL   H117 5667   3.174   2.539   5.744 -1.1233  0.6989  0.7499
   26MOL   H118 5668   3.480   2.652   5.826  0.8521 -1.8851 -1.7490
   26MOL   H119 5669   3.487   2.531   5.960  2.4464 -2.8998 -2.6440
   26MOL   H120 5670   3.433   2.491   5.800 -4.5742 -1.7862  2.2661
   26MOL   H121 5671   3.183   2.719   5.578  0.1153 -0.9462 -0.1106
   26MOL   H122 5672   3.339   2.656   5.628  1.4369  1.7779  1.0364
   26MOL   C123 5673   3.312   2.857   5.677 -0.3454  0.3261 -0.4611
   26MOL   C124 5674   3.207   2.966   5.716 -0.1009  0.7671  0.6438
   26MOL   O125 5675   3.223   3.025   5.818 -0.0517  0.1941 -0.1749
   26MOL   C126 5676   3.094   2.996   5.624  0.7463  0.5441 -0.3958
   26MOL   C127 5677   3.386   2.888   5.546 -0.0757  0.0910  0.7816
   26MOL   H128 5678   3.386   2.860   5.757 -0.5689 -2.4037 -0.1030
   26MOL   H129 5679   3.092   3.096   5.581  0.6946  1.2083  1.1296
   26MOL   H130 5680   3.096   2.928   5.539  0.4148 -0.6029  0.5013
   26MOL   H131 5681   2.997   2.985   5.673 -0.3788  0.7385 -2.4898
   26MOL   H132 5682   3.316   2.876   5.463 -0.5626  0.7553  1.0917
   26MOL   H133 5683   3.458   2.808   5.530  0.5371  0.8024 -0.1340
   26MOL   C134 5684   3.470   3.021   5.534 -0.3769  0.2185 -0.1250
   26MOL   C135 5685   3.383   3.139   5.480 -0.6757  0.0427 -0.6363
   26MOL   O136 5686   3.339   3.138   5.367 -0.4283 -0.3500  0.7825
   26MOL   C137 5687   3.348   3.263   5.565 -0.0896 -0.4271  0.7232
   26MOL   C138 5688   3.605   3.015   5.464  0.0047  0.0832 -0.1598
   26MOL   H139 5689   3.483   3.055   5.636 -1.0823  0.7325 -0.2036
   26MOL   H140 5690   3.352   3.351   5.501 -4.5559 -0.2361  0.5689
   26MOL   H141 5691   3.245   3.235   5.584 -0.6642 -0.4312 -2.1859
   26MOL   H142 5692   3.417   3.274   5.650  2.2178  0.4421 -1.1978
   26MOL   H143 5693   3.613   3.082   5.379 -0.7879  1.2755  0.6858
   26MOL   H144 5694   3.610   2.918   5.416  0.1586  0.4157 -0.8212
   26MOL   C145 5695   3.724   3.053   5.557 -0.3197 -0.7139  0.0965
   26MOL   C146 5696   3.739   3.205   5.594  0.3892 -0.2244  0.2679
   26MOL   O147 5697   3.672   3.296   5.539 -0.0025  0.3776  0.1158
   26MOL   C148 5698   3.839   3.245   5.706  0.2380 -0.2149 -0.1713
   26MOL   C149 5699   3.862   3.000   5.518  1.0007  0.2397  0.0509
   26MOL   H150 5700   3.691   3.008   5.652 -2.3840  0.0011 -0.2486
   26MOL   H151 5701   3.939   3.272   5.671 -0.1638  1.5063 -0.0339
   26MOL   H152 5702   3.801   3.335   5.755 -1.8200 -0.2784 -1.6047
   26MOL   H153 5703   3.847   3.162   5.777 -1.3473 -0.9878 -0.8925
   26MOL   H154 5704   3.945   3.049   5.568 -0.0133  2.1560 -0.1006
   26MOL   H155 5705   3.892   3.022   5.416  0.5058  3.2198  0.5158
   26MOL   C156 5706   3.877   2.852   5.538 -0.0977 -0.7144  0.6566
   26MOL   C157 5707   3.864   2.822   5.695 -0.0657 -0.2388  0.0499
   26MOL   O158 5708   3.768   2.762   5.744  0.2749 -0.3181  0.5225
   26MOL   C159 5709   3.984   2.874   5.783 -1.0891  0.3562 -0.3206
   26MOL   C160 5710   4.007   2.795   5.479 -0.4706 -0.0432 -0.4802
   26MOL   H161 5711   3.789   2.817   5.486  0.0208 -0.3915  0.2372
   26MOL   H162 5712   3.952   2.870   5.887  2.3095 -1.1469  0.7513
   26MOL   H163 5713   4.061   2.796   5.787 -0.7051  0.8249  2.5371
   26MOL   H164 5714   4.029   2.967   5.749  0.3634 -0.2789 -0.2099
   26MOL   H165 5715   4.095   2.833   5.530 -0.5809 -1.8793  1.1634
   26MOL   H166 5716   4.016   2.844   5.382  0.4251  1.6127  0.4264
   26MOL   C167 5717   4.024   2.639   5.456  0.7311 -0.3527  0.3653
   26MOL   C168 5718   4.052   2.557   5.577 -1.3650  0.7062  0.0129
   26MOL   O169 5719   4.163   2.571   5.625  0.2550 -0.0416  0.3968
   26MOL   C170 5720   3.947   2.475   5.644  0.4931  0.0083 -0.7946
   26MOL   C171 5721   4.103   2.586   5.333  0.2580 -0.5702  0.6616
   26MOL   H172 5722   3.924   2.611   5.424 -0.3783 -0.4310  3.6883
   26MOL   H173 5723   3.933   2.380   5.592 -1.3308 -0.2629  0.1304
   26MOL   H174 5724   3.983   2.459   5.746  0.0735  0.1791 -0.6146
   26MOL   H175 5725   3.857   2.537   5.637  0.0183 -0.8974 -3.0208
   26MOL   H176 5726   4.038   2.619   5.252  1.0264  0.1303  0.3239
   26MOL   H177 5727   4.100   2.477   5.328 -0.5954 -0.4448 -3.5477
   26MOL   C178 5728   4.253   2.620   5.311 -0.5218  0.1051 -0.5334
   26MOL   C179 5729   4.268   2.717   5.190 -0.5673  0.5318 -0.3202
   26MOL   O180 5730   4.257   2.669   5.074 -0.3939  0.3058  0.0722
   26MOL   C181 5731   4.305   2.862   5.217  0.0601 -0.8842 -0.8452
   26MOL   C182 5732   4.328   2.488   5.288  0.4349  0.1910 -0.0597
   26MOL   H183 5733   4.290   2.668   5.401 -0.8624 -0.9894  0.2075
   26MOL   H184 5734   4.342   2.875   5.319  0.4821  1.1642 -1.2518
   26MOL   H185 5735   4.385   2.888   5.148 -0.1219  0.9308 -0.4051
   26MOL   H186 5736   4.227   2.935   5.195  1.7226  1.4038  0.6139
   26MOL   H187 5737   4.420   2.518   5.237 -0.1935  1.6156 -0.3877
   26MOL   H188 5738   4.273   2.431   5.213  0.0361  0.4327  0.0429
   26MOL   C189 5739   4.363   2.404   5.412 -0.6471 -0.5310 -0.4200
   26MOL   C190 5740   4.483   2.463   5.483  1.1108 -0.1086  0.4274
   26MOL   O191 5741   4.598   2.455   5.440  0.3737 -0.2966 -0.0306
   26MOL   C192 5742   4.461   2.556   5.600  0.4075 -0.0572  0.5858
   26MOL   C193 5743   4.388   2.254   5.368 -0.5071 -0.4936 -0.5773
   26MOL   H194 5744   4.280   2.412   5.482 -1.6596 -1.0254 -1.5490
   26MOL   H195 5745   4.416   2.647   5.562 -2.4699 -1.7815 -0.3347
   26MOL   H196 5746   4.381   2.526   5.668 -3.2553  1.6267 -2.8286
   26MOL   H197 5747   4.552   2.573   5.657 -1.3561 -0.7427  3.7205
   26MOL   H198 5748   4.462   2.251   5.288  0.7367  1.1979  0.4441
   26MOL   H199 5749   4.295   2.214   5.328 -1.5254 -0.1911  1.4163
   26MOL   C200 5750   4.433   2.151   5.474  0.1946  0.0116 -0.0987
   26MOL   C201 5751   4.538   2.039   5.417  0.0028 -0.3960  0.0444
   26MOL   O202 5752   4.518   1.985   5.308  0.4291 -0.0738  0.3092
   26MOL   C203 5753   4.648   1.975   5.503  0.8053  0.3536 -0.3410
   26MOL   C204 5754   4.312   2.074   5.539  0.4505  0.0907 -0.6932
   26MOL   H205 5755   4.495   2.199   5.550  0.5835  0.2811 -0.5787
   26MOL   H206 5756   4.612   1.977   5.606  2.1131  0.7681  0.1259
   26MOL   H207 5757   4.683   1.876   5.475 -0.3296 -0.0748 -0.2787
   26MOL   H208 5758   4.733   2.044   5.501  4.0350 -3.3557  1.8920
   26MOL   H209 5759   4.351   1.995   5.603 -0.2272  1.5724  1.6243
   26MOL   H210 5760   4.246   2.032   5.463 -0.0012 -2.9553  1.3150
   26MOL   C211 5761   4.227   2.169   5.632  0.2251 -0.2663 -0.2321
   26MOL   C212 5762   4.304   2.216   5.760 -0.7417 -0.0636 -0.7337
   26MOL   O213 5763   4.426   2.203   5.775 -0.2057 -0.2787 -0.0366
   26MOL   C214 5764   4.241   2.321   5.855 -0.0936 -0.3964  0.1644
   26MOL   C215 5765   4.095   2.106   5.674 -0.7492 -0.1872  0.0112
   26MOL   H216 5766   4.207   2.257   5.571  1.9622  0.8157  0.7313
   26MOL   H217 5767   4.323   2.359   5.916 -2.0054  2.2249  1.1979
   26MOL   H218 5768   4.217   2.403   5.787  1.4003 -0.3047 -0.2691
   26MOL   H219 5769   4.158   2.306   5.924 -1.3610  1.2462 -0.9536
   26MOL   H220 5770   4.055   2.028   5.609  0.3584 -0.5502 -0.2422
   26MOL   H221 5771   4.015   2.179   5.687 -0.5726  0.2194 -1.1787
   26MOL   H222 5772   4.104   2.057   5.771 -1.6082  1.5350  0.9843
   27MOL     C1 5773   1.872   5.300   5.295 -0.2722  0.5142 -0.4510
   27MOL     C2 5774   1.884   5.151   5.272 -0.0313 -0.2613  0.4795
   27MOL     O3 5775   1.877   5.105   5.157  0.1926 -0.1447 -0.3494
   27MOL     C4 5776   1.928   5.070   5.391 -0.8274 -0.1976  0.0026
   27MOL     C5 5777   1.738   5.342   5.361 -0.4990  0.1106  0.2944
   27MOL     H6 5778   1.949   5.330   5.366 -1.1278  0.9023  0.3272
   27MOL     H7 5779   1.867   4.982   5.409 -1.8710 -0.0339 -2.5503
   27MOL     H8 5780   2.032   5.047   5.366 -0.4916  1.9227 -0.6820
   27MOL     H9 5781   1.929   5.136   5.479 -0.9608 -0.3915  0.1492
   27MOL    H10 5782   1.754   5.436   5.413 -1.6044  0.4722  0.0090
   27MOL    H11 5783   1.723   5.285   5.453 -0.4329 -1.8197 -0.8654
   27MOL    H12 5784   1.893   5.350   5.201  0.2153  0.0175 -0.6087
   27MOL    C13 5785   1.617   5.353   5.255 -0.7346 -0.1039 -0.5100
   27MOL    C14 5786   1.630   5.476   5.166 -0.0617 -0.2783 -0.1300
   27MOL    O15 5787   1.671   5.586   5.208 -1.0187 -0.7227 -0.0711
   27MOL    C16 5788   1.573   5.466   5.029 -0.4521  0.4517  0.5305
   27MOL    C17 5789   1.482   5.328   5.321 -0.0005  0.4434 -0.6508
   27MOL    H18 5790   1.625   5.272   5.182 -1.9885 -2.0293  1.4014
   27MOL    H19 5791   1.556   5.362   5.001  2.9709 -0.2572  0.8841
   27MOL    H20 5792   1.478   5.520   5.021  0.2466  1.5060 -0.9789
   27MOL    H21 5793   1.646   5.500   4.956 -0.7360 -0.8676 -0.3878
   27MOL    H22 5794   1.403   5.351   5.249  1.7413  1.5838 -2.2204
   27MOL    H23 5795   1.462   5.400   5.400 -0.9618  0.4161 -0.8590
   27MOL    C24 5796   1.468   5.180   5.373 -0.3554 -0.4531  0.8010
   27MOL    C25 5797   1.459   5.061   5.269 -0.4500  0.4084  0.3761
   27MOL    O26 5798   1.458   5.079   5.149  0.0797  0.2144 -0.0717
   27MOL    C27 5799   1.479   4.918   5.315 -0.4853 -0.2963 -0.1635
   27MOL    C28 5800   1.364   5.169   5.486  0.2396  0.1351  0.8454
   27MOL    H29 5801   1.565   5.151   5.413  0.4026  2.8464  1.4833
   27MOL    H30 5802   1.541   4.860   5.247 -0.6051 -1.3536  0.6223
   27MOL    H31 5803   1.523   4.911   5.415 -0.7135  1.1802  0.0627
   27MOL    H32 5804   1.392   4.854   5.308  1.0922 -2.6224  0.8223
   27MOL    H33 5805   1.412   5.234   5.558 -0.1227  1.6186 -0.2275
   27MOL    H34 5806   1.373   5.068   5.527 -0.7928  0.1984  1.2536
   27MOL    C35 5807   1.213   5.206   5.465 -0.1915  0.0848  0.7715
   27MOL    C36 5808   1.136   5.197   5.594 -0.7414  0.3217 -0.1990
   27MOL    O37 5809   1.186   5.140   5.693 -0.4214  0.0646  0.0943
   27MOL    C38 5810   1.004   5.276   5.608  0.0848  0.1671  0.1806
   27MOL    C39 5811   1.149   5.117   5.356 -0.3697  0.9412  0.6558
   27MOL    H40 5812   1.213   5.311   5.435  1.4613 -0.4634 -1.2127
   27MOL    H41 5813   0.941   5.225   5.681 -0.8553 -0.7554 -1.2466
   27MOL    H42 5814   1.025   5.382   5.621  2.6258 -0.2659 -0.1748
   27MOL    H43 5815   0.950   5.271   5.513  0.1799 -0.3855  0.1568
   27MOL    H44 5816   1.049   5.096   5.393 -0.3304  0.0787  0.2835
   27MOL    H45 5817   1.196   5.019   5.347  0.9059  1.5815  0.2066
   27MOL    C46 5818   1.136   5.178   5.210 -0.0871  0.1965 -0.5231
   27MOL    C47 5819   1.119   5.326   5.195 -0.3539 -0.1520 -0.2100
   27MOL    O48 5820   1.065   5.398   5.277 -0.4329  0.6192 -1.2241
   27MOL    C49 5821   1.174   5.383   5.065  0.8546 -0.2032  0.6759
   27MOL    C50 5822   1.021   5.113   5.134 -0.9125 -0.2830  0.2578
   27MOL    H51 5823   1.232   5.156   5.163  0.5859 -2.0766  1.7615
   27MOL    H52 5824   1.255   5.454   5.079  0.6620 -0.6682  4.9363
   27MOL    H53 5825   1.205   5.320   4.982  1.2063 -0.1305  0.7527
   27MOL    H54 5826   1.083   5.431   5.027  1.1391  0.5103  0.8927
   27MOL    H55 5827   1.008   5.166   5.039 -0.3227 -1.6492 -0.5918
   27MOL    H56 5828   0.926   5.119   5.187 -0.3228  1.0885  1.1973
   27MOL    C57 5829   1.049   4.958   5.108  0.2781 -0.0292  0.0238
   27MOL    C58 5830   1.171   4.938   5.017  0.0148  0.1614  0.1718
   27MOL    O59 5831   1.207   5.031   4.942 -0.4188  0.0743  0.1001
   27MOL    C60 5832   1.230   4.802   5.028 -0.8875 -1.1538 -0.3299
   27MOL    C61 5833   0.930   4.878   5.071  0.1356  0.2450  0.1564
   27MOL    H62 5834   1.077   4.911   5.202 -0.2393  0.8789  0.6400
   27MOL    H63 5835   1.154   4.726   5.007 -2.6900 -0.0816  2.0737
   27MOL    H64 5836   1.306   4.801   4.950  0.9404 -2.5133  1.4230
   27MOL    H65 5837   1.262   4.769   5.127 -0.1468 -1.7574 -0.7711
   27MOL    H66 5838   0.866   4.865   5.158  1.3606  0.5363  1.1246
   27MOL    H67 5839   0.949   4.772   5.053 -1.5616  0.0273 -0.4863
   27MOL    C68 5840   0.852   4.928   4.949  0.2291 -0.4677 -0.4920
   27MOL    C69 5841   0.709   4.972   4.987 -0.4233 -0.3092 -0.1596
   27MOL    O70 5842   0.627   4.897   5.033  0.1572 -0.5271  0.1022
   27MOL    C71 5843   0.675   5.117   4.966 -0.3678 -0.6235  0.0683
   27MOL    C72 5844   0.837   4.816   4.844 -0.2262  0.4298  0.1313
   27MOL    H73 5845   0.903   5.010   4.898 -1.0503  1.3502  1.1258
   27MOL    H74 5846   0.618   5.154   5.051  1.4105  1.8791  0.1988
   27MOL    H75 5847   0.770   5.168   4.977  0.2354 -1.6172 -0.4493
   27MOL    H76 5848   0.620   5.145   4.876  0.8292 -0.8731 -0.7565
   27MOL    H77 5849   0.750   4.836   4.781 -0.4857  0.0625  0.3739
   27MOL    H78 5850   0.808   4.723   4.892 -0.7258 -1.0795 -2.9834
   27MOL    C79 5851   0.952   4.796   4.745 -0.0072 -0.8183 -0.4744
   27MOL    C80 5852   0.953   4.911   4.647 -0.2377  0.0514  1.2722
   27MOL    O81 5853   0.849   4.950   4.591 -0.5813  0.2759  0.5008
   27MOL    C82 5854   1.087   4.967   4.602  0.0233  0.7385  0.5114
   27MOL    C83 5855   0.969   4.658   4.668  0.0018 -0.1922 -0.7536
   27MOL    H84 5856   1.048   4.802   4.796  0.0347 -5.3881  0.1292
   27MOL    H85 5857   1.140   4.891   4.544 -0.0165 -0.0697  1.5109
   27MOL    H86 5858   1.087   5.053   4.536  1.7033  0.9683  0.7836
   27MOL    H87 5859   1.153   4.987   4.686 -0.5208 -2.6359  1.8392
   27MOL    H88 5860   1.030   4.685   4.582  0.2843  1.8907  0.0737
   27MOL    H89 5861   0.880   4.631   4.611 -1.5792  1.1440  1.0362
   27MOL    C90 5862   1.013   4.531   4.744 -1.2472 -0.5291 -0.2730
   27MOL    C91 5863   1.168   4.511   4.751 -0.2433  0.4951  0.1803
   27MOL    O92 5864   1.245   4.580   4.683  0.8171 -0.1382 -0.3985
   27MOL    C93 5865   1.226   4.397   4.836  0.6449  1.1013  0.3652
   27MOL    C94 5866   0.939   4.395   4.697  0.7036  0.0850  0.0608
   27MOL    H95 5867   0.978   4.550   4.846 -0.0617  1.6150 -0.2396
   27MOL    H96 5868   1.166   4.373   4.924  0.7593  2.3850  0.7993
   27MOL    H97 5869   1.221   4.306   4.777 -0.3837  0.7196  1.0320
   27MOL    H98 5870   1.327   4.413   4.875  0.9218 -2.2766  1.2072
   27MOL    H99 5871   0.993   4.304   4.721  1.3506  0.9236  1.9307
   27MOL   H100 5872   0.950   4.397   4.589  0.0082 -2.0715 -0.0569
   27MOL   C101 5873   0.793   4.400   4.732  0.6560  0.4662  0.2904
   27MOL   C102 5874   0.764   4.406   4.878 -0.1526  0.3651 -0.2156
   27MOL   O103 5875   0.679   4.484   4.921  0.1058  0.0354 -0.0237
   27MOL   C104 5876   0.851   4.324   4.975 -0.2210 -0.7164 -0.3323
   27MOL   C105 5877   0.722   4.273   4.672 -0.0900  0.0879  0.0149
   27MOL   H106 5878   0.755   4.490   4.684  0.0505 -0.4956 -1.0794
   27MOL   H107 5879   0.949   4.368   4.992  0.0033 -0.2726 -2.5150
   27MOL   H108 5880   0.799   4.312   5.070  0.2766  0.1202  0.0463
   27MOL   H109 5881   0.859   4.225   4.928  0.0856 -0.4731 -0.8013
   27MOL   H110 5882   0.757   4.186   4.728  2.1256 -0.9006 -2.7432
   27MOL   H111 5883   0.763   4.257   4.572  0.6991  2.6007 -0.0953
   27MOL   C112 5884   0.572   4.282   4.653 -0.5598 -0.2491  0.0066
   27MOL   C113 5885   0.516   4.146   4.704  0.5690 -0.5709  0.2341
   27MOL   O114 5886   0.491   4.056   4.624  0.3436  0.4034 -0.2845
   27MOL   C115 5887   0.489   4.139   4.857 -0.3294  0.6232  0.0424
   27MOL   C116 5888   0.533   4.316   4.508 -0.3160 -0.3896 -0.1673
   27MOL   H117 5889   0.536   4.361   4.718  1.3236 -0.0508  0.8440
   27MOL   H118 5890   0.564   4.075   4.903  0.0778  0.4006 -0.9185
   27MOL   H119 5891   0.471   4.228   4.916 -0.5176  1.0257 -0.6144
   27MOL   H120 5892   0.406   4.069   4.870 -0.7899  1.2056  0.2902
   27MOL   H121 5893   0.426   4.295   4.499 -0.3887  0.5024 -1.6018
   27MOL   H122 5894   0.575   4.248   4.434  1.7521 -0.4343  1.0030
   27MOL   C123 5895   0.571   4.455   4.441  0.2962  0.9075  0.1044
   27MOL   C124 5896   0.496   4.579   4.509 -0.1508  0.1277 -0.1567
   27MOL   O125 5897   0.384   4.568   4.554  0.0739 -0.1090 -0.2245
   27MOL   C126 5898   0.568   4.714   4.490 -0.4541 -0.2351 -0.5055
   27MOL   C127 5899   0.580   4.466   4.280  0.0057 -0.3797  0.0175
   27MOL   H128 5900   0.676   4.482   4.457  1.3067 -1.5913 -2.1323
   27MOL   H129 5901   0.674   4.700   4.472  0.0980 -1.0435  2.9037
   27MOL   H130 5902   0.539   4.767   4.400  0.5602  0.1361 -0.6196
   27MOL   H131 5903   0.562   4.782   4.575  2.0593 -0.3705 -0.1780
   27MOL   H132 5904   0.621   4.370   4.249  2.7330  0.7940 -0.0813
   27MOL   H133 5905   0.658   4.538   4.255  0.4516 -0.1478  2.0048
   27MOL   C134 5906   0.449   4.492   4.195  0.1245 -0.0153 -0.1983
   27MOL   C135 5907   0.339   4.381   4.223 -0.2841  0.6108 -0.1393
   27MOL   O136 5908   0.349   4.267   4.174 -0.5279  0.2565 -0.2320
   27MOL   C137 5909   0.209   4.428   4.291  0.4158  0.1834  0.2556
   27MOL   C138 5910   0.469   4.506   4.043 -0.3744  0.3526  0.4748
   27MOL   H139 5911   0.401   4.585   4.226 -1.7783 -1.0479  0.0085
   27MOL   H140 5912   0.209   4.435   4.399 -0.4720  1.2683  0.1902
   27MOL   H141 5913   0.186   4.521   4.239  1.0231 -0.4690 -1.2260
   27MOL   H142 5914   0.140   4.349   4.260 -0.3386  1.4684 -1.4671
   27MOL   H143 5915   0.507   4.407   4.019  0.8561 -0.3794  4.8849
   27MOL   H144 5916   0.549   4.578   4.026 -1.7192  1.4550 -1.3688
   27MOL   C145 5917   0.353   4.542   3.957  0.5344 -0.0711  0.5337
   27MOL   C146 5918   0.361   4.519   3.811  0.1661 -0.2068  0.1404
   27MOL   O147 5919   0.461   4.501   3.745  0.0647  0.1383  0.1461
   27MOL   C148 5920   0.228   4.522   3.743  0.9312  0.3575  0.0355
   27MOL   C149 5921   0.301   4.683   3.984  0.8118 -0.4812 -1.2999
   27MOL   H150 5922   0.276   4.475   3.996  0.5677  0.9850  2.4943
   27MOL   H151 5923   0.216   4.623   3.702 -0.8705 -0.5726 -1.7867
   27MOL   H152 5924   0.225   4.445   3.666 -0.0140  1.3935 -0.9844
   27MOL   H153 5925   0.144   4.493   3.807  0.5126  0.1836 -0.5882
   27MOL   H154 5926   0.279   4.696   4.090  0.3878  3.4030 -1.8034
   27MOL   H155 5927   0.207   4.698   3.930 -0.2231  0.9361  0.7776
   27MOL   C156 5928   0.381   4.809   3.938 -0.4739 -0.6589 -0.0859
   27MOL   C157 5929   0.509   4.841   4.022 -0.0888 -0.8873  0.1894
   27MOL   O158 5930   0.511   4.840   4.144 -0.4636  0.0566  0.6750
   27MOL   C159 5931   0.636   4.861   3.947  0.3546 -0.1310 -0.0186
   27MOL   C160 5932   0.286   4.935   3.928 -0.0390  0.3298 -0.0272
   27MOL   H161 5933   0.421   4.789   3.838 -0.8467 -1.3680 -0.0961
   27MOL   H162 5934   0.643   4.804   3.854 -0.1960  1.2355 -0.9281
   27MOL   H163 5935   0.649   4.963   3.911 -0.2707  0.2070  0.7018
   27MOL   H164 5936   0.713   4.823   4.014  0.0493  1.7011  1.4267
   27MOL   H165 5937   0.304   5.005   4.010  1.5803 -0.7021  0.5180
   27MOL   H166 5938   0.185   4.895   3.938  1.1231 -3.4321 -2.3666
   27MOL   C167 5939   0.277   5.014   3.787 -0.5114 -0.1889 -0.4881
   27MOL   C168 5940   0.406   5.080   3.751  0.3134 -0.4430  0.2141
   27MOL   O169 5941   0.473   5.017   3.670  0.3528  0.2469  0.1213
   27MOL   C170 5942   0.456   5.214   3.812 -0.2957 -0.3386  0.3094
   27MOL   C171 5943   0.152   5.107   3.775  0.1847  0.2564 -0.8861
   27MOL   H172 5944   0.270   4.929   3.720  0.3009  0.1342 -0.9814
   27MOL   H173 5945   0.564   5.223   3.800 -0.4747  2.2214  0.4885
   27MOL   H174 5946   0.416   5.301   3.760  0.1174 -0.5501 -0.3729
   27MOL   H175 5947   0.423   5.218   3.915 -0.3471  0.0769  0.2791
   27MOL   H176 5948   0.176   5.197   3.833  0.4085 -0.3503 -0.0310
   27MOL   H177 5949   0.070   5.049   3.818 -1.4238  2.5253 -0.8126
   27MOL   C178 5950   0.119   5.151   3.631  0.0918  0.2794 -0.5254
   27MOL   C179 5951   7.841   5.244   3.630  0.0498  0.1721  0.6869
   27MOL   O180 5952   7.755   5.230   3.719  0.0344  0.1437  0.1265
   27MOL   C181 5953   7.829   5.350   3.522 -0.2455 -0.8116 -0.2045
   27MOL   C182 5954   0.097   5.037   3.527 -0.6539 -0.4113 -0.0645
   27MOL   H183 5955   0.205   5.208   3.595  0.3197  0.8896  0.9746
   27MOL   H184 5956   7.724   5.382   3.525  0.4736  1.8139 -1.2146
   27MOL   H185 5957   0.056   5.434   3.532 -0.3626 -0.5925 -1.1591
   27MOL   H186 5958   0.002   5.299   3.427 -0.7258 -2.6712  0.6946
   27MOL   H187 5959   0.175   4.962   3.542  0.5669  0.7570 -0.4446
   27MOL   H188 5960   0.124   5.072   3.428  0.3921 -0.3214  0.2392
   27MOL   C189 5961   7.807   4.961   3.529 -0.3674 -0.0233  0.0240
   27MOL   C190 5962   7.783   4.880   3.653 -0.2336 -0.1161  0.2902
   27MOL   O191 5963   0.030   4.827   3.712  0.3585  0.4564  0.2040
   27MOL   C192 5964   7.639   4.860   3.711 -0.6497  0.0310  0.6625
   27MOL   C193 5965   7.793   4.869   3.405 -0.2307  1.0228 -0.7598
   27MOL   H194 5966   7.727   5.034   3.516 -0.9857 -0.8033 -0.6246
   27MOL   H195 5967   7.626   4.752   3.705  0.2991 -0.1769  2.0368
   27MOL   H196 5968   7.646   4.885   3.817 -0.0653  0.6463  0.4841
   27MOL   H197 5969   7.573   4.926   3.656  0.2628  1.6068  1.4330
   27MOL   H198 5970   7.792   4.764   3.434  0.6627  0.6013 -2.1987
   27MOL   H199 5971   0.042   4.867   3.345 -0.4162 -2.7429 -1.0066
   27MOL   C200 5972   7.677   4.901   3.303 -0.1309  0.3408  0.3096
   27MOL   C201 5973   7.686   5.042   3.249  0.1398 -0.3832 -0.1065
   27MOL   O202 5974   7.601   5.125   3.277  0.8881  0.6045 -0.0227
   27MOL   C203 5975   7.808   5.087   3.170 -0.2012 -0.1225  0.2156
   27MOL   C204 5976   7.536   4.863   3.367  0.6766  0.8659  0.3705
   27MOL   H205 5977   7.701   4.836   3.218  1.4303 -0.3089  1.2308
   27MOL   H206 5978   0.058   5.056   3.220  0.1086  1.2084  0.5022
   27MOL   H207 5979   7.805   5.052   3.067  1.7450  1.0102 -0.2588
   27MOL   H208 5980   7.819   5.196   3.169 -1.6674  0.0329 -0.0640
   27MOL   H209 5981   7.515   4.934   3.446  1.3366 -0.1927  1.5062
   27MOL   H210 5982   7.563   4.771   3.420 -1.3905 -0.4855 -0.8367
   27MOL   C211 5983   7.416   4.859   3.278 -0.7542 -0.1586 -0.5463
   27MOL   C212 5984   7.285   4.881   3.362 -0.8010 -0.0820 -0.2211
   27MOL   O213 5985   7.191   4.805   3.350 -0.0380  0.2230 -0.0088
   27MOL   C214 5986   7.258   5.014   3.426 -0.1743  0.2208  0.1059
   27MOL   C215 5987   7.413   4.728   3.193  0.1896  0.1214 -0.3454
   27MOL   H216 5988   7.423   4.940   3.205 -1.2468  1.4165  1.1191
   27MOL   H217 5989   7.305   5.029   3.524 -0.8028 -2.9971  0.9456
   27MOL   H218 5990   7.305   5.099   3.376  1.5994 -0.3446  0.7812
   27MOL   H219 5991   7.152   5.034   3.442 -0.7761 -2.7183 -0.0154
   27MOL   H220 5992   7.431   4.643   3.259  0.1984  1.1372  0.9833
   27MOL   H221 5993   7.496   4.721   3.122 -0.8853 -0.4685 -1.5492
   27MOL   H222 5994   7.316   4.709   3.148  0.2543  0.3860 -0.5939
   28MOL     C1 5995   1.707   2.834   2.091 -0.3379  0.3555 -0.0809
   28MOL     C2 5996   1.710   2.842   2.244  0.4320 -0.0138  0.1905
   28MOL     O3 5997   1.608   2.851   2.318  0.3110 -0.3227  0.1763
   28MOL     C4 5998   1.843   2.852   2.311  0.2580  1.0636  0.3862
   28MOL     C5 5999   1.567   2.820   2.033  0.2009 -0.2715  0.1521
   28MOL     H6 6000   1.750   2.928   2.057 -0.9350  0.4888 -0.4919
   28MOL     H7 6001   1.888   2.753   2.313  1.2292  1.4847 -0.3719
   28MOL     H8 6002   1.909   2.922   2.259 -0.8289  3.1403  1.7083
   28MOL     H9 6003   1.824   2.889   2.412  0.4084 -3.0197  1.9849
   28MOL    H10 6004   1.511   2.908   2.067  2.3445  1.0817  0.3002
   28MOL    H11 6005   1.519   2.730   2.071  0.0703 -1.1166 -1.9423
   28MOL    H12 6006   1.784   2.764   2.059 -0.3230  1.1887 -1.9434
   28MOL    C13 6007   1.553   2.793   1.885  0.0648  0.2322 -0.7749
   28MOL    C14 6008   1.607   2.904   1.789  0.2596  0.4206  0.0318
   28MOL    O15 6009   1.571   3.020   1.793 -0.3249 -0.5864  0.3928
   28MOL    C16 6010   1.715   2.855   1.694  0.5538  0.0060  0.1187
   28MOL    C17 6011   1.412   2.753   1.831 -0.4037 -0.0347 -0.1980
   28MOL    H18 6012   1.612   2.704   1.862  1.6090  0.9959  0.1295
   28MOL    H19 6013   1.709   2.747   1.679  0.7211  0.0143 -0.0104
   28MOL    H20 6014   1.710   2.912   1.601 -0.7685 -0.0388  0.1473
   28MOL    H21 6015   1.816   2.872   1.732  0.9812 -2.6375  0.2423
   28MOL    H22 6016   1.405   2.803   1.735  0.2200  0.0785 -0.1842
   28MOL    H23 6017   1.343   2.800   1.902  0.3722  0.6138  0.1266
   28MOL    C24 6018   1.390   2.601   1.825  0.6867  0.5342  0.3743
   28MOL    C25 6019   1.499   2.522   1.749  0.6377  0.0251 -0.0961
   28MOL    O26 6020   1.537   2.573   1.643  0.5051 -0.2081 -0.5925
   28MOL    C27 6021   1.554   2.397   1.813  0.4486  0.0562  0.0691
   28MOL    C28 6022   1.243   2.564   1.789 -0.8525 -0.2245  0.2411
   28MOL    H29 6023   1.397   2.557   1.925 -0.4675  0.7855  0.5729
   28MOL    H30 6024   1.617   2.402   1.902 -2.8296  0.4235  2.4416
   28MOL    H31 6025   1.477   2.325   1.841  0.6675  0.5306  2.0004
   28MOL    H32 6026   1.611   2.339   1.740  1.4308 -0.0970  0.9261
   28MOL    H33 6027   1.177   2.622   1.854  0.1686  0.6383  0.5149
   28MOL    H34 6028   1.229   2.463   1.828  1.2016 -0.2308  1.0095
   28MOL    C35 6029   1.187   2.575   1.643 -0.6171  0.1270  0.3118
   28MOL    C36 6030   1.136   2.713   1.601 -0.1458  0.5712  0.4263
   28MOL    O37 6031   1.019   2.747   1.614 -0.3318 -0.1967  0.5452
   28MOL    C38 6032   1.234   2.805   1.542 -0.5397 -0.0319 -0.1195
   28MOL    C39 6033   1.070   2.471   1.631 -0.2246 -0.1422 -0.1799
   28MOL    H40 6034   1.268   2.543   1.577 -0.6358 -1.4718  1.0379
   28MOL    H41 6035   1.216   2.820   1.436 -0.3959  0.1271 -0.1209
   28MOL    H42 6036   1.236   2.902   1.591 -0.2774  0.1688 -0.5189
   28MOL    H43 6037   1.332   2.756   1.551 -0.6952  0.0911  2.5102
   28MOL    H44 6038   0.987   2.487   1.699 -0.3467 -1.1083 -0.0908
   28MOL    H45 6039   1.102   2.374   1.669  0.1773  0.1626  0.2560
   28MOL    C46 6040   1.022   2.450   1.487 -0.7254  0.2968  0.2872
   28MOL    C47 6041   0.896   2.370   1.487 -0.4063  0.1118  0.3455
   28MOL    O48 6042   0.795   2.422   1.454  0.0093  0.4146 -0.2789
   28MOL    C49 6043   0.897   2.225   1.534  0.2325 -0.5263  0.4381
   28MOL    C50 6044   1.138   2.398   1.398 -0.6898  0.2886  0.2824
   28MOL    H51 6045   0.991   2.539   1.431 -0.3906 -0.7377 -1.5872
   28MOL    H52 6046   0.983   2.194   1.593 -0.2024  2.2915  2.6465
   28MOL    H53 6047   0.815   2.214   1.605 -0.3261  2.2201  0.2822
   28MOL    H54 6048   0.887   2.150   1.456 -1.5688  1.1046 -0.9469
   28MOL    H55 6049   1.211   2.335   1.449 -3.7297 -1.9373  2.0579
   28MOL    H56 6050   1.194   2.484   1.362  2.2253 -1.4649  0.4580
   28MOL    C57 6051   1.096   2.334   1.262 -0.5420 -0.0569 -0.0585
   28MOL    C58 6052   1.210   2.255   1.201  0.4033  0.1595  0.1532
   28MOL    O59 6053   1.318   2.306   1.195 -0.3070  0.5297  0.0641
   28MOL    C60 6054   1.185   2.117   1.142  0.8311 -0.4271 -0.5263
   28MOL    C61 6055   1.036   2.428   1.156 -1.0032 -0.2434 -0.2314
   28MOL    H62 6056   1.026   2.252   1.281  1.0693 -1.6251 -0.7473
   28MOL    H63 6057   1.231   2.034   1.195 -1.9621 -2.3240 -0.9370
   28MOL    H64 6058   1.079   2.091   1.134  0.2082  1.9210 -0.4051
   28MOL    H65 6059   1.227   2.125   1.041 -2.1583  0.7263 -1.7592
   28MOL    H66 6060   1.120   2.497   1.146 -1.3463  0.8410  3.5303
   28MOL    H67 6061   0.965   2.496   1.205 -2.3637 -2.5836  1.1062
   28MOL    C68 6062   0.983   2.359   1.025 -0.3634 -0.1652  0.0512
   28MOL    C69 6063   1.043   2.430   0.907 -0.3962  0.0986  0.6363
   28MOL    O70 6064   1.002   2.538   0.861  0.1394  0.4133 -0.5580
   28MOL    C71 6065   1.162   2.360   0.838 -0.3193  1.0717  0.3251
   28MOL    C72 6066   0.826   2.360   1.014 -0.0066 -0.1872 -0.1712
   28MOL    H73 6067   1.030   2.260   1.020  0.2983  0.2672 -4.2745
   28MOL    H74 6068   1.228   2.301   0.901  0.6110  1.8531  0.0811
   28MOL    H75 6069   1.124   2.293   0.760  0.4573  0.6150  0.3399
   28MOL    H76 6070   1.226   2.437   0.795 -0.4362  1.7401  1.3448
   28MOL    H77 6071   0.794   2.369   0.910  1.6974  0.9183 -0.6200
   28MOL    H78 6072   0.789   2.448   1.066  0.4312 -0.8938  1.3959
   28MOL    C79 6073   0.765   2.235   1.076 -0.1499 -0.5034  0.3520
   28MOL    C80 6074   0.818   2.100   1.014  0.4845  0.2109  0.1136
   28MOL    O81 6075   0.891   2.102   0.914  0.0727 -0.5421  0.6819
   28MOL    C82 6076   0.780   1.970   1.086  0.2001 -0.4461 -0.1326
   28MOL    C83 6077   0.610   2.233   1.069 -0.4385 -0.3858 -1.5191
   28MOL    H84 6078   0.798   2.245   1.179  0.4974 -1.2581  0.2283
   28MOL    H85 6079   0.794   1.884   1.020  2.6285 -0.3725  0.2218
   28MOL    H86 6080   0.855   1.946   1.161 -2.0760  0.5450  2.5195
   28MOL    H87 6081   0.679   1.978   1.125 -0.1673 -0.1755 -1.1313
   28MOL    H88 6082   0.567   2.315   1.128 -2.4026 -1.2528 -1.7089
   28MOL    H89 6083   0.561   2.153   1.124 -0.0900 -0.2116 -0.9532
   28MOL    C90 6084   0.551   2.239   0.922 -0.0280  0.2541  0.3457
   28MOL    C91 6085   0.508   2.377   0.877  0.5994  0.0851 -0.2825
   28MOL    O92 6086   0.437   2.452   0.950 -0.4039 -0.1521  0.1855
   28MOL    C93 6087   0.560   2.423   0.742  0.0973  0.4137  0.2187
   28MOL    C94 6088   0.442   2.134   0.908  0.2103 -0.2951 -0.4647
   28MOL    H95 6089   0.629   2.200   0.856 -0.7524 -0.1008 -0.3065
   28MOL    H96 6090   0.566   2.346   0.665  0.8612  0.8314 -0.1463
   28MOL    H97 6091   0.477   2.487   0.711 -0.2920  0.0291  0.4667
   28MOL    H98 6092   0.646   2.490   0.745  0.5334 -0.0607 -1.2044
   28MOL    H99 6093   0.459   2.043   0.965 -1.9210  0.2350  1.0648
   28MOL   H100 6094   0.442   2.098   0.805 -0.3463  2.4365 -1.4758
   28MOL   C101 6095   0.295   2.172   0.944 -0.6071 -0.1668  0.0975
   28MOL   C102 6096   0.266   2.183   1.098 -0.6112  0.2716  0.0746
   28MOL   O103 6097   0.312   2.097   1.177  0.0781 -0.2991  0.0478
   28MOL   C104 6098   0.191   2.302   1.148  0.3679  0.0758  0.0293
   28MOL   C105 6099   0.193   2.070   0.882  0.3812 -0.3355  0.3489
   28MOL   H106 6100   0.271   2.264   0.890 -0.1873  1.0223  1.8997
   28MOL   H107 6101   0.259   2.370   1.199 -0.6082  0.0247  1.4363
   28MOL   H108 6102   0.151   2.366   1.070 -1.5915  2.0837  2.5654
   28MOL   H109 6103   0.112   2.280   1.220 -0.7110  2.8745 -0.2327
   28MOL   H110 6104   0.191   1.974   0.934 -2.5419 -0.4774  0.0693
   28MOL   H111 6105   0.227   2.055   0.780 -0.8439  3.2127 -0.6609
   28MOL   C112 6106   0.047   2.132   0.872 -0.1167 -0.2172  0.4963
   28MOL   C113 6107   7.781   2.021   0.849 -0.3306  0.9478  0.5151
   28MOL   O114 6108   7.723   2.008   0.747 -0.1166  0.1736 -0.7358
   28MOL   C115 6109   7.768   1.910   0.959 -0.0815 -0.1827  0.3650
   28MOL   C116 6110   0.042   2.248   0.765  0.2020  0.1594 -0.1453
   28MOL   H117 6111   0.026   2.178   0.968  0.8188  1.6193 -0.1328
   28MOL   H118 6112   7.664   1.878   0.969  0.4729 -2.1344 -0.0368
   28MOL   H119 6113   7.834   1.827   0.935  0.4821  0.2663  0.3582
   28MOL   H120 6114   7.799   1.950   1.055 -0.3454 -0.3394  0.5153
   28MOL   H121 6115   0.100   2.218   0.678 -0.8224 -0.7347 -0.5301
   28MOL   H122 6116   0.097   2.331   0.809  0.5072  0.0141 -0.2526
   28MOL   C123 6117   7.749   2.302   0.721  0.4722  0.3397 -0.3097
   28MOL   C124 6118   7.744   2.322   0.570 -0.0630 -0.3298 -0.6749
   28MOL   O125 6119   7.736   2.436   0.526 -0.1469 -0.0069 -0.4526
   28MOL   C126 6120   7.744   2.206   0.471 -0.1650 -0.1985 -0.0883
   28MOL   C127 6121   7.704   2.427   0.804  0.0675 -0.0901  0.6120
   28MOL   H128 6122   7.674   2.223   0.730  1.3413 -0.9050 -3.4011
   28MOL   H129 6123   7.768   2.248   0.373  2.5615  0.5972  0.8862
   28MOL   H130 6124   7.827   2.141   0.500  0.4680  0.9628  0.6989
   28MOL   H131 6125   7.654   2.146   0.456 -1.5387  0.8008  3.6949
   28MOL   H132 6126   7.758   2.513   0.764  1.9388 -1.6931 -0.4216
   28MOL   H133 6127   7.740   2.417   0.906 -0.6839 -0.6570  0.8269
   28MOL   C134 6128   7.556   2.465   0.788 -0.2014  0.0602  0.2762
   28MOL   C135 6129   7.544   2.615   0.766 -0.3036 -0.1517  0.3346
   28MOL   O136 6130   7.581   2.691   0.847  0.3495  0.1854  0.4044
   28MOL   C137 6131   7.483   2.662   0.632  0.1976 -0.0882 -0.0833
   28MOL   C138 6132   7.466   2.431   0.905 -0.3906  0.0514 -0.0726
   28MOL   H139 6133   7.512   2.446   0.691  0.1080  0.7494 -0.0056
   28MOL   H140 6134   7.445   2.764   0.643 -1.0009 -0.7776  2.8036
   28MOL   H141 6135   7.546   2.655   0.544  0.3418 -1.2749  0.1120
   28MOL   H142 6136   7.388   2.609   0.619  1.0338 -0.4912 -5.2443
   28MOL   H143 6137   7.362   2.458   0.888  0.0652  1.8161 -0.1697
   28MOL   H144 6138   7.484   2.499   0.988 -2.2410  1.0248 -0.4387
   28MOL   C145 6139   7.468   2.284   0.953 -0.7609 -0.2140  0.0311
   28MOL   C146 6140   7.419   2.173   0.853  0.4332  0.2204 -1.2403
   28MOL   O147 6141   7.384   2.212   0.736 -0.1363 -0.2828 -0.2108
   28MOL   C148 6142   7.417   2.029   0.892 -0.3856  0.2761  0.6182
   28MOL   C149 6143   7.397   2.273   1.094  0.1353  0.6912 -0.5273
   28MOL   H150 6144   7.572   2.253   0.962 -1.0388 -1.2219 -0.1612
   28MOL   H151 6145   7.324   1.973   0.901 -0.4150 -0.0800 -1.5229
   28MOL   H152 6146   7.482   1.974   0.823 -1.1054 -0.9197  0.8638
   28MOL   H153 6147   7.466   2.038   0.989 -0.5151  1.1907  0.5975
   28MOL   H154 6148   7.310   2.208   1.093 -0.5775  1.6356 -1.1176
   28MOL   H155 6149   7.353   2.370   1.117  0.2591  0.8217 -0.8363
   28MOL   C156 6150   7.481   2.227   1.223 -0.2672  0.1727 -0.0547
   28MOL   C157 6151   7.636   2.255   1.217  0.2395  0.5063  0.5066
   28MOL   O158 6152   7.716   2.163   1.222 -0.0564 -0.5575 -0.1433
   28MOL   C159 6153   7.677   2.395   1.220  0.2017 -0.0294  0.1133
   28MOL   C160 6154   7.455   2.088   1.268  0.4938  0.6543  0.3473
   28MOL   H161 6155   7.455   2.288   1.310  0.1681  0.6993 -0.2882
   28MOL   H162 6156   7.667   2.444   1.124 -1.5134  1.3732  0.9757
   28MOL   H163 6157   7.614   2.446   1.292 -0.3838 -0.0359 -0.3906
   28MOL   H164 6158   7.784   2.397   1.241  0.3754 -1.4760 -0.5463
   28MOL   H165 6159   7.483   2.026   1.183 -0.2134  2.5024 -1.2759
   28MOL   H166 6160   7.346   2.079   1.265  0.6346 -0.8379 -1.7772
   28MOL   C167 6161   7.523   2.030   1.400 -0.2575  0.6199  0.3086
   28MOL   C168 6162   7.479   1.889   1.424  0.3642  0.1535  0.2357
   28MOL   O169 6163   7.359   1.858   1.433  0.3015 -0.0833 -0.2015
   28MOL   C170 6164   7.583   1.775   1.431  0.6945  0.1590 -1.4314
   28MOL   C171 6165   7.474   2.117   1.520 -0.0144  0.7770 -0.0116
   28MOL   H172 6166   7.631   2.042   1.391 -0.2343 -0.7738 -1.6864
   28MOL   H173 6167   7.634   1.770   1.334 -0.3342 -0.1006 -1.9655
   28MOL   H174 6168   7.641   1.778   1.523 -2.1850 -1.0776  0.4912
   28MOL   H175 6169   7.538   1.676   1.429  0.0619  0.2902  2.7368
   28MOL   H176 6170   7.366   2.106   1.529 -0.3615  2.9310 -1.0041
   28MOL   H177 6171   7.476   2.224   1.498  0.7350  0.7167 -0.2571
   28MOL   C178 6172   7.544   2.100   1.660  0.0643 -0.0268  0.6471
   28MOL   C179 6173   7.695   2.102   1.651 -0.0445  0.8329 -0.0349
   28MOL   O180 6174   7.760   2.002   1.669 -0.0579  0.2326 -0.0462
   28MOL   C181 6175   7.767   2.226   1.586  0.2536  0.2230  0.5139
   28MOL   C182 6176   7.470   1.997   1.758  0.2773 -0.5802 -0.1186
   28MOL   H183 6177   7.534   2.198   1.706  0.7148 -0.2119  1.1852
   28MOL   H184 6178   7.735   2.314   1.641 -1.6356  0.2751 -0.6305
   28MOL   H185 6179   0.034   2.219   1.592  0.4422  2.1323 -0.4079
   28MOL   H186 6180   7.724   2.238   1.487  1.9332  0.0437 -0.2537
   28MOL   H187 6181   7.468   1.900   1.708  0.4298 -0.2883 -0.6903
   28MOL   H188 6182   7.365   2.019   1.742  0.7123 -0.1849 -2.6753
   28MOL   C189 6183   7.498   2.001   1.908  0.7701 -0.2111 -0.4730
   28MOL   C190 6184   7.441   1.877   1.970 -0.0774  0.1560 -0.0197
   28MOL   O191 6185   7.324   1.845   1.961 -0.1455 -0.0078  0.2998
   28MOL   C192 6186   7.532   1.779   2.047  0.3659  0.2855  0.3188
   28MOL   C193 6187   7.470   2.142   1.974 -0.3597  0.2550 -0.7567
   28MOL   H194 6188   7.602   1.974   1.927  0.5093 -0.2424  0.9840
   28MOL   H195 6189   7.603   1.849   2.091 -0.1496  0.6239  0.6225
   28MOL   H196 6190   7.480   1.725   2.126  0.9082 -1.4717 -0.5050
   28MOL   H197 6191   7.586   1.711   1.982  1.4463  1.9930 -0.5937
   28MOL   H198 6192   7.370   2.140   2.016  0.9008  0.2411  2.3889
   28MOL   H199 6193   7.468   2.215   1.893 -1.0476  2.1636  0.9217
   28MOL   C200 6194   7.571   2.186   2.080  0.0655 -0.6263  0.8133
   28MOL   C201 6195   7.587   2.095   2.200 -0.4364  0.1168 -0.4556
   28MOL   O202 6196   7.489   2.033   2.249  0.4703 -0.0610  0.0691
   28MOL   C203 6197   7.726   2.087   2.260  0.0720  0.8249  0.5847
   28MOL   C204 6198   7.530   2.335   2.123  0.3827  0.0880 -0.2787
   28MOL   H205 6199   7.670   2.184   2.034  0.2196 -0.7210  1.1493
   28MOL   H206 6200   7.779   2.018   2.194 -2.2641  1.1827 -1.7573
   28MOL   H207 6201   7.781   2.179   2.244  0.5064  0.7365  1.5164
   28MOL   H208 6202   7.719   2.039   2.358 -1.3759  0.4870  0.3276
   28MOL   H209 6203   7.555   2.345   2.229 -0.1937 -0.9063 -0.0435
   28MOL   H210 6204   7.428   2.353   2.089  0.5938  2.3323  0.2015
   28MOL   C211 6205   7.625   2.447   2.063 -0.2143 -0.0458  0.2346
   28MOL   C212 6206   7.565   2.579   2.108 -0.5734 -0.6808  0.4363
   28MOL   O213 6207   7.441   2.592   2.122 -0.1067  0.7446 -0.4439
   28MOL   C214 6208   7.665   2.687   2.125  0.2475  0.1800  0.5053
   28MOL   C215 6209   7.645   2.438   1.908 -0.2497  0.0021 -0.6332
   28MOL   H216 6210   7.714   2.418   2.118 -0.4317  1.3377  1.3427
   28MOL   H217 6211   7.763   2.651   2.155  0.0542 -0.5106  0.3382
   28MOL   H218 6212   7.664   2.759   2.043 -0.2760 -1.2350 -0.7576
   28MOL   H219 6213   7.624   2.735   2.213 -2.8119 -0.0718 -0.6880
   28MOL   H220 6214   7.560   2.464   1.846 -0.2400 -0.4092 -0.8198
   28MOL   H221 6215   7.677   2.336   1.886 -0.9709  0.0226 -1.8031
   28MOL   H222 6216   7.727   2.506   1.885 -0.2192 -0.3297 -1.5162
   29MOL     C1 6217   7.354   3.115   3.954 -1.0620 -0.4296 -0.0658
   29MOL     C2 6218   7.410   3.168   3.822  0.0991  0.0202 -0.6893
   29MOL     O3 6219   7.393   3.281   3.778 -0.2306  0.3250  0.3315
   29MOL     C4 6220   7.483   3.060   3.748 -0.7473 -0.0595  0.0572
   29MOL     C5 6221   7.249   3.211   4.017  0.6357 -0.4045 -0.4581
   29MOL     H6 6222   7.308   3.017   3.942  0.3943 -1.1523  0.0781
   29MOL     H7 6223   7.497   3.092   3.645 -2.2286 -2.5246 -0.9596
   29MOL     H8 6224   7.572   3.046   3.810 -0.8859  1.8186  0.7322
   29MOL     H9 6225   7.427   2.967   3.753  0.4186 -0.7141  1.1210
   29MOL    H10 6226   7.176   3.142   4.060 -2.4712  3.4362  0.6379
   29MOL    H11 6227   7.200   3.267   3.938 -0.2403  1.3195  1.2587
   29MOL    H12 6228   7.439   3.085   4.015 -0.0317 -1.0839 -1.7674
   29MOL    C13 6229   7.285   3.303   4.135 -0.1135  0.1500  0.2481
   29MOL    C14 6230   7.377   3.409   4.082  0.6039  0.2258 -0.7148
   29MOL    O15 6231   7.502   3.413   4.101  0.3899  0.9360 -0.1801
   29MOL    C16 6232   7.309   3.533   4.019 -0.0974  0.9707  0.7177
   29MOL    C17 6233   7.336   3.220   4.260 -0.0617 -0.2094 -0.2411
   29MOL    H18 6234   7.197   3.356   4.173 -0.4381 -0.7036  0.6979
   29MOL    H19 6235   7.202   3.529   4.002  0.2743  0.9976 -1.8049
   29MOL    H20 6236   7.336   3.628   4.065 -0.2971  2.3634 -1.9684
   29MOL    H21 6237   7.351   3.549   3.920  0.2297  0.2664  0.7405
   29MOL    H22 6238   7.435   3.259   4.286 -0.6360  2.1425 -1.3906
   29MOL    H23 6239   7.357   3.118   4.229  0.6732 -0.4091  0.9076
   29MOL    C24 6240   7.239   3.228   4.380  0.3376 -0.9578  0.5839
   29MOL    C25 6241   7.220   3.364   4.436  0.0144  0.1213 -0.0632
   29MOL    O26 6242   7.104   3.406   4.458 -0.0095  0.4211  0.1972
   29MOL    C27 6243   7.341   3.444   4.468  0.7011  0.1238  0.6105
   29MOL    C28 6244   7.249   3.117   4.488  0.5927 -1.0745 -0.1180
   29MOL    H29 6245   7.143   3.205   4.335  0.2546  0.6904 -0.1287
   29MOL    H30 6246   7.405   3.458   4.381 -2.1687 -3.3847 -2.2403
   29MOL    H31 6247   7.304   3.535   4.515 -1.4196 -0.1004 -0.5968
   29MOL    H32 6248   7.401   3.391   4.542  0.6481  0.1617  0.6806
   29MOL    H33 6249   7.333   3.144   4.553 -1.1778  2.2008  0.9085
   29MOL    H34 6250   7.274   3.023   4.439  0.2299 -1.7630  0.9964
   29MOL    C35 6251   7.122   3.084   4.574  0.0399 -0.5933 -0.4237
   29MOL    C36 6252   7.159   2.999   4.700  0.1274  0.4806 -0.1098
   29MOL    O37 6253   7.231   2.905   4.682 -0.1888  0.0112 -0.0925
   29MOL    C38 6254   7.108   3.028   4.836  0.0251  0.1048 -0.7552
   29MOL    C39 6255   7.021   3.002   4.486 -0.8112 -0.1931  0.5766
   29MOL    H40 6256   7.065   3.170   4.608 -1.2154 -1.5863  0.0365
   29MOL    H41 6257   7.040   3.113   4.830 -0.0803  0.0086 -0.9138
   29MOL    H42 6258   7.069   2.947   4.897  1.6780  0.0965  0.3355
   29MOL    H43 6259   7.194   3.062   4.893 -0.1771  0.1309 -0.4694
   29MOL    H44 6260   7.076   2.910   4.466 -1.9174 -0.4624 -1.2898
   29MOL    H45 6261   7.020   3.051   4.389 -1.4071 -0.6705  0.3394
   29MOL    C46 6262   6.882   2.982   4.533  0.2155  0.2081 -0.2192
   29MOL    C47 6263   6.799   2.887   4.438 -0.1921 -1.0499  0.1762
   29MOL    O48 6264   6.755   2.922   4.327  0.3196  0.2541 -0.4288
   29MOL    C49 6265   6.764   2.761   4.495  0.3944 -0.0916 -0.2592
   29MOL    C50 6266   6.802   3.125   4.563  0.4864 -0.3368  0.2376
   29MOL    H51 6267   6.876   2.923   4.625  0.7141 -0.3974 -0.5668
   29MOL    H52 6268   6.805   2.682   4.433 -1.1929 -0.3692 -0.9902
   29MOL    H53 6269   6.813   2.744   4.591 -0.3808  0.1810  0.1863
   29MOL    H54 6270   6.658   2.734   4.492  0.1882  0.9141 -3.7853
   29MOL    H55 6271   6.710   3.114   4.505  1.0031 -2.0569 -0.2875
   29MOL    H56 6272   6.843   3.206   4.503 -0.1863 -0.6738 -0.6895
   29MOL    C57 6273   6.752   3.165   4.708  0.1320 -0.0376 -0.3317
   29MOL    C58 6274   6.679   3.059   4.785  0.6536 -0.3067  0.3294
   29MOL    O59 6275   6.619   2.972   4.718  0.0567 -0.2787  0.1023
   29MOL    C60 6276   6.697   3.054   4.936  0.1020  0.2291 -0.1838
   29MOL    C61 6277   6.689   3.309   4.696 -0.4636 -0.4294  0.2287
   29MOL    H62 6278   6.851   3.174   4.753 -0.0350 -0.8083  0.2102
   29MOL    H63 6279   6.686   3.157   4.970 -0.6014  0.3639 -0.7935
   29MOL    H64 6280   6.626   2.989   4.988 -0.6704  0.3911 -1.0068
   29MOL    H65 6281   6.796   3.020   4.966  0.6785  2.1824  0.1607
   29MOL    H66 6282   6.761   3.369   4.640 -1.3423 -0.4158 -0.8964
   29MOL    H67 6283   6.707   3.350   4.795  3.4382 -1.3209 -0.0131
   29MOL    C68 6284   6.548   3.320   4.628 -0.4120  0.0517 -0.7827
   29MOL    C69 6285   6.534   3.429   4.519  0.5425  0.1077  0.1745
   29MOL    O70 6286   6.456   3.526   4.531 -0.0498  0.0862  0.3903
   29MOL    C71 6287   6.635   3.414   4.396  0.4845 -0.3588 -0.3505
   29MOL    C72 6288   6.415   3.302   4.722 -0.4756 -0.1882 -0.3873
   29MOL    H73 6289   6.533   3.228   4.571 -1.9117  0.2681 -0.7557
   29MOL    H74 6290   6.740   3.397   4.422  0.6166  0.6901 -0.1837
   29MOL    H75 6291   6.610   3.335   4.324 -2.7149 -0.8701  1.2647
   29MOL    H76 6292   6.633   3.500   4.329  0.5427 -1.1932 -1.4509
   29MOL    H77 6293   6.422   3.207   4.773  1.6552  0.3138  0.3055
   29MOL    H78 6294   6.336   3.291   4.648 -2.0269  2.3328  0.8350
   29MOL    C79 6295   6.385   3.431   4.813  0.0145 -0.0068  0.5346
   29MOL    C80 6296   6.487   3.448   4.924  0.1071 -0.3854 -0.0479
   29MOL    O81 6297   6.510   3.362   5.008 -0.1963 -0.4400 -0.1119
   29MOL    C82 6298   6.565   3.583   4.929  0.0349  0.8512 -1.2989
   29MOL    C83 6299   6.242   3.443   4.870 -0.5460 -0.1594  0.1705
   29MOL    H84 6300   6.406   3.521   4.754  2.9502 -0.6111  0.6116
   29MOL    H85 6301   6.504   3.672   4.913 -1.7960 -0.0731  0.3726
   29MOL    H86 6302   6.615   3.595   5.025 -1.7056 -1.4397 -0.0764
   29MOL    H87 6303   6.642   3.597   4.852 -0.5243  0.0376 -2.0134
   29MOL    H88 6304   6.253   3.515   4.951  1.5355  1.0934 -1.1983
   29MOL    H89 6305   6.212   3.350   4.919  1.2589 -0.9491 -0.1987
   29MOL    C90 6306   6.134   3.495   4.779 -0.0271 -0.6944  0.7407
   29MOL    C91 6307   6.162   3.641   4.753  0.2786 -0.2916  0.3638
   29MOL    O92 6308   6.150   3.727   4.846  0.3193 -0.2612 -0.7109
   29MOL    C93 6309   6.174   3.678   4.612 -0.8289 -0.0507  0.6196
   29MOL    C94 6310   5.991   3.465   4.846 -0.6090  0.3355  0.2768
   29MOL    H95 6311   6.146   3.443   4.684  1.2815  1.8973 -0.5546
   29MOL    H96 6312   6.093   3.746   4.587 -0.2709  0.6401  0.6625
   29MOL    H97 6313   6.271   3.728   4.599 -0.3435 -1.1780 -0.1258
   29MOL    H98 6314   6.162   3.591   4.549  0.7336 -1.8102  2.6499
   29MOL    H99 6315   6.010   3.488   4.950  0.5371 -1.2280  0.4297
   29MOL   H100 6316   5.968   3.359   4.834  2.0647 -0.3495  1.0626
   29MOL   C101 6317   5.867   3.543   4.785  0.3378 -0.0268  0.4825
   29MOL   C102 6318   5.750   3.543   4.880  0.3946 -0.2251  0.0784
   29MOL   O103 6319   5.707   3.443   4.938 -0.1402 -0.2654 -0.6113
   29MOL   C104 6320   5.668   3.673   4.889  0.1282 -0.0704 -0.0720
   29MOL   C105 6321   5.849   3.479   4.644  0.9932  0.3302  0.0579
   29MOL   H106 6322   5.890   3.650   4.780 -0.0540  0.0662  0.6071
   29MOL   H107 6323   5.659   3.690   4.997  1.6310 -1.4896  0.2974
   29MOL   H108 6324   5.713   3.763   4.847 -1.2756  0.7832  0.2364
   29MOL   H109 6325   5.566   3.656   4.857 -1.1808  1.4901  3.0025
   29MOL   H110 6326   5.859   3.371   4.653 -0.6281  0.0821 -0.9588
   29MOL   H111 6327   5.928   3.516   4.579  1.6110 -0.7163  0.2029
   29MOL   C112 6328   5.708   3.502   4.582  0.1295 -0.5827 -0.1670
   29MOL   C113 6329   5.688   3.404   4.465  0.6573 -0.2872  0.1770
   29MOL   O114 6330   5.764   3.397   4.378  0.3125 -0.0007  0.3012
   29MOL   C115 6331   5.570   3.313   4.472  0.3994 -0.3535  0.0184
   29MOL   C116 6332   5.701   3.648   4.537  0.1787  0.4047  0.6278
   29MOL   H117 6333   5.630   3.484   4.656  0.0814  0.6583  0.1076
   29MOL   H118 6334   5.590   3.216   4.426  0.2525 -0.1548 -0.4586
   29MOL   H119 6335   5.550   3.287   4.576  1.6168  1.7086  0.7944
   29MOL   H120 6336   5.476   3.356   4.435 -0.2401 -1.5968  0.1707
   29MOL   H121 6337   5.795   3.653   4.482 -0.3482 -1.1892 -0.4751
   29MOL   H122 6338   5.715   3.722   4.615 -1.6747  3.0239 -1.4144
   29MOL   C123 6339   5.576   3.696   4.464 -0.4417 -0.1860  0.5673
   29MOL   C124 6340   5.607   3.709   4.318 -0.2921  0.3003 -0.2350
   29MOL   O125 6341   5.547   3.654   4.229 -0.4278  0.5521 -0.0901
   29MOL   C126 6342   5.716   3.819   4.287 -0.0406 -0.3073  0.2015
   29MOL   C127 6343   5.512   3.827   4.519 -0.5475 -0.2234 -0.8477
   29MOL   H128 6344   5.494   3.625   4.480 -0.4285  0.6580  5.1051
   29MOL   H129 6345   5.745   3.791   4.186 -2.2370 -0.7675 -0.3367
   29MOL   H130 6346   5.671   3.918   4.277  1.4931  0.5345  1.3294
   29MOL   H131 6347   5.798   3.815   4.359  0.1418  2.9781  0.2674
   29MOL   H132 6348   5.586   3.906   4.517 -0.7794  0.0161 -0.0105
   29MOL   H133 6349   5.487   3.812   4.624 -0.0730  2.4920 -0.3228
   29MOL   C134 6350   5.384   3.884   4.446 -0.2696 -0.0945 -0.3530
   29MOL   C135 6351   5.338   4.029   4.487  0.4236 -0.5562 -0.7682
   29MOL   O136 6352   5.313   4.114   4.402  0.2311  0.2489  0.8443
   29MOL   C137 6353   5.313   4.036   4.637  0.4088 -0.4860  0.4898
   29MOL   C138 6354   5.274   3.769   4.462 -0.2210  0.6694 -0.1736
   29MOL   H139 6355   5.399   3.891   4.338  2.9928 -1.2745 -0.0284
   29MOL   H140 6356   5.332   4.140   4.665 -1.9992  0.3568 -0.8496
   29MOL   H141 6357   5.208   4.015   4.657  0.0704  0.6807 -0.0009
   29MOL   H142 6358   5.375   3.967   4.694 -0.4763 -0.8452  1.0200
   29MOL   H143 6359   5.283   3.734   4.565  1.6187  1.5183 -0.0273
   29MOL   H144 6360   5.299   3.680   4.404 -0.7997  1.5784 -1.8321
   29MOL   C145 6361   5.132   3.808   4.418  0.6699 -0.4218 -0.2180
   29MOL   C146 6362   5.032   3.704   4.473 -0.1574  0.1086  0.2365
   29MOL   O147 6363   5.052   3.578   4.450 -0.0581 -0.2254 -0.3226
   29MOL   C148 6364   4.905   3.753   4.538 -0.0631  0.8163 -0.4153
   29MOL   C149 6365   5.112   3.824   4.264  0.2432 -0.5765 -0.2147
   29MOL   H150 6366   5.099   3.901   4.465 -1.1073 -2.1174  2.0543
   29MOL   H151 6367   4.891   3.711   4.638  3.1765  2.1552  0.6560
   29MOL   H152 6368   4.892   3.861   4.543 -0.9851  0.6620  0.9575
   29MOL   H153 6369   4.819   3.725   4.476  0.2793  0.8614 -0.9117
   29MOL   H154 6370   5.108   3.720   4.231  0.4112 -0.5626 -0.2785
   29MOL   H155 6371   5.205   3.862   4.221 -0.7250  1.3880 -0.6187
   29MOL   C156 6372   5.000   3.916   4.208  0.1503 -0.8900  0.1979
   29MOL   C157 6373   4.978   3.889   4.060  0.8347 -1.5224  0.0239
   29MOL   O158 6374   5.041   3.956   3.980 -0.1988  0.9367 -0.4094
   29MOL   C159 6375   4.881   3.778   4.020  1.1500  0.3391  0.7033
   29MOL   C160 6376   5.019   4.067   4.245 -0.7482  0.3402  0.0044
   29MOL   H161 6377   4.901   3.898   4.251  0.7300 -1.5807  1.2714
   29MOL   H162 6378   4.932   3.712   3.949 -0.4960  0.5457 -0.7070
   29MOL   H163 6379   4.852   3.716   4.105  1.4787 -0.3997  0.2799
   29MOL   H164 6380   4.792   3.823   3.976 -0.0270 -1.8640  0.8127
   29MOL   H165 6381   5.116   4.105   4.210  0.3664 -1.2047  1.3378
   29MOL   H166 6382   5.028   4.067   4.354 -0.8986 -2.0982  0.0365
   29MOL   C167 6383   4.907   4.171   4.202  0.2817 -0.0687 -0.3882
   29MOL   C168 6384   4.964   4.307   4.229  0.3471  0.0428 -1.0178
   29MOL   O169 6385   4.964   4.390   4.136 -0.2010  0.0961 -0.5796
   29MOL   C170 6386   4.999   4.352   4.371  0.5765  0.4430  0.0432
   29MOL   C171 6387   4.773   4.149   4.282 -0.1753  0.8309  0.0274
   29MOL   H172 6388   4.886   4.176   4.095 -0.8711 -0.0833 -0.1616
   29MOL   H173 6389   4.908   4.370   4.429 -0.9063  1.1242 -2.4590
   29MOL   H174 6390   5.061   4.278   4.423  1.1340 -1.0264 -2.6152
   29MOL   H175 6391   5.059   4.443   4.366 -1.0310  1.6797  2.3121
   29MOL   H176 6392   4.796   4.174   4.385 -2.3620 -1.8861  1.2296
   29MOL   H177 6393   4.730   4.049   4.278  0.4316  0.6290 -2.0442
   29MOL   C178 6394   4.654   4.235   4.228  0.6199  0.2482 -0.0965
   29MOL   C179 6395   4.573   4.278   4.348 -0.8455 -0.0259 -0.2323
   29MOL   O180 6396   4.544   4.201   4.437 -0.0854  0.0334  0.3474
   29MOL   C181 6397   4.519   4.420   4.364  0.1281 -0.1797 -0.7336
   29MOL   C182 6398   4.567   4.160   4.123 -0.3075  0.2029 -0.9564
   29MOL   H183 6399   4.693   4.330   4.190  2.3010 -0.8888 -1.3351
   29MOL   H184 6400   4.437   4.416   4.436  1.2778 -0.1244  0.5925
   29MOL   H185 6401   4.597   4.481   4.408 -1.4312  0.6487  0.9805
   29MOL   H186 6402   4.477   4.462   4.273 -1.0085  1.5869  0.5578
   29MOL   H187 6403   4.489   4.093   4.162 -0.4091  1.8436  1.7953
   29MOL   H188 6404   4.629   4.090   4.066  2.1480  3.1502 -2.0031
   29MOL   C189 6405   4.500   4.255   4.023  0.0034 -0.2590 -0.6052
   29MOL   C190 6406   4.345   4.245   4.016  0.0742  0.2470  1.3931
   29MOL   O191 6407   4.297   4.153   3.948  0.1728  0.3041 -0.2636
   29MOL   C192 6408   4.264   4.355   4.083  0.4473 -0.4499 -0.1842
   29MOL   C193 6409   4.561   4.231   3.878  0.0013 -0.4801 -0.0720
   29MOL   H194 6410   4.519   4.359   4.050  1.8377 -1.1040  1.4909
   29MOL   H195 6411   4.321   4.448   4.076  1.3395 -1.0340 -0.8167
   29MOL   H196 6412   4.183   4.368   4.012  0.1634 -2.7114 -0.3021
   29MOL   H197 6413   4.231   4.334   4.185 -0.7422 -1.2137 -0.7242
   29MOL   H198 6414   4.481   4.255   3.808 -1.5747 -2.7654  0.9134
   29MOL   H199 6415   4.570   4.123   3.870 -0.4744 -0.5054 -0.2407
   29MOL   C200 6416   4.695   4.309   3.850 -0.1273 -0.3658  0.1187
   29MOL   C201 6417   4.665   4.459   3.821  0.0316 -0.0765  0.0487
   29MOL   O202 6418   4.612   4.488   3.719 -0.1683 -0.1772  0.1856
   29MOL   C203 6419   4.669   4.551   3.945 -0.7690  0.3646 -0.0643
   29MOL   C204 6420   4.767   4.240   3.727 -0.0526 -0.4028  0.1873
   29MOL   H205 6421   4.757   4.308   3.940 -1.5517  0.6491  1.1278
   29MOL   H206 6422   4.577   4.533   4.001  0.8084  1.1836  2.9228
   29MOL   H207 6423   4.748   4.524   4.016 -2.3890 -0.0004  1.6422
   29MOL   H208 6424   4.671   4.658   3.923  0.2368  0.8606  2.1853
   29MOL   H209 6425   4.690   4.230   3.651 -2.2370 -1.4184  2.4462
   29MOL   H210 6426   4.786   4.137   3.759 -0.6258 -0.1930  1.2223
   29MOL   C211 6427   4.901   4.300   3.674 -0.2856 -0.2432 -0.8859
   29MOL   C212 6428   4.952   4.241   3.536  0.4055 -0.0448 -0.5218
   29MOL   O213 6429   4.896   4.145   3.483 -0.4381 -0.3425  0.1509
   29MOL   C214 6430   5.069   4.315   3.476 -0.4537  0.7342 -0.3563
   29MOL   C215 6431   5.009   4.275   3.778  0.0230  0.2698 -0.3136
   29MOL   H216 6432   4.897   4.408   3.660 -0.6631 -0.2466 -0.8059
   29MOL   H217 6433   5.057   4.403   3.413  1.1959  0.5070 -1.0203
   29MOL   H218 6434   5.157   4.305   3.540 -0.9337 -3.5429 -0.2109
   29MOL   H219 6435   5.105   4.240   3.405 -1.0757 -1.2903  1.4231
   29MOL   H220 6436   5.106   4.321   3.761  0.7248 -1.1151 -0.2083
   29MOL   H221 6437   5.021   4.166   3.781  1.0634  0.3572 -1.0471
   29MOL   H222 6438   4.973   4.306   3.876 -1.1676 -0.4205 -0.5311
   30MOL     C1 6439   0.046   2.540   2.634 -0.1638 -0.0360  0.0064
   30MOL     C2 6440   0.045   2.499   2.487 -0.1663  0.1896 -0.2632
   30MOL     O3 6441   0.109   2.561   2.403  0.0885  0.2711 -0.4185
   30MOL     C4 6442   7.800   2.384   2.447  0.5615  0.7055  0.1122
   30MOL     C5 6443   0.075   2.687   2.661 -0.4071 -0.3020 -0.0417
   30MOL     H6 6444   7.791   2.522   2.680 -0.4662  0.7525 -0.3066
   30MOL     H7 6445   7.722   2.414   2.377 -1.3642  0.3331  2.0708
   30MOL     H8 6446   0.021   2.313   2.393 -0.8164  0.1690 -0.8105
   30MOL     H9 6447   7.749   2.344   2.534  0.2080  0.8243 -0.0364
   30MOL    H10 6448   0.039   2.711   2.761  1.2288  1.4054  0.1603
   30MOL    H11 6449   0.008   2.741   2.593  1.4615 -1.7479 -3.1237
   30MOL    H12 6450   0.117   2.477   2.687 -1.6029 -0.7328  1.1604
   30MOL    C13 6451   0.225   2.723   2.642 -0.3235 -0.5687 -0.0342
   30MOL    C14 6452   0.308   2.673   2.757  0.1453 -0.4212 -0.3677
   30MOL    O15 6453   0.265   2.633   2.867  0.7484  0.3503  0.3041
   30MOL    C16 6454   0.459   2.659   2.726  0.2764  0.0216  0.3705
   30MOL    C17 6455   0.234   2.873   2.634  0.6377 -0.7438  0.0917
   30MOL    H18 6456   0.261   2.673   2.552  0.3812 -0.6330  0.2783
   30MOL    H19 6457   0.483   2.561   2.684  1.2602  0.6072 -0.4619
   30MOL    H20 6458   0.494   2.722   2.644  2.1284  0.1446  1.2350
   30MOL    H21 6459   0.506   2.668   2.824 -1.6301  1.5579  1.1639
   30MOL    H22 6460   0.322   2.914   2.683  0.8937 -1.6541  0.4030
   30MOL    H23 6461   0.144   2.917   2.677  0.5695  0.8112 -1.5598
   30MOL    C24 6462   0.265   2.926   2.489 -0.3023  0.9315 -0.5553
   30MOL    C25 6463   0.395   2.861   2.430  0.6684 -0.1291 -0.2041
   30MOL    O26 6464   0.511   2.886   2.463 -0.2565 -0.4896 -0.0782
   30MOL    C27 6465   0.367   2.777   2.308 -0.4850  0.2010 -0.9183
   30MOL    C28 6466   0.262   3.083   2.486 -0.0817 -0.0554  0.2804
   30MOL    H29 6467   0.194   2.882   2.419 -1.1797  1.4192  0.0174
   30MOL    H30 6468   0.391   2.675   2.340 -2.0895  0.1201  0.0913
   30MOL    H31 6469   0.260   2.768   2.287 -0.7989 -0.9135  1.0256
   30MOL    H32 6470   0.426   2.807   2.222  0.5709  0.2398 -0.1870
   30MOL    H33 6471   0.321   3.120   2.570 -2.1110 -0.6023  1.9931
   30MOL    H34 6472   0.159   3.111   2.509 -0.8368 -0.6210 -2.3070
   30MOL    C35 6473   0.297   3.149   2.346  0.0789  0.4371  0.7140
   30MOL    C36 6474   0.315   3.298   2.351 -0.7668 -0.2898 -0.4184
   30MOL    O37 6475   0.251   3.367   2.434 -0.2888 -0.6344 -0.2147
   30MOL    C38 6476   0.397   3.356   2.244  0.6710 -0.5241 -0.3996
   30MOL    C39 6477   0.205   3.108   2.229  0.5056  0.1982  0.3333
   30MOL    H40 6478   0.395   3.127   2.304  0.1480 -0.9617  1.5854
   30MOL    H41 6479   0.494   3.307   2.233  0.5814 -0.2616 -2.4726
   30MOL    H42 6480   0.334   3.350   2.155  0.0808 -1.2185  0.0649
   30MOL    H43 6481   0.421   3.462   2.260  0.1750 -0.6933  1.6564
   30MOL    H44 6482   0.180   3.004   2.252 -2.2963 -0.2925 -4.3504
   30MOL    H45 6483   0.255   3.109   2.133  2.0532 -0.2945  1.1237
   30MOL    C46 6484   0.064   3.176   2.200 -0.5502 -0.2292 -0.1310
   30MOL    C47 6485   7.817   3.187   2.323 -0.0290 -0.1231  0.2391
   30MOL    O48 6486   7.781   3.081   2.373 -0.0723  0.4500  0.6099
   30MOL    C49 6487   7.773   3.324   2.380 -0.0648  0.6225 -0.1623
   30MOL    C50 6488   7.841   3.095   2.086 -0.2415  0.5076 -0.3305
   30MOL    H51 6489   0.080   3.275   2.158  0.4317 -0.0663  0.6108
   30MOL    H52 6490   0.011   3.390   2.345  0.2603  0.5786  0.4942
   30MOL    H53 6491   7.680   3.356   2.333  0.4895  1.8133 -0.4882
   30MOL    H54 6492   7.778   3.321   2.488 -2.8504 -3.1460 -0.0420
   30MOL    H55 6493   7.828   2.996   2.131  1.0978  0.3228 -0.3069
   30MOL    H56 6494   0.067   3.077   2.003  0.6399  1.3380  0.1889
   30MOL    C57 6495   7.709   3.139   2.029  0.1530 -0.0794  0.6846
   30MOL    C58 6496   7.644   3.025   1.953  0.5543  0.6465  0.8343
   30MOL    O59 6497   7.700   2.965   1.861  0.4659 -0.1693 -0.0306
   30MOL    C60 6498   7.499   2.988   1.985 -0.8939 -1.3720 -0.5201
   30MOL    C61 6499   7.705   3.266   1.936 -0.4611  0.0604  0.1125
   30MOL    H62 6500   7.642   3.163   2.112  0.1564  4.1303 -0.4174
   30MOL    H63 6501   7.431   3.057   1.935 -0.1762 -0.7923 -0.6998
   30MOL    H64 6502   7.473   2.885   1.962  0.0355 -1.9024  0.7578
   30MOL    H65 6503   7.482   2.995   2.093 -0.3019 -0.4341 -0.4879
   30MOL    H66 6504   7.720   3.353   2.000 -1.0845  0.8691 -0.8277
   30MOL    H67 6505   7.601   3.285   1.910 -0.2116 -0.4968 -1.3243
   30MOL    C68 6506   7.811   3.263   1.823  0.2215 -0.3009  0.3920
   30MOL    C69 6507   0.100   3.339   1.856  0.1107 -0.1915 -0.0327
   30MOL    O70 6508   0.105   3.431   1.937 -0.1608 -0.1127 -0.5040
   30MOL    C71 6509   0.227   3.302   1.781 -0.3437  0.3227  0.6258
   30MOL    C72 6510   7.749   3.318   1.692 -0.8704 -0.0427  0.7331
   30MOL    H73 6511   7.834   3.160   1.795 -0.2656 -0.1735 -0.5183
   30MOL    H74 6512   0.255   3.389   1.722 -0.8213  0.3456  0.4268
   30MOL    H75 6513   0.308   3.282   1.851 -0.1997  0.6847  0.5619
   30MOL    H76 6514   0.205   3.217   1.716 -1.0001  0.8041  0.2110
   30MOL    H77 6515   7.754   3.426   1.704 -1.4350  0.2419 -1.3395
   30MOL    H78 6516   7.641   3.302   1.701 -0.6849 -1.4582  0.6542
   30MOL    C79 6517   7.805   3.262   1.557  0.1997 -0.9881 -0.1296
   30MOL    C80 6518   7.746   3.358   1.440  0.3937 -0.0888 -0.3155
   30MOL    O81 6519   7.690   3.463   1.476  0.6831  0.0029  0.1266
   30MOL    C82 6520   7.764   3.328   1.288  0.0655 -0.1562  0.0093
   30MOL    C83 6521   7.768   3.113   1.540 -0.0345  0.5458  0.3076
   30MOL    H84 6522   0.070   3.280   1.567  0.5215 -1.6691 -2.0903
   30MOL    H85 6523   7.761   3.415   1.223 -0.8854  0.5434  0.9670
   30MOL    H86 6524   0.023   3.304   1.254  0.6337  1.8453  0.2072
   30MOL    H87 6525   7.683   3.267   1.251 -1.0302  1.4152 -0.2502
   30MOL    H88 6526   7.703   3.086   1.457  0.9848  1.2385 -0.7329
   30MOL    H89 6527   7.713   3.085   1.630 -0.3772 -0.3464 -0.1718
   30MOL    C90 6528   0.044   3.019   1.530 -0.2434  0.4468 -0.0251
   30MOL    C91 6529   0.124   3.039   1.399 -0.1045 -0.6953 -0.6927
   30MOL    O92 6530   0.065   3.050   1.292  0.1147  0.3460 -0.2314
   30MOL    C93 6531   0.275   3.041   1.417 -0.0311  0.5012  0.4165
   30MOL    C94 6532   7.834   2.874   1.535 -1.2886  0.0099  0.2664
   30MOL    H95 6533   0.109   3.033   1.617  0.9031 -0.4973 -0.7087
   30MOL    H96 6534   0.302   2.968   1.493 -0.4917 -1.3511 -1.1888
   30MOL    H97 6535   0.321   3.017   1.321 -2.7000  0.6780 -0.9476
   30MOL    H98 6536   0.313   3.137   1.454 -0.0415  1.4670 -2.0323
   30MOL    H99 6537   7.817   2.839   1.434  1.8118 -0.2587 -0.2168
   30MOL   H100 6538   7.742   2.876   1.593 -1.5479  0.2538 -0.1629
   30MOL   C101 6539   0.095   2.776   1.603 -0.0529 -0.3794  0.5980
   30MOL   C102 6540   0.066   2.622   1.573 -0.2858  0.3417  0.2304
   30MOL   O103 6541   0.045   2.540   1.663 -1.0669  0.4159  0.1437
   30MOL   C104 6542   0.073   2.578   1.427  0.0998 -0.9381  0.1412
   30MOL   C105 6543   0.110   2.801   1.759  0.3165  0.2465  0.5633
   30MOL   H106 6544   0.194   2.797   1.563 -0.9385  1.5934 -0.6321
   30MOL   H107 6545   0.018   2.639   1.355  0.8134 -1.8335 -1.1743
   30MOL   H108 6546   0.175   2.563   1.392 -0.3690 -0.0595 -1.6397
   30MOL   H109 6547   0.026   2.480   1.425 -1.8598 -0.0225 -0.0968
   30MOL   H110 6548   0.031   2.748   1.813  0.7584 -1.5372 -0.4933
   30MOL   H111 6549   0.101   2.904   1.792 -0.7072 -0.5968  3.0286
   30MOL   C112 6550   0.246   2.746   1.814  0.1384  0.1485 -0.0743
   30MOL   C113 6551   0.221   2.753   1.965 -0.1749 -0.3669 -0.4295
   30MOL   O114 6552   0.217   2.852   2.033  0.3814  0.5438 -0.2767
   30MOL   C115 6553   0.185   2.623   2.033 -0.5621 -0.1214 -0.0255
   30MOL   C116 6554   0.369   2.822   1.767  0.9787  0.2234 -0.2317
   30MOL   H117 6555   0.258   2.643   1.781  1.3251  0.7957 -1.6923
   30MOL   H118 6556   0.154   2.625   2.137  1.1246 -0.6521  0.5121
   30MOL   H119 6557   0.119   2.566   1.968 -0.1772 -0.7051  0.0867
   30MOL   H120 6558   0.270   2.556   2.042  0.8093  1.6583  0.6403
   30MOL   H121 6559   0.407   2.881   1.851  1.6054  0.2313 -0.5173
   30MOL   H122 6560   0.331   2.902   1.703 -2.0974  0.5879  1.9206
   30MOL   C123 6561   0.493   2.748   1.701 -0.4293  0.0522  0.1605
   30MOL   C124 6562   0.571   2.666   1.799  0.3680 -0.0303  0.1598
   30MOL   O125 6563   0.571   2.685   1.926  0.1193 -0.3060 -0.4085
   30MOL   C126 6564   0.652   2.552   1.740 -0.1267  0.5168  0.8076
   30MOL   C127 6565   0.585   2.851   1.626 -0.6105 -0.4179 -0.3178
   30MOL   H128 6566   0.462   2.666   1.636 -0.1292 -1.0010  1.3034
   30MOL   H129 6567   0.732   2.591   1.677  1.3849 -1.2499  1.5848
   30MOL   H130 6568   0.690   2.484   1.816  2.5725 -1.4668 -2.1982
   30MOL   H131 6569   0.582   2.494   1.680  1.3397  1.2802 -1.6701
   30MOL   H132 6570   0.543   2.895   1.537 -1.6898  2.4769  1.5500
   30MOL   H133 6571   0.671   2.794   1.591  0.6954  0.3510  1.5249
   30MOL   C134 6572   0.639   2.956   1.726 -0.5431 -0.0132  0.1570
   30MOL   C135 6573   0.559   3.087   1.731 -0.7557 -0.5407 -0.4285
   30MOL   O136 6574   0.466   3.117   1.652 -0.2425  0.4970 -0.2108
   30MOL   C137 6575   0.608   3.195   1.826  0.2238  0.1282  0.0879
   30MOL   C138 6576   0.784   2.994   1.691  0.0518  0.0841 -0.0614
   30MOL   H139 6577   0.645   2.922   1.830  0.8018  0.5212  0.2643
   30MOL   H140 6578   0.518   3.229   1.878 -0.8852 -0.6639 -1.2490
   30MOL   H141 6579   0.687   3.176   1.898  0.0169 -2.4073 -0.3209
   30MOL   H142 6580   0.652   3.280   1.773  2.2038  0.1305  1.7174
   30MOL   H143 6581   0.848   2.906   1.680 -0.8343 -0.2018 -3.3925
   30MOL   H144 6582   0.825   3.042   1.781 -0.2027  0.2003 -0.0082
   30MOL   C145 6583   0.816   3.100   1.577 -0.5540 -0.2228 -0.1630
   30MOL   C146 6584   0.771   3.049   1.444  0.0376 -0.4341  0.8244
   30MOL   O147 6585   0.715   3.130   1.374  0.5940 -0.0131  0.1313
   30MOL   C148 6586   0.829   2.921   1.382 -0.4633 -0.4575  0.0768
   30MOL   C149 6587   0.962   3.137   1.566  0.0130  0.0602  0.2882
   30MOL   H150 6588   0.766   3.194   1.600 -1.5499 -1.0239  1.0206
   30MOL   H151 6589   0.803   2.826   1.428 -0.9531 -1.0428 -1.3616
   30MOL   H152 6590   0.783   2.925   1.283 -1.0013  0.4554  0.3618
   30MOL   H153 6591   0.937   2.918   1.368 -0.3084 -0.2588  1.1750
   30MOL   H154 6592   0.985   3.181   1.468 -2.6213  2.2115  0.5596
   30MOL   H155 6593   1.029   3.051   1.568 -0.2186 -0.1631 -0.9002
   30MOL   C156 6594   1.003   3.244   1.671  0.0828  0.3645  0.9403
   30MOL   C157 6595   1.063   3.366   1.596  0.8281 -0.1634  1.0883
   30MOL   O158 6596   1.184   3.401   1.604  0.2137 -0.2788  0.7641
   30MOL   C159 6597   0.962   3.445   1.510 -0.0499  0.1694 -0.6058
   30MOL   C160 6598   1.091   3.183   1.779  0.6044  0.0363  0.7561
   30MOL   H161 6599   0.911   3.279   1.720  0.8710 -0.7754  3.3107
   30MOL   H162 6600   0.860   3.441   1.548 -1.1426 -2.4466 -3.6288
   30MOL   H163 6601   0.982   3.552   1.499  0.1296  0.1305 -0.6596
   30MOL   H164 6602   0.973   3.405   1.409 -1.7741  1.1639 -1.2120
   30MOL   H165 6603   1.174   3.137   1.725 -1.3014 -1.8503 -0.6763
   30MOL   H166 6604   1.049   3.095   1.827 -0.2912 -1.3815 -2.4739
   30MOL   C167 6605   1.138   3.277   1.888 -0.6501 -0.4729 -0.9278
   30MOL   C168 6606   1.267   3.221   1.960  0.2089  0.0128  0.2673
   30MOL   O169 6607   1.271   3.115   2.024 -0.0645  1.0331 -0.0206
   30MOL   C170 6608   1.402   3.300   1.942  0.3921  0.3615 -0.5633
   30MOL   C171 6609   1.022   3.304   1.987  0.4739  0.8459  0.1241
   30MOL   H172 6610   1.168   3.373   1.846 -3.2650  0.4819 -0.6663
   30MOL   H173 6611   1.489   3.233   1.945  0.5618  0.6328  0.8519
   30MOL   H174 6612   1.409   3.346   1.843  0.1346  1.7159  0.0528
   30MOL   H175 6613   1.413   3.373   2.021  1.7517  0.7150 -1.0564
   30MOL   H176 6614   0.991   3.217   2.045 -1.3381 -0.4775 -2.7418
   30MOL   H177 6615   0.931   3.330   1.934 -0.7327 -0.6699  1.4174
   30MOL   C178 6616   1.032   3.426   2.086  0.4005  0.3993  0.7565
   30MOL   C179 6617   1.145   3.433   2.183  0.1143  0.6039 -0.5992
   30MOL   O180 6618   1.224   3.527   2.183  0.2528  0.0179 -0.3243
   30MOL   C181 6619   1.156   3.316   2.283 -0.2312 -0.5620 -0.0672
   30MOL   C182 6620   0.888   3.455   2.148 -0.4334  0.2479  0.4546
   30MOL   H183 6621   1.048   3.517   2.028 -3.5754  1.2915  0.8965
   30MOL   H184 6622   1.235   3.322   2.359 -1.0168 -3.4954  1.0250
   30MOL   H185 6623   1.064   3.282   2.330 -0.2505 -1.9226 -1.0621
   30MOL   H186 6624   1.182   3.229   2.223  1.4622 -0.4471  0.4479
   30MOL   H187 6625   0.852   3.363   2.195  1.4837 -0.5462  0.3955
   30MOL   H188 6626   0.816   3.478   2.069  0.9242  2.0921 -0.2614
   30MOL   C189 6627   0.883   3.564   2.251 -0.1605  0.2107 -1.0692
   30MOL   C190 6628   0.899   3.530   2.400  0.2731  0.3164  0.4229
   30MOL   O191 6629   0.884   3.420   2.448 -0.2250 -0.2530  0.2156
   30MOL   C192 6630   0.932   3.640   2.498  0.0047 -0.2916 -0.0794
   30MOL   C193 6631   0.757   3.651   2.224 -0.1843 -0.5045 -0.8528
   30MOL   H194 6632   0.971   3.625   2.233 -0.2452  1.6298  2.8767
   30MOL   H195 6633   1.022   3.686   2.457  0.2430 -0.6116  0.0808
   30MOL   H196 6634   0.853   3.711   2.520  2.7348  2.4714  1.2741
   30MOL   H197 6635   0.969   3.596   2.591  0.3790  0.3923  0.1009
   30MOL   H198 6636   0.736   3.704   2.316 -0.4656  2.2197 -2.4303
   30MOL   H199 6637   0.668   3.589   2.210 -1.0377  0.5734 -0.2744
   30MOL   C200 6638   0.758   3.754   2.105 -0.6027 -1.0209 -0.0657
   30MOL   C201 6639   0.834   3.882   2.141 -0.4712 -0.3859  0.0114
   30MOL   O202 6640   0.835   3.931   2.254  0.9944  0.5160  0.1071
   30MOL   C203 6641   0.916   3.946   2.030 -0.1184  0.2699 -0.5786
   30MOL   C204 6642   0.616   3.792   2.068  0.5526  0.6241 -0.2174
   30MOL   H205 6643   0.800   3.713   2.013  0.8465  0.1472  0.0717
   30MOL   H206 6644   0.850   3.935   1.944  1.6839 -2.7606 -1.6233
   30MOL   H207 6645   0.928   4.053   2.046  0.7067 -0.5500  5.0715
   30MOL   H208 6646   1.019   3.910   2.025 -0.6940 -2.0586  2.7027
   30MOL   H209 6647   0.627   3.886   2.013  0.1924  0.6294 -0.2827
   30MOL   H210 6648   0.563   3.813   2.160  0.1421 -2.1881  0.2236
   30MOL   C211 6649   0.547   3.681   1.983 -0.5215 -0.0378 -0.7983
   30MOL   C212 6650   0.621   3.637   1.858  0.3312  0.3925  0.0916
   30MOL   O213 6651   0.653   3.520   1.839  0.0426 -0.2925 -0.3668
   30MOL   C214 6652   0.659   3.747   1.757 -0.2837 -0.5939 -0.0053
   30MOL   C215 6653   0.395   3.715   1.957  0.3311 -0.3339  0.4550
   30MOL   H216 6654   0.551   3.595   2.050 -0.6782 -1.0627 -2.0807
   30MOL   H217 6655   0.634   3.713   1.656 -1.5400 -1.7773  0.6981
   30MOL   H218 6656   0.621   3.846   1.781  1.5140  0.6536 -2.0081
   30MOL   H219 6657   0.767   3.765   1.766 -0.4643  1.9570 -2.2633
   30MOL   H220 6658   0.384   3.823   1.967 -2.3662 -0.5827  0.4461
   30MOL   H221 6659   0.326   3.655   2.017 -1.2373 -2.5889 -3.3787
   30MOL   H222 6660   0.379   3.688   1.852  0.2099 -1.6708  0.8024
   31MOL     C1 6661   3.377   4.720   2.204  0.0554  0.0534 -0.0466
   31MOL     C2 6662   3.508   4.675   2.272 -0.2271 -0.6683  0.1604
   31MOL     O3 6663   3.526   4.677   2.389  0.0150 -0.2087 -0.1843
   31MOL     C4 6664   3.610   4.617   2.178  0.3486 -0.3643 -0.7355
   31MOL     C5 6665   3.247   4.694   2.286  0.0869  0.0390  0.2887
   31MOL     H6 6666   3.387   4.828   2.188  0.4808 -0.0420 -0.4326
   31MOL     H7 6667   3.581   4.528   2.122  0.3543 -2.6015  2.6712
   31MOL     H8 6668   3.650   4.691   2.108  1.2997 -1.3315 -1.2287
   31MOL     H9 6669   3.700   4.584   2.230  1.8300  0.0597 -2.9617
   31MOL    H10 6670   3.172   4.749   2.229  1.6509 -0.8392 -2.7481
   31MOL    H11 6671   3.269   4.746   2.379 -0.5295 -4.2899  2.9933
   31MOL    H12 6672   3.374   4.680   2.103  0.8987 -3.1384  1.1589
   31MOL    C13 6673   3.209   4.554   2.319  0.3838 -0.3115 -0.3514
   31MOL    C14 6674   3.199   4.472   2.191  0.1386  0.3043 -0.2520
   31MOL    O15 6675   3.138   4.513   2.096 -0.2146  0.3369 -0.5680
   31MOL    C16 6676   3.260   4.333   2.188 -0.6632  0.2508 -0.0741
   31MOL    C17 6677   3.073   4.554   2.404 -0.2570 -0.3712  0.2148
   31MOL    H18 6678   3.293   4.514   2.376  0.7396  1.0728  0.0967
   31MOL    H19 6679   3.214   4.277   2.107  0.4178 -1.0743  0.2055
   31MOL    H20 6680   3.366   4.353   2.168 -0.7666  0.5340 -0.3470
   31MOL    H21 6681   3.248   4.274   2.279  0.6199  0.3595  0.1859
   31MOL    H22 6682   3.001   4.610   2.345 -1.4514 -1.2379  0.8160
   31MOL    H23 6683   3.089   4.617   2.491 -0.8161  0.3256 -0.1770
   31MOL    C24 6684   3.009   4.413   2.436 -0.0351 -0.0007 -0.0859
   31MOL    C25 6685   2.861   4.430   2.482 -0.6904  0.0096 -0.6612
   31MOL    O26 6686   2.828   4.508   2.574  0.6141  0.4290 -0.0060
   31MOL    C27 6687   2.760   4.341   2.418  0.8388 -0.0761  0.5642
   31MOL    C28 6688   3.093   4.326   2.535  0.2484 -0.0414 -0.3215
   31MOL    H29 6689   3.011   4.351   2.346 -0.3147 -1.3462  0.8242
   31MOL    H30 6690   2.685   4.405   2.372 -2.7429 -2.7708  2.3502
   31MOL    H31 6691   2.805   4.277   2.342  2.1608  0.7594  0.6358
   31MOL    H32 6692   2.724   4.291   2.509  0.6769 -2.2572 -0.6619
   31MOL    H33 6693   3.086   4.375   2.633 -0.8551 -0.2258 -0.3116
   31MOL    H34 6694   3.201   4.321   2.516 -0.1065  1.4241 -2.7731
   31MOL    C35 6695   3.038   4.177   2.546  0.0790 -0.5183 -0.1576
   31MOL    C36 6696   3.039   4.129   2.693 -1.0793  0.4163  0.5292
   31MOL    O37 6697   3.120   4.045   2.725  0.1877 -0.4869 -0.1790
   31MOL    C38 6698   2.936   4.187   2.791  0.0050 -0.6533  0.9380
   31MOL    C39 6699   3.113   4.084   2.442  0.1058 -0.2870 -0.0712
   31MOL    H40 6700   2.930   4.176   2.529 -0.1355  1.1936  0.9203
   31MOL    H41 6701   2.963   4.288   2.823 -0.5135 -1.4978  4.2502
   31MOL    H42 6702   2.840   4.195   2.740  2.4025 -0.0018 -3.7420
   31MOL    H43 6703   2.922   4.126   2.880  0.2607 -0.1109  1.3582
   31MOL    H44 6704   3.217   4.081   2.472  1.3121  1.6497 -3.7589
   31MOL    H45 6705   3.115   4.134   2.345  1.1606  0.6946  0.4319
   31MOL    C46 6706   3.065   3.939   2.429  0.4784  0.3878 -0.2925
   31MOL    C47 6707   3.194   3.870   2.372 -0.5629 -0.6518  0.2607
   31MOL    O48 6708   3.255   3.912   2.273 -0.3224 -0.3744 -0.1118
   31MOL    C49 6709   3.224   3.736   2.433 -0.0609 -0.1812 -0.1047
   31MOL    C50 6710   2.955   3.913   2.321 -0.2134  0.4432 -0.4382
   31MOL    H51 6711   3.028   3.911   2.527 -4.7259  1.0597 -1.9476
   31MOL    H52 6712   3.294   3.741   2.517 -1.1615 -0.5140  0.8479
   31MOL    H53 6713   3.134   3.695   2.480  1.1335 -2.0524  0.5833
   31MOL    H54 6714   3.266   3.673   2.355  0.5423  0.0153  0.0579
   31MOL    H55 6715   2.994   3.873   2.227 -2.8803 -1.6493 -0.7209
   31MOL    H56 6716   2.906   4.004   2.285 -1.3711 -0.5543 -1.4665
   31MOL    C57 6717   2.835   3.828   2.373  0.8224  0.2078 -0.9149
   31MOL    C58 6718   2.750   3.884   2.491 -0.3174 -0.0659 -0.4114
   31MOL    O59 6719   2.811   3.945   2.584  0.1143 -0.8879 -0.2764
   31MOL    C60 6720   2.607   3.849   2.511  0.2763 -0.2625 -0.0293
   31MOL    C61 6721   2.864   3.678   2.387  0.6707  0.8234  0.6999
   31MOL    H62 6722   2.755   3.832   2.299 -0.7736  0.7716  0.7912
   31MOL    H63 6723   2.581   3.744   2.498 -0.6958  0.0577 -0.6996
   31MOL    H64 6724   2.561   3.886   2.603 -0.5027 -2.2404  0.3924
   31MOL    H65 6725   2.559   3.900   2.428 -0.0542 -2.3212 -1.1222
   31MOL    H66 6726   2.772   3.636   2.426  0.4025  1.0552  0.3224
   31MOL    H67 6727   2.936   3.661   2.467  0.7461 -2.1618  0.0526
   31MOL    C68 6728   2.890   3.609   2.252  0.0930  0.8338 -0.0001
   31MOL    C69 6729   2.761   3.575   2.169 -0.5160 -0.6562  0.1000
   31MOL    O70 6730   2.648   3.572   2.223  0.0632 -0.0507  0.2791
   31MOL    C71 6731   2.772   3.570   2.017 -0.6990  0.2130 -0.2531
   31MOL    C72 6732   2.985   3.488   2.270 -0.3356 -0.0689 -0.1722
   31MOL    H73 6733   2.943   3.676   2.185 -0.2247  1.6932  0.5918
   31MOL    H74 6734   2.808   3.469   1.998 -0.6408  0.2806 -0.5023
   31MOL    H75 6735   2.670   3.577   1.980 -1.6463 -0.1725  2.1990
   31MOL    H76 6736   2.851   3.632   1.975  1.9376 -0.8546  2.9214
   31MOL    H77 6737   3.075   3.528   2.317 -0.6466  0.3199  0.1015
   31MOL    H78 6738   3.023   3.460   2.172  1.0676 -1.1685  0.6744
   31MOL    C79 6739   2.919   3.368   2.352 -1.0444  0.4801  0.5597
   31MOL    C80 6740   2.962   3.371   2.498 -0.0595 -0.6836 -0.4902
   31MOL    O81 6741   3.081   3.374   2.533 -0.1450 -0.3363 -0.2098
   31MOL    C82 6742   2.848   3.391   2.600 -0.0038  0.0377 -0.2253
   31MOL    C83 6743   2.969   3.236   2.286  0.0339  0.6131  0.4436
   31MOL    H84 6744   2.810   3.363   2.353 -1.0547  0.5792  0.0346
   31MOL    H85 6745   2.883   3.417   2.700 -0.5370 -1.3750  0.3400
   31MOL    H86 6746   2.767   3.460   2.578 -0.2491  0.3612  1.6222
   31MOL    H87 6747   2.796   3.296   2.604  0.8526 -0.4644 -0.9589
   31MOL    H88 6748   3.078   3.241   2.281 -0.0434  1.3033 -0.5262
   31MOL    H89 6749   2.933   3.234   2.183  1.7836 -0.4280 -0.1771
   31MOL    C90 6750   2.914   3.108   2.350 -0.0891  0.1321 -0.3276
   31MOL    C91 6751   3.026   3.007   2.319 -0.0053  0.1390  0.2126
   31MOL    O92 6752   3.016   2.911   2.238 -0.2125 -0.4483  0.0833
   31MOL    C93 6753   3.150   3.019   2.407 -0.2731 -0.3071  0.9826
   31MOL    C94 6754   2.782   3.079   2.291  0.3136  0.0674 -0.3074
   31MOL    H95 6755   2.911   3.125   2.458  1.2743  2.6879 -0.6487
   31MOL    H96 6756   3.221   3.093   2.369 -0.9312 -0.6946 -1.0693
   31MOL    H97 6757   3.140   3.018   2.515  0.3122  1.2393  1.0673
   31MOL    H98 6758   3.209   2.929   2.390 -2.3588 -1.4716 -0.2593
   31MOL    H99 6759   2.799   3.062   2.185 -1.1429 -0.5358 -0.4544
   31MOL   H100 6760   2.723   3.170   2.283  0.2778  0.0988  0.2962
   31MOL   C101 6761   2.691   2.970   2.348  0.2486  0.0222 -0.0529
   31MOL   C102 6762   2.703   2.835   2.275 -0.3321  0.2629  0.4754
   31MOL   O103 6763   2.654   2.813   2.167 -0.7405 -0.3062 -0.1651
   31MOL   C104 6764   2.788   2.726   2.333 -0.0595 -0.0108 -0.3348
   31MOL   C105 6765   2.543   3.010   2.322  0.2730 -0.4645  0.1803
   31MOL   H106 6766   2.715   2.950   2.452 -0.5375 -0.4235  0.0492
   31MOL   H107 6767   2.730   2.640   2.366  1.6713 -1.6052 -1.3311
   31MOL   H108 6768   2.865   2.696   2.262  1.0108  1.0762  0.3440
   31MOL   H109 6769   2.824   2.772   2.425  0.0505  2.4228 -1.5487
   31MOL   H110 6770   2.469   2.932   2.339 -0.9250  0.8766  1.2427
   31MOL   H111 6771   2.521   3.033   2.218 -0.4960  0.7145  0.5822
   31MOL   C112 6772   2.494   3.133   2.403  0.0713  0.0685 -0.4751
   31MOL   C113 6773   2.498   3.118   2.557 -0.1095 -0.1276 -0.3876
   31MOL   O114 6774   2.483   3.008   2.611 -0.1693 -0.2077 -0.5404
   31MOL   C115 6775   2.518   3.239   2.648  0.0057  0.4724  0.9192
   31MOL   C116 6776   2.353   3.174   2.360 -0.1589  0.2445  0.1171
   31MOL   H117 6777   2.562   3.217   2.389  1.5959 -1.1895 -0.7568
   31MOL   H118 6778   2.568   3.205   2.739  0.8445 -2.4164 -0.5645
   31MOL   H119 6779   2.580   3.313   2.598 -0.0712  0.5470  0.9341
   31MOL   H120 6780   2.420   3.284   2.665  0.0378  0.4775  1.0934
   31MOL   H121 6781   2.286   3.191   2.444 -1.6445  0.4473 -1.0992
   31MOL   H122 6782   2.298   3.095   2.311 -1.5212  0.2545  1.5905
   31MOL   C123 6783   2.353   3.296   2.267  0.6424 -0.1111 -0.6294
   31MOL   C124 6784   2.417   3.291   2.130 -0.0611 -0.2553 -0.8589
   31MOL   O125 6785   2.534   3.257   2.122 -0.1989 -0.0584 -0.1385
   31MOL   C126 6786   2.337   3.346   2.009 -0.5876  0.8659 -0.0693
   31MOL   C127 6787   2.380   3.435   2.332 -0.3349 -0.0258 -0.3021
   31MOL   H128 6788   2.250   3.313   2.233  0.4838 -0.1808 -0.1828
   31MOL   H129 6789   2.257   3.274   1.988  0.1654 -1.3312  3.8891
   31MOL   H130 6790   2.291   3.444   2.022 -1.0436  0.8020 -1.1508
   31MOL   H131 6791   2.406   3.363   1.926  1.0075 -1.0747  0.8058
   31MOL   H132 6792   2.391   3.505   2.249  1.5636 -0.1365 -0.1573
   31MOL   H133 6793   2.475   3.424   2.383 -0.2864 -2.9292 -0.9436
   31MOL   C134 6794   2.271   3.486   2.427 -0.1988 -0.2313  0.1277
   31MOL   C135 6795   2.143   3.536   2.354  0.5300 -1.2041 -0.8964
   31MOL   O136 6796   2.140   3.645   2.302  0.2364  0.0154 -0.2025
   31MOL   C137 6797   2.013   3.453   2.367 -0.6825 -0.0890 -0.1558
   31MOL   C138 6798   2.327   3.604   2.511 -0.0369  0.1259  0.4853
   31MOL   H139 6799   2.253   3.395   2.484 -0.5075 -0.6281 -0.5988
   31MOL   H140 6800   1.945   3.495   2.293 -1.0101 -0.2614  0.0461
   31MOL   H141 6801   2.025   3.347   2.347  1.6946  0.0762  0.2826
   31MOL   H142 6802   1.983   3.479   2.468 -0.5113  1.4350 -0.4920
   31MOL   H143 6803   2.381   3.667   2.441  0.8287  1.6037  2.4104
   31MOL   H144 6804   2.386   3.551   2.586 -2.1270 -1.2122  1.2281
   31MOL   C145 6805   2.237   3.699   2.597 -0.2626 -0.1749 -0.2967
   31MOL   C146 6806   2.286   3.844   2.604 -0.4478  0.1679 -0.2657
   31MOL   O147 6807   2.306   3.904   2.712 -0.3423  0.7019 -0.0841
   31MOL   C148 6808   2.303   3.920   2.473  0.4968  0.1940 -0.5055
   31MOL   C149 6809   2.218   3.639   2.746 -1.1705 -0.0161  0.2848
   31MOL   H150 6810   2.136   3.707   2.559 -0.3973 -0.4704 -0.0009
   31MOL   H151 6811   2.213   3.973   2.442  0.3920  0.4532  0.2281
   31MOL   H152 6812   2.386   3.990   2.483 -0.6472  1.2652  2.0334
   31MOL   H153 6813   2.334   3.862   2.386  2.3835  0.5315 -0.0787
   31MOL   H154 6814   2.305   3.676   2.801  0.3312 -0.2057 -1.8959
   31MOL   H155 6815   2.234   3.532   2.746 -0.8631  0.0283  0.0692
   31MOL   C156 6816   2.087   3.681   2.812 -0.2689  0.1556 -0.9255
   31MOL   C157 6817   2.096   3.669   2.965  0.4838  0.3992  0.0389
   31MOL   O158 6818   2.174   3.588   3.020  0.3268  0.3052 -0.1222
   31MOL   C159 6819   1.988   3.733   3.049 -0.3614 -0.5159 -0.2895
   31MOL   C160 6820   1.962   3.616   2.752 -0.1360  0.6034 -0.5341
   31MOL   H161 6821   2.071   3.789   2.809  1.2289  0.4372  0.3761
   31MOL   H162 6822   2.017   3.773   3.146 -1.1401  2.2207 -1.1489
   31MOL   H163 6823   1.940   3.806   2.984 -0.2796  0.6655  0.9413
   31MOL   H164 6824   1.911   3.659   3.072  0.2574 -0.6475  1.4523
   31MOL   H165 6825   1.962   3.607   2.643  1.0623 -1.1281 -0.4195
   31MOL   H166 6826   1.889   3.690   2.783 -0.8913 -0.7104  0.9094
   31MOL   C167 6827   1.922   3.479   2.814  0.1358 -0.1578 -0.2529
   31MOL   C168 6828   2.029   3.371   2.783 -0.0850  0.3572 -0.3574
   31MOL   O169 6829   2.069   3.351   2.671  0.0433 -0.5056  0.0088
   31MOL   C170 6830   2.090   3.291   2.899 -0.0562 -0.4391 -0.5410
   31MOL   C171 6831   1.790   3.437   2.756 -0.0342 -0.6453 -0.3520
   31MOL   H172 6832   1.914   3.473   2.922 -1.9793  1.3638 -0.2843
   31MOL   H173 6833   2.149   3.205   2.866  0.9971  0.1035 -0.0886
   31MOL   H174 6834   2.156   3.351   2.962 -1.4984  0.0502  0.5484
   31MOL   H175 6835   2.003   3.260   2.957 -1.0732  2.2079 -0.5820
   31MOL   H176 6836   1.766   3.336   2.790 -0.3354  0.0665  1.6399
   31MOL   H177 6837   1.794   3.430   2.647 -0.6945 -0.4483 -0.3940
   31MOL   C178 6838   1.670   3.529   2.799 -0.3932  0.4233  0.6769
   31MOL   C179 6839   1.654   3.540   2.948  0.0687 -0.2230 -0.1957
   31MOL   O180 6840   1.647   3.645   3.005 -0.0320  0.0402  0.2197
   31MOL   C181 6841   1.650   3.415   3.037 -0.4776 -0.0811  0.3513
   31MOL   C182 6842   1.525   3.496   2.734 -0.3496  0.5311 -0.4559
   31MOL   H183 6843   1.682   3.634   2.771 -2.6252  0.4111 -0.4134
   31MOL   H184 6844   1.572   3.358   2.986 -0.6200  1.2103 -0.9097
   31MOL   H185 6845   1.743   3.358   3.028  0.1482  1.3426 -3.2628
   31MOL   H186 6846   1.637   3.455   3.137 -0.0728  1.8351 -0.3400
   31MOL   H187 6847   1.451   3.475   2.810  1.0127  2.2437  1.3941
   31MOL   H188 6848   1.542   3.408   2.671 -0.1476  1.0654 -1.1577
   31MOL   C189 6849   1.472   3.602   2.634 -0.1636 -0.5520  0.4344
   31MOL   C190 6850   1.327   3.645   2.675  0.1412 -0.5465  0.5100
   31MOL   O191 6851   1.223   3.594   2.639  0.1479 -0.3763 -0.1093
   31MOL   C192 6852   1.316   3.761   2.774 -0.0539 -0.1919 -0.2026
   31MOL   C193 6853   1.467   3.555   2.481 -0.0679  0.5435 -0.6813
   31MOL   H194 6854   1.534   3.691   2.640  0.4460 -0.8986 -0.6136
   31MOL   H195 6855   1.217   3.808   2.783 -0.6884 -1.1503 -1.9070
   31MOL   H196 6856   1.366   3.730   2.866  0.7450 -0.7221 -0.8204
   31MOL   H197 6857   1.378   3.835   2.724 -1.6264  0.2346 -1.5604
   31MOL   H198 6858   1.410   3.630   2.426 -0.8803 -0.1739 -0.8272
   31MOL   H199 6859   1.407   3.466   2.496  0.8414 -0.2379 -1.5927
   31MOL   C200 6860   1.597   3.506   2.415 -0.3820  0.0484  0.1705
   31MOL   C201 6861   1.668   3.622   2.346 -0.9387 -1.3576  0.3327
   31MOL   O202 6862   1.774   3.658   2.399 -0.6096 -0.0069 -0.2448
   31MOL   C203 6863   1.615   3.691   2.219  0.2997  0.1551  0.2745
   31MOL   C204 6864   1.572   3.391   2.316  0.4690  0.4388 -0.5190
   31MOL   H205 6865   1.666   3.482   2.496  0.1192  1.2576  0.1131
   31MOL   H206 6866   1.510   3.718   2.227  0.2567 -0.0728  0.4975
   31MOL   H207 6867   1.677   3.778   2.196  0.7135  0.5114  2.5837
   31MOL   H208 6868   1.628   3.621   2.136 -1.4218 -0.0953  0.2108
   31MOL   H209 6869   1.665   3.371   2.262  0.7458  0.4463 -0.0480
   31MOL   H210 6870   1.498   3.418   2.241 -1.3679 -0.0223  1.1081
   31MOL   C211 6871   1.537   3.257   2.389  0.6392 -0.4866 -0.2622
   31MOL   C212 6872   1.652   3.188   2.465 -0.0320 -0.3633 -1.1375
   31MOL   O213 6873   1.770   3.220   2.462 -0.3494 -0.0734  0.3204
   31MOL   C214 6874   1.619   3.065   2.552 -0.0834  0.2666  0.0304
   31MOL   C215 6875   1.477   3.155   2.288  0.2455  0.4011 -0.2516
   31MOL   H216 6876   1.457   3.276   2.461  2.0024  0.7497  0.9768
   31MOL   H217 6877   1.642   3.081   2.657  0.5646 -1.9441  0.2520
   31MOL   H218 6878   1.517   3.028   2.547  0.2534 -0.8229  0.9111
   31MOL   H219 6879   1.672   2.974   2.522 -0.3517  1.0265 -2.9642
   31MOL   H220 6880   1.544   3.129   2.206 -0.1100  1.0557 -0.7575
   31MOL   H221 6881   1.395   3.204   2.236 -0.8300 -0.2240  0.8467
   31MOL   H222 6882   1.451   3.064   2.342 -1.3568 -0.3107 -2.1325
   32MOL     C1 6883   1.518   4.379   3.309 -0.0503  0.0461 -0.5063
   32MOL     C2 6884   1.496   4.289   3.428 -0.0819 -1.5949 -0.2523
   32MOL     O3 6885   1.541   4.316   3.536 -0.0180 -0.3999  0.1735
   32MOL     C4 6886   1.398   4.171   3.415  0.3442 -0.4737 -0.6915
   32MOL     C5 6887   1.659   4.443   3.291  0.0548  0.4447 -0.0552
   32MOL     H6 6888   1.513   4.315   3.220 -0.3486 -1.2412  0.4174
   32MOL     H7 6889   1.381   4.106   3.500 -0.6770  0.9531  0.2226
   32MOL     H8 6890   1.303   4.218   3.391 -1.4536 -3.4094  0.3764
   32MOL     H9 6891   1.425   4.117   3.324  0.1903 -0.4161 -0.7722
   32MOL    H10 6892   1.685   4.444   3.185 -1.9845  1.4563 -0.5605
   32MOL    H11 6893   1.733   4.383   3.345 -0.8657 -2.2149 -1.6520
   32MOL    H12 6894   1.442   4.455   3.294 -0.1676 -0.1706 -1.0455
   32MOL    C13 6895   1.668   4.590   3.346  0.1630  0.7371 -0.7833
   32MOL    C14 6896   1.585   4.678   3.254  1.4501 -0.3471 -0.4774
   32MOL    O15 6897   1.623   4.695   3.135  0.4669  0.0962  0.7045
   32MOL    C16 6898   1.450   4.739   3.295  0.2641 -0.5268 -0.6669
   32MOL    C17 6899   1.822   4.640   3.350 -0.1567  0.1450 -0.0484
   32MOL    H18 6900   1.615   4.590   3.441 -1.6334 -1.5776 -1.7363
   32MOL    H19 6901   1.366   4.699   3.238  0.4887  1.4350 -2.4281
   32MOL    H20 6902   1.441   4.716   3.401  1.4848  0.3993 -0.3440
   32MOL    H21 6903   1.453   4.848   3.297  0.5141 -0.5283 -0.9116
   32MOL    H22 6904   1.860   4.645   3.248 -0.5369 -2.4155 -0.3602
   32MOL    H23 6905   1.878   4.556   3.390 -1.2506  0.6065  2.5688
   32MOL    C24 6906   1.844   4.781   3.427 -0.1473 -0.0558 -0.5991
   32MOL    C25 6907   1.984   4.830   3.401  0.7171 -0.3679 -0.2855
   32MOL    O26 6908   1.999   4.949   3.375  0.2805 -0.5078  0.1705
   32MOL    C27 6909   2.093   4.725   3.397 -0.1996  0.3327 -0.1033
   32MOL    C28 6910   1.815   4.770   3.581 -0.1678  0.3888  0.2168
   32MOL    H29 6911   1.777   4.854   3.382  0.8831  1.0741 -0.3308
   32MOL    H30 6912   2.191   4.772   3.410  1.5104 -3.1365  0.1421
   32MOL    H31 6913   2.079   4.647   3.472  1.1671 -0.0523 -0.2353
   32MOL    H32 6914   2.099   4.676   3.300 -1.2947 -0.4718  0.2339
   32MOL    H33 6915   1.898   4.716   3.626 -1.3974  0.2281  2.3588
   32MOL    H34 6916   1.725   4.710   3.589  0.0867 -0.4041 -2.3682
   32MOL    C35 6917   1.779   4.905   3.652 -0.3395 -0.0456 -0.6422
   32MOL    C36 6918   1.765   4.877   3.804 -0.2692 -0.3613  0.1911
   32MOL    O37 6919   1.656   4.879   3.866  0.1852 -0.7205  0.1288
   32MOL    C38 6920   1.897   4.874   3.882  0.1935 -0.0713 -0.3957
   32MOL    C39 6921   1.644   4.952   3.596 -0.1450 -0.1088  0.3088
   32MOL    H40 6922   1.853   4.981   3.631 -0.4394  0.3646  0.4826
   32MOL    H41 6923   1.885   4.877   3.990  0.2597 -1.6159 -0.3223
   32MOL    H42 6924   1.947   4.781   3.854  0.6087 -0.5214  1.7579
   32MOL    H43 6925   1.959   4.958   3.852 -1.2378  0.5456 -1.6398
   32MOL    H44 6926   1.562   4.894   3.639  0.8643 -0.7546  1.4115
   32MOL    H45 6927   1.630   4.936   3.489  2.2667 -0.1103 -0.0437
   32MOL    C46 6928   1.611   5.103   3.629  0.1561  0.0123  0.2348
   32MOL    C47 6929   1.458   5.124   3.640  0.2331 -0.6369  0.3714
   32MOL    O48 6930   1.380   5.069   3.561  0.4640 -0.0110 -0.3805
   32MOL    C49 6931   1.405   5.219   3.743 -0.2376 -0.1175  0.3696
   32MOL    C50 6932   1.681   5.197   3.516  0.1163 -0.1893  0.1200
   32MOL    H51 6933   1.659   5.133   3.722 -0.2729  1.9758 -0.1719
   32MOL    H52 6934   1.331   5.163   3.800 -0.2380 -0.6866 -0.1899
   32MOL    H53 6935   1.472   5.266   3.816  2.5295 -2.2093 -0.7361
   32MOL    H54 6936   1.347   5.291   3.685 -0.0723 -0.9509 -0.8474
   32MOL    H55 6937   1.649   5.173   3.415 -0.4292  1.7444 -0.1895
   32MOL    H56 6938   1.785   5.165   3.505  0.3584  0.4768  0.4574
   32MOL    C57 6939   1.703   5.346   3.535 -0.1000  0.2998  0.4679
   32MOL    C58 6940   1.568   5.423   3.499 -0.0493  0.1130 -0.0094
   32MOL    O59 6941   1.509   5.402   3.393 -0.0766  0.2554 -0.0791
   32MOL    C60 6942   1.512   5.522   3.598  0.2619  0.3921 -0.5248
   32MOL    C61 6943   1.815   5.420   3.452  0.6977 -0.8003  0.2684
   32MOL    H62 6944   1.720   5.355   3.643  0.2338 -0.4974  0.4864
   32MOL    H63 6945   1.429   5.469   3.645 -0.1236  1.2398 -0.2426
   32MOL    H64 6946   1.586   5.556   3.670 -0.9336  2.4589 -0.2239
   32MOL    H65 6947   1.478   5.620   3.565 -1.2043 -0.2978 -1.1093
   32MOL    H66 6948   1.795   5.413   3.345 -0.8747 -0.0648  0.4905
   32MOL    H67 6949   1.907   5.362   3.457  0.1974 -1.8175 -1.9020
   32MOL    C68 6950   1.841   5.569   3.484 -1.1444  0.3118 -0.5434
   32MOL    C69 6951   1.957   5.627   3.394  0.3184 -0.3288 -0.4915
   32MOL    O70 6952   2.073   5.623   3.434 -0.0807  0.1060 -0.5793
   32MOL    C71 6953   1.920   5.697   3.269 -0.0837  0.0517  0.7865
   32MOL    C72 6954   1.885   5.587   3.629  0.3466 -0.5288  0.1342
   32MOL    H73 6955   1.746   5.618   3.462 -0.7137  0.9517 -1.0081
   32MOL    H74 6956   1.843   5.772   3.285  0.1096  0.2901  0.5875
   32MOL    H75 6957   2.001   5.735   3.207 -0.4226 -0.6597 -0.1051
   32MOL    H76 6958   1.864   5.618   3.219  1.7312 -0.8068  0.0465
   32MOL    H77 6959   1.967   5.517   3.647  0.5812 -0.1258  0.6411
   32MOL    H78 6960   1.806   5.542   3.690  1.6526 -0.6587  1.7613
   32MOL    C79 6961   1.908   5.731   3.688 -0.4681 -0.5279  0.2478
   32MOL    C80 6962   1.969   5.722   3.833 -0.0253  0.0215  0.7838
   32MOL    O81 6963   1.905   5.738   3.936 -0.1234 -0.1577  0.3802
   32MOL    C82 6964   2.119   5.707   3.838 -0.6613  0.9543 -0.2679
   32MOL    C83 6965   1.787   5.820   3.676  0.0239  0.4987 -0.4231
   32MOL    H84 6966   1.986   5.764   3.619  0.3072  0.8920  1.7714
   32MOL    H85 6967   2.180   5.767   3.771  1.7760 -1.9891 -0.7904
   32MOL    H86 6968   2.153   5.718   3.940 -1.5549 -0.3364  0.1894
   32MOL    H87 6969   2.145   5.604   3.814 -1.1449  0.5295  1.0020
   32MOL    H88 6970   1.722   5.801   3.762 -0.2342 -1.5251 -1.0348
   32MOL    H89 6971   1.723   5.790   3.593 -1.2639 -0.3898  0.8615
   32MOL    C90 6972   1.817   5.967   3.663  0.4079 -0.4567 -0.2442
   32MOL    C91 6973   1.701   6.052   3.698  0.1924 -0.3482 -0.3029
   32MOL    O92 6974   1.582   6.032   3.670 -0.7663  0.7977  0.6052
   32MOL    C93 6975   1.730   6.171   3.784  0.0155  0.0389  0.7986
   32MOL    C94 6976   1.888   6.010   3.537  0.1354  0.4420 -0.0804
   32MOL    H95 6977   1.905   5.974   3.726  1.0040 -1.8654 -0.9083
   32MOL    H96 6978   1.713   6.265   3.732  1.4068 -0.4134 -0.4882
   32MOL    H97 6979   1.669   6.165   3.875 -0.1138  2.4477  0.9229
   32MOL    H98 6980   1.831   6.170   3.824  0.5551 -0.6244 -0.5570
   32MOL    H99 6981   1.814   5.985   3.460  1.0988 -1.0896 -0.5306
   32MOL   H100 6982   1.952   5.924   3.521  0.9333  0.5881  2.2201
   32MOL   C101 6983   1.966   6.143   3.528  0.4136 -0.5697 -0.2887
   32MOL   C102 6984   1.931   6.213   3.396 -0.2395 -0.3188 -0.3505
   32MOL   O103 6985   1.954   6.152   3.291 -0.3641  0.2933  0.4767
   32MOL   C104 6986   1.856   6.341   3.413 -0.2139  0.0611 -0.5911
   32MOL   C105 6987   2.116   6.123   3.556  0.7449 -0.8691 -0.2669
   32MOL   H106 6988   1.931   6.214   3.603 -0.9310 -0.3281 -1.1353
   32MOL   H107 6989   1.753   6.320   3.442 -0.1066 -2.5260 -1.9555
   32MOL   H108 6990   1.904   6.410   3.483  0.1914  1.3581 -2.1000
   32MOL   H109 6991   1.842   6.401   3.323 -1.3184  2.0796  0.8836
   32MOL   H110 6992   2.151   6.073   3.466 -0.0945 -0.6709 -0.7157
   32MOL   H111 6993   2.117   6.056   3.642 -1.1187  0.7037  1.0576
   32MOL   C112 6994   2.196   6.248   3.619 -0.6545  0.3842  0.2556
   32MOL   C113 6995   2.133   6.303   3.747 -0.4384 -0.6241 -0.0967
   32MOL   O114 6996   2.061   6.402   3.747 -0.2183  0.4445  0.4981
   32MOL   C115 6997   2.172   6.232   3.878  0.3260  0.0535  0.1903
   32MOL   C116 6998   2.212   6.363   3.522 -0.2145 -0.1575  0.2274
   32MOL   H117 6999   2.293   6.211   3.652 -0.4020  2.4248  1.9706
   32MOL   H118 7000   2.265   6.176   3.868 -0.0858 -0.2676 -1.9678
   32MOL   H119 7001   2.181   6.308   3.956  1.2138 -0.4032  0.5448
   32MOL   H120 7002   2.089   6.165   3.897  0.3807 -1.0179 -3.1976
   32MOL   H121 7003   2.225   6.457   3.575 -2.2141  0.3862 -0.2493
   32MOL   H122 7004   2.127   6.393   3.462 -1.6969 -0.3021  2.2181
   32MOL   C123 7005   2.346   6.337   3.444  0.2575  0.5556 -0.0744
   32MOL   C124 7006   2.466   6.415   3.500 -0.3034 -0.1127  0.3072
   32MOL   O125 7007   2.487   6.531   3.466  0.0365 -0.7487 -0.0178
   32MOL   C126 7008   2.542   6.353   3.614 -0.1247  0.5336 -0.0133
   32MOL   C127 7009   2.329   6.359   3.292 -0.3538  0.3711  0.2071
   32MOL   H128 7010   2.363   6.231   3.465  1.8785  0.8988  0.3856
   32MOL   H129 7011   2.514   6.402   3.707  0.7681  0.0304  0.5227
   32MOL   H130 7012   2.526   6.246   3.626 -1.3261  0.8028  0.8686
   32MOL   H131 7013   2.646   6.375   3.590 -0.5578  3.6620  0.6937
   32MOL   H132 7014   2.417   6.403   3.245  0.4727 -0.8294  0.6121
   32MOL   H133 7015   2.256   6.439   3.281 -0.0506  0.8323  1.4689
   32MOL   C134 7016   2.277   6.243   3.212  0.0180  0.1686  0.3367
   32MOL   C135 7017   2.395   6.160   3.153 -0.1028  0.1238  0.1355
   32MOL   O136 7018   2.480   6.208   3.081  0.7151 -0.0976 -0.4358
   32MOL   C137 7019   2.399   6.017   3.184  0.5089  0.3080 -0.4084
   32MOL   C138 7020   2.180   6.293   3.100 -0.2358 -0.2473  0.2749
   32MOL   H139 7021   2.232   6.170   3.279  0.7031 -0.5729  0.0011
   32MOL   H140 7022   2.432   5.997   3.286  0.7226 -0.7409 -0.6707
   32MOL   H141 7023   2.310   5.957   3.165 -0.0935  0.1769  2.5708
   32MOL   H142 7024   2.480   5.979   3.121 -0.1417  0.2350 -1.2056
   32MOL   H143 7025   2.228   6.373   3.044  0.9858 -0.9967  0.2298
   32MOL   H144 7026   2.096   6.341   3.150 -0.0817  0.5018 -0.1771
   32MOL   C145 7027   2.127   6.197   2.985  0.1302  0.4567  0.1088
   32MOL   C146 7028   2.239   6.156   2.885  0.2239 -0.3353  0.9392
   32MOL   O147 7029   2.282   6.042   2.872 -0.0636  0.1781 -0.5513
   32MOL   C148 7030   2.308   6.270   2.816 -0.2012 -0.0222 -0.1697
   32MOL   C149 7031   2.013   6.264   2.905  0.0534 -0.0081 -0.3088
   32MOL   H150 7032   2.101   6.103   3.033  0.0230  0.5524  0.2383
   32MOL   H151 7033   2.245   6.358   2.805  1.0138  0.9400  0.4559
   32MOL   H152 7034   2.404   6.296   2.861  0.0901 -2.0992  0.4676
   32MOL   H153 7035   2.323   6.221   2.720 -2.5340  2.0161 -1.6236
   32MOL   H154 7036   2.030   6.252   2.798  1.2184 -1.2337 -0.0023
   32MOL   H155 7037   2.014   6.371   2.925 -0.6970  0.2930 -1.8418
   32MOL   C156 7038   1.876   6.205   2.936  0.1480  0.8714  0.3175
   32MOL   C157 7039   1.858   6.064   2.885 -0.7049  0.5022 -0.7041
   32MOL   O158 7040   1.782   6.046   2.786  0.1546 -0.4401  0.1656
   32MOL   C159 7041   1.936   5.951   2.937  0.4759  0.0322  0.3524
   32MOL   C160 7042   1.770   6.296   2.881  0.8052  0.3506  0.4534
   32MOL   H161 7043   1.870   6.200   3.045 -1.9676 -3.5202  0.0926
   32MOL   H162 7044   1.891   5.852   2.926  0.8590 -0.0297 -0.7178
   32MOL   H163 7045   2.025   5.930   2.879  0.3862 -2.9880  1.2542
   32MOL   H164 7046   1.966   5.957   3.042 -1.8279  0.2059  1.0483
   32MOL   H165 7047   1.778   6.289   2.773 -0.3498  0.7185  0.3429
   32MOL   H166 7048   1.795   6.397   2.911  0.7988  0.1739  1.0672
   32MOL   C167 7049   1.625   6.265   2.929 -0.7047 -0.6201  0.2061
   32MOL   C168 7050   1.530   6.348   2.846  0.5507 -0.6637 -0.1859
   32MOL   O169 7051   1.505   6.468   2.857 -0.6721 -0.2508  0.3461
   32MOL   C170 7052   1.463   6.282   2.731 -0.4706  0.3586  0.3685
   32MOL   C171 7053   1.617   6.279   3.084 -0.6531  0.5673 -0.1759
   32MOL   H172 7054   1.606   6.159   2.914  1.0240 -0.6826 -1.7200
   32MOL   H173 7055   1.370   6.232   2.756 -0.1755 -0.6646 -0.5462
   32MOL   H174 7056   1.452   6.341   2.640  0.5305 -0.4986 -0.3197
   32MOL   H175 7057   1.533   6.201   2.709 -2.4763 -1.8734  2.0185
   32MOL   H176 7058   1.659   6.373   3.120 -0.6378  0.6892 -0.5126
   32MOL   H177 7059   1.670   6.197   3.132 -0.7684  0.3476 -0.4231
   32MOL   C178 7060   1.475   6.259   3.143 -0.0865 -0.3769  0.1836
   32MOL   C179 7061   1.470   6.319   3.285 -0.6101 -0.0886  0.5561
   32MOL   O180 7062   1.514   6.256   3.381  0.2066  0.0015 -0.4930
   32MOL   C181 7063   1.424   6.462   3.303  0.1119  0.5211 -0.3238
   32MOL   C182 7064   1.429   6.106   3.151  0.4512  0.3508 -0.7411
   32MOL   H183 7065   1.409   6.326   3.087  0.6171 -0.6915 -1.0430
   32MOL   H184 7066   1.338   6.464   3.237  2.4209  1.5970 -3.4342
   32MOL   H185 7067   1.378   6.489   3.398 -0.9359  0.5305 -0.8244
   32MOL   H186 7068   1.498   6.535   3.272 -0.0380  0.4583 -0.8437
   32MOL   H187 7069   1.471   6.060   3.241 -1.0309 -0.7061 -0.5792
   32MOL   H188 7070   1.469   6.042   3.073 -1.3256 -2.5327  0.6404
   32MOL   C189 7071   1.276   6.073   3.154 -0.6164 -0.6952 -0.1695
   32MOL   C190 7072   1.210   6.130   3.028  0.3497  0.7796 -0.2416
   32MOL   O191 7073   1.180   6.249   3.007 -0.3708 -0.1427  0.3906
   32MOL   C192 7074   1.178   6.030   2.927 -1.4583 -0.1946  0.4078
   32MOL   C193 7075   1.204   6.134   3.265  0.2639  0.1781 -0.2954
   32MOL   H194 7076   1.256   5.966   3.157 -0.1097 -0.7465  1.6721
   32MOL   H195 7077   1.147   5.934   2.969 -0.1816 -0.2154  1.3508
   32MOL   H196 7078   1.098   6.061   2.861 -2.0495 -0.2249  1.1015
   32MOL   H197 7079   1.264   6.009   2.863 -0.0616  3.2080  1.0614
   32MOL   H198 7080   1.206   6.242   3.252 -3.1995  0.2821 -0.5001
   32MOL   H199 7081   1.261   6.111   3.355  0.1680 -0.3496 -0.3657
   32MOL   C200 7082   1.059   6.079   3.299  0.5726  0.1275  0.5425
   32MOL   C201 7083   0.983   6.168   3.395  0.1648  0.2246 -0.0341
   32MOL   O202 7084   0.968   6.140   3.513 -0.6060 -0.2177  0.3172
   32MOL   C203 7085   0.915   6.290   3.333 -0.2466  0.5051 -0.3381
   32MOL   C204 7086   1.059   5.932   3.347  0.3747  0.4370  0.1537
   32MOL   H205 7087   0.988   6.081   3.216  1.5015  1.1164 -0.2406
   32MOL   H206 7088   0.949   6.371   3.397  0.5305 -0.1849  0.1377
   32MOL   H207 7089   0.937   6.300   3.227 -1.1614 -0.6343 -0.6483
   32MOL   H208 7090   0.811   6.291   3.366 -0.3690 -0.7207 -0.6847
   32MOL   H209 7091   1.119   5.926   3.437  1.0959 -2.3772 -0.4542
   32MOL   H210 7092   1.109   5.876   3.267  0.6505 -0.7461  1.1413
   32MOL   C211 7093   0.931   5.858   3.380 -0.2563 -0.2991 -0.0579
   32MOL   C212 7094   0.959   5.740   3.475  0.7029 -0.4161 -0.1473
   32MOL   O213 7095   0.986   5.629   3.428 -0.3472  0.2024 -0.0997
   32MOL   C214 7096   0.969   5.761   3.625  0.1955  0.6481 -0.2290
   32MOL   C215 7097   0.865   5.808   3.250  0.9298  0.7243  0.0434
   32MOL   H216 7098   0.868   5.922   3.441  1.7475  0.2694  1.4399
   32MOL   H217 7099   1.062   5.811   3.649 -0.5666  1.1235  1.8655
   32MOL   H218 7100   0.881   5.815   3.661 -0.6723  0.7875 -2.4712
   32MOL   H219 7101   0.971   5.664   3.675  0.5555  0.4412 -0.6472
   32MOL   H220 7102   0.932   5.759   3.179  0.1079 -0.6586  0.2056
   32MOL   H221 7103   0.832   5.892   3.188 -0.6968 -0.1695 -0.3090
   32MOL   H222 7104   0.773   5.753   3.267  1.1050 -0.3241 -2.2475
   33MOL     C1 7105   7.614   4.169   2.428  0.2713 -0.5926  0.6867
   33MOL     C2 7106   7.735   4.254   2.399  0.3599 -0.5614 -0.2749
   33MOL     O3 7107   7.734   4.338   2.312 -0.2956 -0.3273 -0.4347
   33MOL     C4 7108   0.015   4.237   2.476  0.2776 -0.1307 -0.5073
   33MOL     C5 7109   7.528   4.133   2.298  0.2777 -0.5343  0.4105
   33MOL     H6 7110   7.639   4.080   2.485 -0.1933 -0.5675  0.9257
   33MOL     H7 7111   7.841   4.203   2.578  1.3403  0.9457  0.0423
   33MOL     H8 7112   0.065   4.161   2.416  1.6598 -0.2005  0.6942
   33MOL     H9 7113   0.061   4.336   2.473 -0.2092  0.0828 -0.9946
   33MOL    H10 7114   7.545   4.217   2.230  0.6139 -0.8267  0.1382
   33MOL    H11 7115   7.422   4.136   2.324 -0.0182  0.7626 -0.8241
   33MOL    H12 7116   7.557   4.236   2.493 -1.7675  0.2635 -1.8934
   33MOL    C13 7117   7.566   4.001   2.227 -0.1047 -0.1392  0.3310
   33MOL    C14 7118   7.525   3.886   2.323  0.4547  0.3219 -0.9199
   33MOL    O15 7119   7.598   3.826   2.404 -0.0399  0.2228  0.2729
   33MOL    C16 7120   7.381   3.837   2.314 -0.4348 -0.1179  0.3614
   33MOL    C17 7121   7.709   3.996   2.181 -0.6743  0.1205  0.0952
   33MOL    H18 7122   7.509   3.989   2.135  2.1438 -1.1040 -0.9647
   33MOL    H19 7123   7.384   3.728   2.304 -0.3531 -0.0030 -0.9823
   33MOL    H20 7124   7.330   3.863   2.406  0.6336  1.9524  0.3804
   33MOL    H21 7125   7.320   3.880   2.234  0.6916 -0.0476 -0.4700
   33MOL    H22 7126   7.764   3.979   2.274 -0.7595 -1.3095 -0.1115
   33MOL    H23 7127   7.733   4.093   2.139  0.0966 -0.1011  0.0327
   33MOL    C24 7128   7.731   3.878   2.086  1.1036  0.6192  0.0390
   33MOL    C25 7129   0.005   3.798   2.137 -0.7553  0.6569  0.0991
   33MOL    O26 7130   0.123   3.832   2.143  0.4081  0.5546 -0.4034
   33MOL    C27 7131   7.809   3.658   2.184  0.3457 -0.0397  0.6937
   33MOL    C28 7132   7.752   3.929   1.939  0.3531 -0.0039 -0.0615
   33MOL    H29 7133   7.644   3.813   2.078  1.5018  0.2760 -1.7013
   33MOL    H30 7134   7.735   3.659   2.264 -1.9573 -0.9750 -1.3462
   33MOL    H31 7135   7.769   3.604   2.098 -1.0461 -0.2979  1.4843
   33MOL    H32 7136   0.053   3.612   2.233  1.3636  1.1301  0.0448
   33MOL    H33 7137   0.001   3.989   1.928  0.4637 -0.3451 -1.0837
   33MOL    H34 7138   7.667   3.990   1.909  0.8215  0.3847 -0.6090
   33MOL    C35 7139   7.782   3.829   1.822  0.0760 -0.5803  0.1309
   33MOL    C36 7140   7.820   3.913   1.693  0.6657 -0.2442 -0.4613
   33MOL    O37 7141   7.793   4.036   1.678 -0.5068 -0.8285  0.5933
   33MOL    C38 7142   0.047   3.832   1.585  0.7034  0.3582  0.4317
   33MOL    C39 7143   7.680   3.718   1.801  0.3095  0.8510  0.6946
   33MOL    H40 7144   0.034   3.774   1.828  0.9391  0.6505 -1.7874
   33MOL    H41 7145   0.115   3.902   1.536 -0.2793  0.8551 -0.2558
   33MOL    H42 7146   0.105   3.755   1.635 -0.0816 -0.4929  0.0426
   33MOL    H43 7147   7.817   3.795   1.512  1.3144  0.1993 -0.0909
   33MOL    H44 7148   7.683   3.650   1.885  0.1955  2.9033  2.4011
   33MOL    H45 7149   7.711   3.667   1.710 -0.4461 -0.7430  1.3249
   33MOL    C46 7150   7.535   3.766   1.774 -0.1061  0.1816 -0.2555
   33MOL    C47 7151   7.437   3.698   1.865 -0.6933  0.3298 -0.0468
   33MOL    O48 7152   7.438   3.574   1.880  0.0180 -0.4316  0.0607
   33MOL    C49 7153   7.314   3.770   1.916 -0.5510 -0.3453  0.0787
   33MOL    C50 7154   7.488   3.741   1.624  0.1614 -0.0523  0.4533
   33MOL    H51 7155   7.533   3.872   1.798 -1.6632  0.7978 -2.8721
   33MOL    H52 7156   7.251   3.693   1.960  0.8006 -0.1244  2.4633
   33MOL    H53 7157   7.330   3.845   1.994 -0.6991  0.1345 -0.3468
   33MOL    H54 7158   7.270   3.826   1.833  0.5778  1.2701  0.5409
   33MOL    H55 7159   7.384   3.710   1.622  0.3042 -0.8624  3.0477
   33MOL    H56 7160   7.541   3.652   1.591  0.0360 -0.0371  0.2121
   33MOL    C57 7161   7.508   3.855   1.520  0.3663 -0.5283  0.9260
   33MOL    C58 7162   7.459   3.987   1.575  0.5182 -1.3851 -0.2754
   33MOL    O59 7163   7.356   3.995   1.633 -0.5076  0.0932 -0.4211
   33MOL    C60 7164   7.548   4.109   1.547  0.4731  0.1154  0.3460
   33MOL    C61 7165   7.437   3.839   1.381  0.2605  0.3471 -0.0343
   33MOL    H62 7166   7.615   3.871   1.506  0.1951 -0.7889 -0.8118
   33MOL    H63 7167   7.644   4.101   1.496  0.7772  1.1201  0.7527
   33MOL    H64 7168   7.492   4.190   1.500  2.1166  0.5249 -0.9451
   33MOL    H65 7169   7.579   4.148   1.644 -0.0166 -1.0491  0.9764
   33MOL    H66 7170   7.423   3.933   1.330  1.4251  0.8397  0.5298
   33MOL    H67 7171   7.339   3.798   1.403  0.7010 -1.4301 -1.2194
   33MOL    C68 7172   7.522   3.746   1.291 -0.6256  0.1049 -0.1723
   33MOL    C69 7173   7.645   3.817   1.236  0.1598  0.6769  0.1207
   33MOL    O70 7174   7.664   3.933   1.265  0.0181 -0.1701  0.2555
   33MOL    C71 7175   7.733   3.741   1.144  0.3613 -0.3291 -0.1256
   33MOL    C72 7176   7.430   3.683   1.174 -0.5597 -0.7000 -0.3550
   33MOL    H73 7177   7.569   3.661   1.341  1.4495  0.2193 -1.8416
   33MOL    H74 7178   7.743   3.804   1.055  0.4360  2.9946  2.1829
   33MOL    H75 7179   7.819   3.705   1.201  1.6684  2.2043 -0.4285
   33MOL    H76 7180   7.695   3.644   1.110  2.6758 -1.3473  0.0812
   33MOL    H77 7181   7.347   3.630   1.219  0.5071 -0.9687  1.3252
   33MOL    H78 7182   7.483   3.595   1.135  1.4804  0.0051  0.7319
   33MOL    C79 7183   7.387   3.752   1.048 -0.0861 -0.1874  0.7333
   33MOL    C80 7184   7.277   3.858   1.080 -0.2808  0.1649  0.4312
   33MOL    O81 7185   7.178   3.823   1.138  0.2448 -0.0449 -0.0200
   33MOL    C82 7186   7.311   4.003   1.049 -0.5282 -0.4995 -0.4416
   33MOL    C83 7187   7.329   3.651   0.939  0.0703  0.8006  0.7585
   33MOL    H84 7188   7.474   3.802   1.006 -1.2931  1.2229 -0.1249
   33MOL    H85 7189   7.324   4.022   0.943 -0.1530 -3.5086 -0.9904
   33MOL    H86 7190   7.230   4.074   1.063 -1.8623 -1.9837 -0.4843
   33MOL    H87 7191   7.401   4.035   1.101 -0.7196  0.5092 -0.7201
   33MOL    H88 7192   7.222   3.641   0.920  0.3653 -1.0307 -0.0006
   33MOL    H89 7193   7.335   3.547   0.969  0.9409  0.8688  0.8240
   33MOL    C90 7194   7.403   3.673   0.808  0.2159 -0.3788  0.7098
   33MOL    C91 7195   7.354   3.790   0.727  0.2818  0.4191  0.3205
   33MOL    O92 7196   7.234   3.811   0.733 -0.8232 -0.1978  0.3187
   33MOL    C93 7197   7.448   3.878   0.642 -0.0668  0.4765 -0.7302
   33MOL    C94 7198   7.401   3.540   0.728  0.2937  0.4666 -0.0307
   33MOL    H95 7199   7.508   3.699   0.825  0.4047 -0.3695 -0.4430
   33MOL    H96 7200   7.403   3.890   0.543 -1.9251  0.0269  0.0437
   33MOL    H97 7201   7.457   3.980   0.680 -1.8914 -0.4795  2.5107
   33MOL    H98 7202   7.541   3.823   0.633 -0.4522 -0.3328  0.2009
   33MOL    H99 7203   7.440   3.563   0.629  0.0634  1.4337  0.0920
   33MOL   H100 7204   7.299   3.513   0.700  0.8333 -1.9630  0.2418
   33MOL   C101 7205   7.470   3.418   0.796  0.1948  0.0361  0.2931
   33MOL   C102 7206   7.601   3.445   0.869  0.0527 -0.0070  0.3072
   33MOL   O103 7207   7.605   3.434   0.988  0.0196  0.1147 -0.4995
   33MOL   C104 7208   7.712   3.492   0.778  0.1285 -0.1004 -0.2058
   33MOL   C105 7209   7.493   3.299   0.692 -0.2796  1.1365  0.4521
   33MOL   H106 7210   7.401   3.375   0.868 -0.6827 -1.3409 -1.3232
   33MOL   H107 7211   7.780   3.407   0.774 -0.1455 -0.3492  0.3595
   33MOL   H108 7212   7.674   3.527   0.682  3.4594 -0.6233 -1.7971
   33MOL   H109 7213   7.776   3.568   0.824  1.5622 -1.0460 -0.6067
   33MOL   H110 7214   7.531   3.218   0.755  1.0773  1.0765 -0.4137
   33MOL   H111 7215   7.572   3.331   0.624  0.9988 -2.8081 -0.0339
   33MOL   C112 7216   7.375   3.240   0.610  0.5111  0.0221 -0.0486
   33MOL   C113 7217   7.282   3.153   0.691 -0.6647  0.3018 -0.3481
   33MOL   O114 7218   7.274   3.031   0.673 -0.1679  0.2084 -0.2123
   33MOL   C115 7219   7.202   3.226   0.791  0.5489 -0.8436 -1.0980
   33MOL   C116 7220   7.412   3.173   0.477 -0.2627 -0.3304  0.6733
   33MOL   H117 7221   7.315   3.326   0.580  0.0514 -0.3902 -0.3043
   33MOL   H118 7222   7.245   3.211   0.890  1.7111  1.2440 -1.2540
   33MOL   H119 7223   7.195   3.333   0.773  2.1604 -0.2801  1.3874
   33MOL   H120 7224   7.097   3.196   0.790 -0.8460  3.4128  2.6795
   33MOL   H121 7225   7.462   3.081   0.508 -5.2136 -3.2878  0.5560
   33MOL   H122 7226   7.485   3.220   0.412 -1.6072 -3.3138 -3.2509
   33MOL   C123 7227   7.300   3.138   0.383 -0.5058 -0.1774  0.2561
   33MOL   C124 7228   7.357   3.047   0.275  0.1171  0.1839  0.2270
   33MOL   O125 7229   7.412   3.086   0.172 -0.5819 -0.1554 -0.2700
   33MOL   C126 7230   7.332   2.897   0.299 -0.4271 -0.0857 -0.1354
   33MOL   C127 7231   7.228   3.265   0.331 -0.4498 -0.4656  0.3133
   33MOL   H128 7232   7.223   3.076   0.430  0.3696 -2.1856 -0.8774
   33MOL   H129 7233   7.380   2.863   0.390 -2.8524  1.0319  1.6354
   33MOL   H130 7234   7.226   2.875   0.311 -0.3731  0.4590  1.4025
   33MOL   H131 7235   7.351   2.839   0.209 -0.2754 -2.3227  1.3070
   33MOL   H132 7236   7.305   3.332   0.292 -1.1160  1.0221  1.4801
   33MOL   H133 7237   7.191   3.314   0.421 -0.6674 -1.2958  0.6830
   33MOL   C134 7238   7.102   3.239   0.239  0.0041  0.0587  0.4892
   33MOL   C135 7239   6.998   3.144   0.297  0.8194 -0.2154 -0.0726
   33MOL   O136 7240   7.009   3.028   0.267  0.2398 -0.3850 -0.2495
   33MOL   C137 7241   6.886   3.191   0.390 -0.9734 -0.7483  0.5306
   33MOL   C138 7242   7.137   3.216   0.089 -0.7719  0.7647  0.1798
   33MOL   H139 7243   7.049   3.334   0.241 -0.2080 -0.0519  0.1664
   33MOL   H140 7244   6.896   3.156   0.492  1.0656 -0.7970  0.3342
   33MOL   H141 7245   6.884   3.299   0.395  0.4997 -0.6263 -0.9026
   33MOL   H142 7246   6.793   3.153   0.348 -1.3502  0.3229  0.3996
   33MOL   H143 7247   7.187   3.121   0.072  0.4502  1.9577 -3.4185
   33MOL   H144 7248   7.212   3.294   0.073 -0.9643  1.1014  0.8661
   33MOL   C145 7249   7.028   3.232   7.828  0.1404 -0.3845  0.7266
   33MOL   C146 7250   6.967   3.103   7.779 -0.4028  0.5225 -0.1685
   33MOL   O147 7251   7.031   3.011   7.732 -0.3957 -0.1339  0.2661
   33MOL   C148 7252   6.810   3.100   7.773 -0.1576 -0.3493  0.2257
   33MOL   C149 7253   7.068   3.315   7.705  0.1567 -0.4246  0.9052
   33MOL   H150 7254   6.947   3.286   0.035  1.7744  1.8896  1.0490
   33MOL   H151 7255   6.762   3.131   0.024 -1.9138 -0.3625 -0.6784
   33MOL   H152 7256   6.772   3.172   7.701 -0.5601 -2.1778 -1.4082
   33MOL   H153 7257   6.769   3.004   7.745 -0.3874  0.0366 -0.7654
   33MOL   H154 7258   7.006   3.283   7.621 -0.3641 -2.3766  2.0123
   33MOL   H155 7259   7.170   3.300   7.673 -0.4558 -1.7305 -0.4687
   33MOL   C156 7260   7.048   3.471   7.717 -0.1480  0.6827  0.1202
   33MOL   C157 7261   6.898   3.516   7.710  0.5778 -0.3497 -0.0777
   33MOL   O158 7262   6.858   3.584   7.805  0.4078 -0.1302  0.3431
   33MOL   C159 7263   6.804   3.477   7.598  0.1345 -0.0637 -0.0653
   33MOL   C160 7264   7.123   3.548   7.612  0.4221 -0.2236 -0.0626
   33MOL   H161 7265   7.082   3.493   7.818  1.1449 -5.4694  1.2168
   33MOL   H162 7266   6.726   3.414   7.642 -0.1445  0.3079 -0.0260
   33MOL   H163 7267   6.760   3.570   7.564 -1.6338 -1.5918 -2.0108
   33MOL   H164 7268   6.845   3.423   7.513 -0.4509 -2.1269  0.9274
   33MOL   H165 7269   7.067   3.543   7.519  1.5404  2.6889 -0.9611
   33MOL   H166 7270   7.216   3.506   7.574  1.0645  2.1565 -1.2361
   33MOL   C167 7271   7.149   3.702   7.655 -0.5194  0.0066 -0.7524
   33MOL   C168 7272   7.125   3.784   7.528 -0.2031 -0.2455 -0.5414
   33MOL   O169 7273   7.215   3.810   7.451  0.7527  0.6910 -0.6959
   33MOL   C170 7274   6.983   3.820   7.489  0.1182  0.5676  0.0924
   33MOL   C171 7275   7.290   3.708   7.722  0.2065  0.0351  0.4946
   33MOL   H172 7276   7.071   3.736   7.723 -1.5448  0.1433 -1.9931
   33MOL   H173 7277   6.936   3.738   7.434 -0.1128  0.5622  0.2939
   33MOL   H174 7278   6.911   3.826   7.571 -0.7245  0.4200 -0.6338
   33MOL   H175 7279   6.975   3.916   7.439 -0.5051 -0.7936 -2.5436
   33MOL   H176 7280   7.365   3.712   7.643 -1.4270  2.8827 -0.9761
   33MOL   H177 7281   7.307   3.618   7.781  0.8998 -0.1240  0.0541
   33MOL   C178 7282   7.304   3.846   7.799  0.0246  0.1266 -0.8155
   33MOL   C179 7283   7.455   3.874   7.801  0.5061  0.4942  0.2672
   33MOL   O180 7284   7.533   3.811   0.037  0.1244  0.1911 -0.5266
   33MOL   C181 7285   7.512   3.950   7.680  0.0109  0.0898  0.3545
   33MOL   C182 7286   7.242   3.857   0.097  0.0399  0.0684  0.5157
   33MOL   H183 7287   7.265   3.933   7.745  0.4146  1.5724  1.1566
   33MOL   H184 7288   7.521   4.053   7.712 -1.2978 -0.2913  2.0353
   33MOL   H185 7289   7.604   3.909   7.639  0.5989  4.1383 -2.7355
   33MOL   H186 7290   7.432   3.935   7.606 -0.0967 -1.2995  0.7257
   33MOL   H187 7291   7.288   3.786   0.166  0.9913  1.0534  0.9107
   33MOL   H188 7292   7.138   3.826   0.084  0.2136 -0.3034  0.0119
   33MOL   C189 7293   7.241   3.998   0.145 -0.0701 -0.2967  0.1099
   33MOL   C190 7294   7.276   3.994   0.298 -0.1575 -0.5754 -0.5745
   33MOL   O191 7295   7.235   3.906   0.371  0.2965 -0.0253  0.5549
   33MOL   C192 7296   7.371   4.099   0.350  0.6822  0.6588 -0.5749
   33MOL   C193 7297   7.120   4.082   0.103 -0.6621  0.3116 -0.1508
   33MOL   H194 7298   7.328   4.054   0.111 -0.8092  0.1707 -1.0157
   33MOL   H195 7299   7.309   4.186   0.367  0.2050  0.1192  0.5727
   33MOL   H196 7300   7.439   4.074   0.432  1.1803  0.1591 -1.1316
   33MOL   H197 7301   7.433   4.133   0.268 -1.1018  1.2013 -1.7276
   33MOL   H198 7302   7.048   4.096   0.183  0.3646  1.2076  0.6229
   33MOL   H199 7303   7.062   4.028   0.028  2.0135  1.5343 -3.2285
   33MOL   C200 7304   7.140   4.214   0.025 -0.0516 -0.2756  0.3677
   33MOL   C201 7305   7.213   4.190   7.737  0.0167 -0.4474 -0.2617
   33MOL   O202 7306   7.333   4.199   7.735 -0.0193 -0.4581  0.4094
   33MOL   C203 7307   7.132   4.160   7.609  0.4810 -0.5885  0.2570
   33MOL   C204 7308   7.211   4.333   0.100  0.7065  0.3159 -0.2814
   33MOL   H205 7309   7.041   4.252   7.840 -0.3723 -1.0639  0.4146
   33MOL   H206 7310   7.035   4.113   7.623  0.6639 -1.4049 -1.1521
   33MOL   H207 7311   7.120   4.258   7.562  0.8395 -0.3844  0.5867
   33MOL   H208 7312   7.193   4.097   7.544 -0.6059  0.5026 -1.8982
   33MOL   H209 7313   7.244   4.416   0.038  0.3148  0.1139 -0.7608
   33MOL   H210 7314   7.304   4.283   0.130  0.2423 -0.4716 -0.1412
   33MOL   C211 7315   7.140   4.386   0.223  0.0392 -0.5882  0.1776
   33MOL   C212 7316   6.991   4.429   0.203  0.4863 -0.3268 -0.2942
   33MOL   O213 7317   6.943   4.460   0.090 -0.5991 -0.5763  0.1984
   33MOL   C214 7318   6.903   4.458   0.324  0.4515 -0.1967  0.0490
   33MOL   C215 7319   7.227   4.487   0.285 -0.1529 -0.0019  0.0508
   33MOL   H216 7320   7.130   4.311   0.302 -1.8995 -0.6956 -0.1455
   33MOL   H217 7321   6.939   4.396   0.406  0.2207 -0.3860  0.0076
   33MOL   H218 7322   6.907   4.565   0.339  0.1463 -0.0126 -1.0891
   33MOL   H219 7323   6.805   4.417   0.297  0.7390 -1.6706  1.2132
   33MOL   H220 7324   7.328   4.451   0.307 -0.7913 -1.2755  0.9341
   33MOL   H221 7325   7.187   4.530   0.376  0.7033  0.4532  0.2181
   33MOL   H222 7326   7.240   4.570   0.215 -0.2501 -0.0435 -0.0165
   34MOL     C1 7327   0.793   1.144   7.188 -0.5066  0.2103 -1.2135
   34MOL     C2 7328   0.811   1.097   7.332 -0.0338 -0.2995 -0.2567
   34MOL     O3 7329   0.911   1.140   7.398  0.0507 -0.2449  0.9079
   34MOL     C4 7330   0.713   0.993   7.396  0.6024 -0.0587 -0.7271
   34MOL     C5 7331   0.900   1.249   7.138  0.3493  0.3182 -0.0339
   34MOL     H6 7332   0.808   1.060   7.121 -0.6979 -1.8451  1.2326
   34MOL     H7 7333   0.696   0.920   7.316 -1.1628 -1.6459  1.0747
   34MOL     H8 7334   0.749   0.938   7.483 -1.7674 -1.2246 -0.4572
   34MOL     H9 7335   0.626   1.049   7.428  1.8087  0.4388  1.8132
   34MOL    H10 7336   0.906   1.238   7.030  0.5411  2.9946 -0.3321
   34MOL    H11 7337   0.997   1.210   7.169 -0.5819  0.5294  3.3315
   34MOL    H12 7338   0.692   1.175   7.161 -0.1485  3.1844  0.5885
   34MOL    C13 7339   0.872   1.400   7.190  0.0948  1.0686  0.0151
   34MOL    C14 7340   0.721   1.443   7.202 -0.4625 -0.0243  0.4164
   34MOL    O15 7341   0.678   1.453   7.315  0.3750 -0.2654 -0.4716
   34MOL    C16 7342   0.640   1.452   7.072 -0.9576 -0.1620  0.2069
   34MOL    C17 7343   0.958   1.508   7.123 -0.0729  0.5341  0.5738
   34MOL    H18 7344   0.907   1.404   7.293  0.3400 -1.3996  0.0554
   34MOL    H19 7345   0.595   1.552   7.072 -1.5401 -0.4087  1.4653
   34MOL    H20 7346   0.707   1.438   6.988 -1.4609 -0.7250 -0.1025
   34MOL    H21 7347   0.563   1.376   7.067 -0.7481 -0.3114 -0.8147
   34MOL    H22 7348   0.919   1.608   7.139 -0.1714  0.6060 -0.0756
   34MOL    H23 7349   0.937   1.479   7.020  0.7710 -0.6125  0.7181
   34MOL    C24 7350   1.111   1.493   7.137 -0.0758  0.1671 -0.0084
   34MOL    C25 7351   1.173   1.499   7.275  0.1924  0.2400 -0.2590
   34MOL    O26 7352   1.186   1.602   7.337  0.3173  0.0623  0.1818
   34MOL    C27 7353   1.209   1.370   7.345  0.5232  0.6684 -0.5550
   34MOL    C28 7354   1.190   1.575   7.035  0.4418 -0.7441 -0.1656
   34MOL    H29 7355   1.125   1.390   7.102 -3.2664 -0.4691  0.4856
   34MOL    H30 7356   1.298   1.330   7.296  0.6754  0.1824  0.1189
   34MOL    H31 7357   1.247   1.382   7.446  1.0941  1.2144 -0.8348
   34MOL    H32 7358   1.120   1.306   7.348  0.5498  0.6815  1.2840
   34MOL    H33 7359   1.197   1.677   7.071 -1.0293 -0.8891  0.5977
   34MOL    H34 7360   1.129   1.596   6.948 -0.9207 -1.7260  0.5177
   34MOL    C35 7361   1.340   1.536   7.011 -0.1181  0.7596 -0.0156
   34MOL    C36 7362   1.413   1.638   6.924  0.3838 -0.0697 -0.1640
   34MOL    O37 7363   1.356   1.692   6.834  0.1204  0.2535  0.4663
   34MOL    C38 7364   1.559   1.666   6.944 -0.6202  0.4056 -0.3634
   34MOL    C39 7365   1.366   1.392   6.952 -0.2128 -1.0170 -0.4450
   34MOL    H40 7366   1.383   1.548   7.110 -0.4220  0.8111  0.1115
   34MOL    H41 7367   1.568   1.775   6.949 -0.1982  0.4863 -2.4451
   34MOL    H42 7368   1.599   1.618   7.033  0.0055 -0.1277 -0.9227
   34MOL    H43 7369   1.613   1.621   6.861 -1.0224 -2.6085  0.9587
   34MOL    H44 7370   1.313   1.326   7.020 -2.5632  1.1620 -0.0939
   34MOL    H45 7371   1.473   1.370   6.954 -0.1269 -0.6059 -0.4900
   34MOL    C46 7372   1.323   1.375   6.805  0.7823 -0.4827  0.3065
   34MOL    C47 7373   1.167   1.361   6.788 -0.1423  0.2208  0.6828
   34MOL    O48 7374   1.102   1.274   6.844  0.7059  0.0479  0.3754
   34MOL    C49 7375   1.104   1.442   6.676 -0.2482  0.3514  0.5149
   34MOL    C50 7376   1.406   1.265   6.737 -0.1165  0.9642 -0.2518
   34MOL    H51 7377   1.332   1.465   6.744  1.3563 -0.7269  0.0246
   34MOL    H52 7378   1.165   1.435   6.586  2.8766 -1.8196  2.7094
   34MOL    H53 7379   0.999   1.419   6.655  0.2295 -0.2722 -1.2168
   34MOL    H54 7380   1.105   1.550   6.689 -1.5292  0.5635 -0.9608
   34MOL    H55 7381   1.363   1.230   6.643  0.5467  0.6249 -0.4358
   34MOL    H56 7382   1.392   1.175   6.797 -1.9240 -0.0576 -2.1505
   34MOL    C57 7383   1.558   1.299   6.698 -0.1461 -0.4628  0.0587
   34MOL    C58 7384   1.565   1.413   6.598  0.9551 -0.5008 -0.2069
   34MOL    O59 7385   1.471   1.451   6.525  0.0184 -0.3796 -0.9162
   34MOL    C60 7386   1.697   1.489   6.601  0.2331  0.0824 -0.1497
   34MOL    C61 7387   1.655   1.183   6.640  0.0810  0.0050  0.4809
   34MOL    H62 7388   1.603   1.331   6.792 -0.5750  1.2270 -0.3048
   34MOL    H63 7389   1.704   1.556   6.686 -2.5339  0.1835  0.0473
   34MOL    H64 7390   1.786   1.427   6.616 -0.1739 -0.7196 -0.9747
   34MOL    H65 7391   1.726   1.544   6.511 -1.4868  2.2442  0.5926
   34MOL    H66 7392   1.654   1.113   6.723  2.6541  2.2681  2.5270
   34MOL    H67 7393   1.758   1.214   6.627 -0.6464  1.3111 -2.7126
   34MOL    C68 7394   1.610   1.093   6.515 -0.5599 -0.2519 -0.1338
   34MOL    C69 7395   1.602   0.944   6.544 -0.1201 -0.3795 -0.0428
   34MOL    O70 7396   1.680   0.860   6.493 -0.2658  0.0331  0.2428
   34MOL    C71 7397   1.498   0.898   6.654 -0.8637 -0.0821 -0.1549
   34MOL    C72 7398   1.687   1.122   6.383 -0.6856  1.0718  0.3550
   34MOL    H73 7399   1.507   1.121   6.493 -0.4116 -0.2663 -0.8672
   34MOL    H74 7400   1.431   0.821   6.617 -0.8521  0.5210 -1.4520
   34MOL    H75 7401   1.553   0.850   6.735 -1.1421  1.0981  0.7435
   34MOL    H76 7402   1.437   0.976   6.698  0.3506  1.1155 -0.5595
   34MOL    H77 7403   1.660   1.221   6.346 -3.9491 -0.2111 -0.9231
   34MOL    H78 7404   1.636   1.068   6.302  1.3432  1.2008 -1.0456
   34MOL    C79 7405   1.844   1.094   6.398  0.7902 -0.1842  0.0003
   34MOL    C80 7406   1.923   1.228   6.394  0.2934 -0.0941 -0.0189
   34MOL    O81 7407   1.942   1.286   6.502 -1.0399 -0.2065 -0.3798
   34MOL    C82 7408   1.950   1.292   6.256  0.3484  0.0131 -0.0463
   34MOL    C83 7409   1.888   0.985   6.297 -0.7359 -0.0406 -0.3612
   34MOL    H84 7410   1.872   1.057   6.497 -0.5907 -0.5058  0.2757
   34MOL    H85 7411   2.001   1.387   6.267  0.2066  0.1484 -0.5273
   34MOL    H86 7412   2.015   1.233   6.192 -0.4358 -0.5949 -0.2889
   34MOL    H87 7413   1.855   1.301   6.202  1.0951  0.4718 -1.2900
   34MOL    H88 7414   1.868   1.028   6.199 -0.7114 -0.0952 -0.3904
   34MOL    H89 7415   1.835   0.890   6.306  2.5564 -2.0419 -0.8587
   34MOL    C90 7416   2.035   0.938   6.302  0.7489  0.1492 -0.3567
   34MOL    C91 7417   2.084   0.868   6.175 -0.8056  0.4150  0.2671
   34MOL    O92 7418   2.110   0.751   6.172 -0.1728  0.2090  0.0628
   34MOL    C93 7419   2.123   0.959   6.054 -0.3706  0.1054 -0.3894
   34MOL    C94 7420   2.072   0.868   6.431  0.1905 -0.3898  0.4682
   34MOL    H95 7421   2.095   1.027   6.282  0.5667  0.2340 -0.5306
   34MOL    H96 7422   2.030   0.962   5.996  1.1293 -1.5171 -2.9771
   34MOL    H97 7423   2.144   1.062   6.085 -0.1150  0.5347 -1.8978
   34MOL    H98 7424   2.203   0.927   5.987  1.1780  0.0639  1.4302
   34MOL    H99 7425   2.006   0.781   6.438 -2.2480  1.4844  1.5538
   34MOL   H100 7426   2.034   0.931   6.511  0.2407  0.2440  0.0005
   34MOL   C101 7427   2.219   0.846   6.461 -0.3971 -0.0896  0.2475
   34MOL   C102 7428   2.224   0.757   6.585 -0.4872  0.3540 -0.3406
   34MOL   O103 7429   2.212   0.803   6.698 -0.0706 -0.0700 -0.7215
   34MOL   C104 7430   2.248   0.604   6.564  0.3593  0.9359 -0.9395
   34MOL   C105 7431   2.292   0.985   6.479  1.1920  0.4830  0.4523
   34MOL   H106 7432   2.257   0.792   6.375 -1.3551 -0.7385  0.2274
   34MOL   H107 7433   2.186   0.538   6.624 -0.3625  0.5271 -2.1094
   34MOL   H108 7434   2.215   0.588   6.461  0.9902 -1.9301 -0.7476
   34MOL   H109 7435   2.354   0.588   6.582  0.3232  0.9485 -0.7193
   34MOL   H110 7436   2.255   1.030   6.572 -0.8955 -0.3881  0.0723
   34MOL   H111 7437   2.256   1.055   6.403 -1.3476 -1.3169 -0.0611
   34MOL   C112 7438   2.446   0.994   6.469 -0.9786 -0.0951 -0.2765
   34MOL   C113 7439   2.513   0.932   6.594  0.3844 -0.4728 -0.8216
   34MOL   O114 7440   2.577   0.830   6.590 -0.5384 -0.0822 -0.2719
   34MOL   C115 7441   2.485   1.000   6.730  0.2263  0.0098 -0.2808
   34MOL   C116 7442   2.496   1.138   6.449 -0.0133 -0.0047  0.1818
   34MOL   H117 7443   2.486   0.941   6.383  1.1621 -0.3640  0.8326
   34MOL   H118 7444   2.412   0.942   6.786 -0.3126 -1.2022 -2.1651
   34MOL   H119 7445   2.576   1.013   6.789 -0.9141  2.3344  1.0166
   34MOL   H120 7446   2.454   1.104   6.722  0.8687  0.1048 -1.8605
   34MOL   H121 7447   2.601   1.150   6.474 -0.1425  1.1064  0.2028
   34MOL   H122 7448   2.442   1.194   6.525  0.0077  0.9825 -0.5151
   34MOL   C123 7449   2.494   1.211   6.316  0.0188  0.5466 -0.7610
   34MOL   C124 7450   2.554   1.129   6.198  0.1763  0.0246 -0.5251
   34MOL   O125 7451   2.676   1.132   6.179  0.3743 -0.3943  0.2242
   34MOL   C126 7452   2.459   1.039   6.122  0.0434  0.0764  0.5541
   34MOL   C127 7453   2.544   1.352   6.340 -0.6145 -0.0977  0.8200
   34MOL   H128 7454   2.390   1.219   6.287 -0.1807 -1.5328 -0.6627
   34MOL   H129 7455   2.392   0.987   6.190  0.5472 -0.5555  0.5720
   34MOL   H130 7456   2.396   1.106   6.063  1.1473  0.1575 -0.5829
   34MOL   H131 7457   2.520   0.973   6.061  1.1125  1.0030  0.5838
   34MOL   H132 7458   2.547   1.403   6.244 -2.4431 -0.0344  0.7808
   34MOL   H133 7459   2.648   1.350   6.372 -0.3397  0.7245 -0.0171
   34MOL   C134 7460   2.475   1.452   6.433  0.0853 -0.0650  0.4858
   34MOL   C135 7461   2.339   1.500   6.379 -0.0406  0.3902  0.0095
   34MOL   O136 7462   2.319   1.593   6.294 -0.3709  0.0529  0.6101
   34MOL   C137 7463   2.213   1.422   6.428 -0.2571  0.0653 -0.5839
   34MOL   C138 7464   2.562   1.585   6.452 -0.2483  0.0040 -0.0003
   34MOL   H139 7465   2.465   1.401   6.529 -2.9025 -0.6247 -0.0589
   34MOL   H140 7466   2.195   1.337   6.362  3.7724 -0.4499 -1.0989
   34MOL   H141 7467   2.226   1.374   6.525 -2.3753  0.5249 -0.0263
   34MOL   H142 7468   2.128   1.490   6.417 -0.1245  0.0143 -1.9560
   34MOL   H143 7469   2.502   1.670   6.483 -1.7263 -0.8750 -0.4105
   34MOL   H144 7470   2.608   1.608   6.356  0.9150 -0.3296  0.4664
   34MOL   C145 7471   2.677   1.580   6.558 -0.0740  0.0269  0.2605
   34MOL   C146 7472   2.629   1.583   6.707  0.1804  0.5623 -0.4244
   34MOL   O147 7473   2.541   1.664   6.744 -0.1084  0.1865  0.3316
   34MOL   C148 7474   2.705   1.490   6.805 -0.0712 -0.3659 -1.0193
   34MOL   C149 7475   2.800   1.674   6.541 -0.1392  0.1226 -0.8794
   34MOL   H150 7476   2.720   1.481   6.547 -0.7445 -0.2557  0.1072
   34MOL   H151 7477   2.755   1.543   6.886 -0.0128  0.4014 -1.5484
   34MOL   H152 7478   2.636   1.417   6.847  2.8561 -1.8575  1.3438
   34MOL   H153 7479   2.780   1.433   6.750 -0.4342 -0.3323 -1.5559
   34MOL   H154 7480   2.847   1.660   6.444  3.2264 -0.3316  0.7544
   34MOL   H155 7481   2.867   1.636   6.618  0.5852  0.6392 -1.2537
   34MOL   C156 7482   2.777   1.826   6.569  0.0763  0.6826 -0.7939
   34MOL   C157 7483   2.766   1.907   6.444 -0.1094  0.3619 -0.1176
   34MOL   O158 7484   2.864   1.939   6.379  0.5178  0.3903  0.3122
   34MOL   C159 7485   2.623   1.948   6.405 -0.4286  0.7283  0.4193
   34MOL   C160 7486   2.898   1.883   6.645 -0.2211 -0.1798 -0.0239
   34MOL   H161 7487   2.685   1.841   6.624  0.5897 -0.0050  0.2513
   34MOL   H162 7488   2.578   2.012   6.481 -1.0546  2.0670 -1.0200
   34MOL   H163 7489   2.635   2.001   6.310  0.7146 -1.3159 -0.6198
   34MOL   H164 7490   2.555   1.864   6.395 -0.0428  0.0674  3.1819
   34MOL   H165 7491   2.912   1.990   6.633  0.4273 -0.3030 -0.3841
   34MOL   H166 7492   2.989   1.850   6.594 -0.2205  1.8333 -1.3964
   34MOL   C167 7493   2.910   1.839   6.787  0.0016 -0.0288 -0.1885
   34MOL   C168 7494   2.843   1.934   6.896  0.5759  0.7700 -0.0110
   34MOL   O169 7495   2.900   1.968   6.999 -0.1066  0.5146  0.2663
   34MOL   C170 7496   2.695   1.968   6.873 -0.2344 -0.1329  0.6750
   34MOL   C171 7497   3.056   1.820   6.833 -0.3283 -0.0379 -0.4431
   34MOL   H172 7498   2.865   1.741   6.806 -1.2299  0.4095 -0.8248
   34MOL   H173 7499   2.670   2.043   6.948  0.9893  0.7208  0.2418
   34MOL   H174 7500   2.679   2.013   6.775 -0.0944  1.2693  1.2951
   34MOL   H175 7501   2.627   1.885   6.893 -0.0497 -0.1117  1.4080
   34MOL   H176 7502   3.067   1.809   6.940 -3.0215  2.2980  0.1260
   34MOL   H177 7503   3.102   1.918   6.817 -1.2579  0.4851  0.1041
   34MOL   C178 7504   3.139   1.713   6.754 -0.5043  0.0497 -0.1506
   34MOL   C179 7505   3.098   1.570   6.790  0.4409 -0.3752  0.0070
   34MOL   O180 7506   3.058   1.535   6.900  0.5199 -0.5072  0.0613
   34MOL   C181 7507   3.108   1.465   6.678 -0.1220 -0.4093 -0.4209
   34MOL   C182 7508   3.289   1.734   6.779 -0.7949 -0.0082 -0.6443
   34MOL   H183 7509   3.124   1.720   6.646 -0.7974 -0.0104 -0.1134
   34MOL   H184 7510   3.156   1.382   6.730  0.6820  1.6612  2.2423
   34MOL   H185 7511   3.012   1.418   6.653 -0.3058 -1.3076  1.8560
   34MOL   H186 7512   3.177   1.500   6.602 -1.0821  0.7924 -0.7592
   34MOL   H187 7513   3.353   1.651   6.749  0.8418  0.6643  0.9105
   34MOL   H188 7514   3.306   1.747   6.885 -0.5934 -0.0776 -0.6684
   34MOL   C189 7515   3.343   1.867   6.706  1.1164  0.0269  0.5695
   34MOL   C190 7516   3.325   1.858   6.556 -0.2076  0.3519 -0.3346
   34MOL   O191 7517   3.360   1.754   6.499 -0.4073 -0.7536 -0.9002
   34MOL   C192 7518   3.263   1.970   6.475 -0.2583  0.1490 -0.0351
   34MOL   C193 7519   3.489   1.894   6.740 -0.1425 -0.9192 -0.4026
   34MOL   H194 7520   3.290   1.955   6.741  1.2749  1.1106 -1.8219
   34MOL   H195 7521   3.293   1.950   6.373  1.7084 -2.2534  0.9753
   34MOL   H196 7522   3.154   1.963   6.467 -0.1411 -0.3897 -1.1953
   34MOL   H197 7523   3.286   2.072   6.506  1.0878  0.4465 -1.9081
   34MOL   H198 7524   3.539   1.797   6.739 -1.4181 -1.8078  4.7209
   34MOL   H199 7525   3.493   1.922   6.845 -1.8521  0.6391 -0.7319
   34MOL   C200 7526   3.562   2.005   6.672 -0.1431 -0.4053  0.0071
   34MOL   C201 7527   3.716   1.988   6.691  0.5496  0.0482  0.0198
   34MOL   O202 7528   3.769   2.017   6.798 -0.1025 -0.3652 -0.4000
   34MOL   C203 7529   3.802   1.942   6.570  0.2145 -1.0964 -0.2591
   34MOL   C204 7530   3.509   2.151   6.707  0.7018  0.3536  0.5235
   34MOL   H205 7531   3.549   1.983   6.566  1.3382 -1.1856 -0.0237
   34MOL   H206 7532   3.809   1.834   6.576  1.6709 -1.0719 -1.1885
   34MOL   H207 7533   3.746   1.961   6.479  1.2745 -1.4570 -1.0008
   34MOL   H208 7534   3.896   1.997   6.565 -0.6464  0.3816 -0.6004
   34MOL   H209 7535   3.517   2.166   6.815  0.6830  2.1754  0.2838
   34MOL   H210 7536   3.401   2.147   6.692  0.6468 -2.9032  1.4014
   34MOL   C211 7537   3.578   2.259   6.628  0.4956 -0.6629  0.0482
   34MOL   C212 7538   3.509   2.401   6.663 -0.1645 -0.1634 -0.1674
   34MOL   O213 7539   3.461   2.466   6.577 -0.3184  0.0640 -0.2158
   34MOL   C214 7540   3.509   2.455   6.803  0.2481  0.4263  0.4118
   34MOL   C215 7541   3.567   2.237   6.474 -0.0759 -0.7283  0.1709
   34MOL   H216 7542   3.681   2.264   6.662  0.0242  3.0290  1.1634
   34MOL   H217 7543   3.424   2.523   6.810 -0.0816  0.3174 -2.1504
   34MOL   H218 7544   3.479   2.376   6.871 -1.6163  1.6170  1.0171
   34MOL   H219 7545   3.599   2.512   6.826 -1.2910  1.9581  2.8772
   34MOL   H220 7546   3.646   2.173   6.437 -1.5175 -1.9645 -0.7999
   34MOL   H221 7547   3.563   2.326   6.411 -1.7715 -1.2440 -0.4668
   34MOL   H222 7548   3.477   2.185   6.440 -0.2516  1.1494 -2.3650
   35MOL     C1 7549   1.877   6.423   0.367  0.2020  0.4801  0.1375
   35MOL     C2 7550   1.785   6.463   0.249 -0.6980  0.2591 -0.1014
   35MOL     O3 7551   1.798   6.425   0.132  0.1827 -0.7184 -0.1157
   35MOL     C4 7552   1.671   6.553   0.273 -0.3444 -0.4796  0.1866
   35MOL     C5 7553   1.822   6.337   0.488  0.2600  0.6096  0.9294
   35MOL     H6 7554   1.963   6.368   0.328  0.2997  2.1225 -2.0503
   35MOL     H7 7555   1.663   6.603   0.370 -2.4520  0.2105 -0.3134
   35MOL     H8 7556   1.673   6.636   0.203 -0.2805 -1.0732 -0.5184
   35MOL     H9 7557   1.579   6.495   0.268 -0.4304 -0.2942 -0.3919
   35MOL    H10 7558   1.768   6.248   0.453 -1.3594  2.2548 -0.9241
   35MOL    H11 7559   1.745   6.404   0.525 -0.7704  0.2414 -0.5078
   35MOL    H12 7560   1.906   6.518   0.414 -1.4598  0.0879  2.0379
   35MOL    C13 7561   1.925   6.311   0.597 -0.0972  0.3340 -0.2960
   35MOL    C14 7562   2.039   6.218   0.555 -0.2445  0.2888  0.6815
   35MOL    O15 7563   2.157   6.260   0.565  0.1287 -0.1062  0.1476
   35MOL    C16 7564   2.010   6.084   0.500  0.1056  0.8126 -0.3473
   35MOL    C17 7565   1.858   6.233   0.714 -0.8829 -0.0846  0.2238
   35MOL    H18 7566   1.967   6.408   0.621  1.2381 -0.3209  0.0712
   35MOL    H19 7567   2.044   6.069   0.398  1.0103 -1.8625  0.3057
   35MOL    H20 7568   2.059   6.008   0.562 -1.9331  0.9171  1.4574
   35MOL    H21 7569   1.902   6.071   0.488  0.0503 -1.3981  1.9959
   35MOL    H22 7570   1.939   6.207   0.783 -1.2210 -0.0900  0.6149
   35MOL    H23 7571   1.828   6.139   0.667 -1.9327  0.9052 -1.1324
   35MOL    C24 7572   1.744   6.293   0.796  0.2311 -0.1589  0.8112
   35MOL    C25 7573   1.785   6.410   0.885 -0.1894 -0.7295  0.4371
   35MOL    O26 7574   1.896   6.410   0.933 -0.4002  0.0906  0.1352
   35MOL    C27 7575   1.682   6.525   0.914 -0.3743  0.0116 -0.0829
   35MOL    C28 7576   1.673   6.182   0.876 -0.3859  0.3610  0.3263
   35MOL    H29 7577   1.671   6.337   0.729 -0.2488 -0.9647  0.7986
   35MOL    H30 7578   1.715   6.621   0.873  0.4430  0.7580  2.2391
   35MOL    H31 7579   1.588   6.498   0.866 -0.1130  1.3768 -1.4021
   35MOL    H32 7580   1.671   6.538   1.021 -2.4801  0.3899 -0.3299
   35MOL    H33 7581   1.606   6.224   0.951  0.3815  0.5420  0.9087
   35MOL    H34 7582   1.750   6.132   0.935  0.4700 -0.7406 -1.6795
   35MOL    C35 7583   1.577   6.085   0.798  0.7138  0.1551  0.1936
   35MOL    C36 7584   1.643   5.959   0.733  0.4227 -0.4739  0.5387
   35MOL    O37 7585   1.658   5.930   0.612  0.0831  0.3783  0.1347
   35MOL    C38 7586   1.703   5.861   0.829 -0.6271  0.5427 -0.2036
   35MOL    C39 7587   1.468   6.147   0.701 -0.0913 -0.0693  0.5826
   35MOL    H40 7588   1.521   6.036   0.879  2.8605 -2.0480  0.4106
   35MOL    H41 7589   1.642   5.833   0.915  0.1489 -0.1377  0.1336
   35MOL    H42 7590   1.723   5.766   0.779 -1.2730  1.2684 -1.8723
   35MOL    H43 7591   1.793   5.902   0.872 -1.4428  0.6113  1.4753
   35MOL    H44 7592   1.422   6.061   0.651  0.3692  0.4922 -0.8141
   35MOL    H45 7593   1.523   6.214   0.635 -2.3599  1.7309  0.4923
   35MOL    C46 7594   1.358   6.225   0.774 -0.0189  0.4377  0.0116
   35MOL    C47 7595   1.247   6.126   0.822  0.2042  0.4250  0.6271
   35MOL    O48 7596   1.229   6.016   0.771 -0.0413 -0.1827  0.1986
   35MOL    C49 7597   1.155   6.175   0.935  0.5258  0.5924 -0.3480
   35MOL    C50 7598   1.298   6.338   0.681  0.1024  0.2303  0.1516
   35MOL    H51 7599   1.401   6.273   0.862  1.4039  0.8409 -0.8904
   35MOL    H52 7600   1.238   6.182   1.005 -0.1053 -2.6579  0.8360
   35MOL    H53 7601   1.102   6.268   0.917  2.9229  2.2734  1.0384
   35MOL    H54 7602   1.086   6.096   0.965 -0.0870  0.8432 -1.0913
   35MOL    H55 7603   1.378   6.408   0.656  0.8947 -0.6102  0.3089
   35MOL    H56 7604   1.234   6.404   0.740 -0.1970  0.0126  0.0700
   35MOL    C57 7605   1.236   6.302   0.548  0.2411 -0.3924  0.5003
   35MOL    C58 7606   1.336   6.253   0.441  1.0249 -0.1586 -0.5241
   35MOL    O59 7607   1.392   6.342   0.373 -0.4449 -0.3809 -0.0566
   35MOL    C60 7608   1.343   6.114   0.390 -0.6004  0.0246  0.3320
   35MOL    C61 7609   1.154   6.427   0.493  0.5467 -0.2254  0.5406
   35MOL    H62 7610   1.168   6.216   0.554  0.2107 -0.3779  0.3811
   35MOL    H63 7611   1.294   6.088   0.296 -0.2512  1.8727 -0.3755
   35MOL    H64 7612   1.450   6.094   0.387 -0.1984  2.2046 -0.5497
   35MOL    H65 7613   1.286   6.057   0.464  1.0605 -1.5134  0.4760
   35MOL    H66 7614   1.130   6.402   0.390  1.0379  1.7759 -0.0919
   35MOL    H67 7615   1.221   6.513   0.504  0.3926  0.2079 -1.7159
   35MOL    C68 7616   1.020   6.457   0.561 -0.3573  0.0506 -0.0439
   35MOL    C69 7617   0.915   6.353   0.521 -0.7080  0.3870 -0.0543
   35MOL    O70 7618   0.862   6.362   0.414 -0.2741  0.3266  0.2528
   35MOL    C71 7619   0.884   6.246   0.621  1.3015  0.1660 -0.4677
   35MOL    C72 7620   0.973   6.600   0.539 -0.0584  0.2514 -0.4273
   35MOL    H73 7621   1.042   6.458   0.667 -0.0988  0.1592 -0.1003
   35MOL    H74 7622   0.959   6.251   0.700  1.7813 -2.6112 -0.7029
   35MOL    H75 7623   0.781   6.245   0.657  1.5204  0.4014  0.1808
   35MOL    H76 7624   0.895   6.149   0.574  1.1265  1.4469 -3.2546
   35MOL    H77 7625   1.058   6.656   0.579 -0.1468 -1.8915  2.8796
   35MOL    H78 7626   0.876   6.604   0.588  0.4913 -2.8740  1.0300
   35MOL    C79 7627   0.960   6.652   0.385 -0.4141 -0.5288 -0.0565
   35MOL    C80 7628   1.101   6.682   0.329 -0.6833 -0.2873 -0.2093
   35MOL    O81 7629   1.184   6.752   0.386 -0.1384 -0.0954  0.0732
   35MOL    C82 7630   1.143   6.625   0.193 -0.1578 -0.1070  0.3471
   35MOL    C83 7631   0.868   6.781   0.386  0.8071 -0.4862  0.4980
   35MOL    H84 7632   0.919   6.567   0.330  0.0952  0.1113 -1.4318
   35MOL    H85 7633   1.129   6.688   0.105  1.3619  0.8144  0.7572
   35MOL    H86 7634   1.250   6.607   0.208  0.5227  2.2358 -1.3741
   35MOL    H87 7635   1.103   6.525   0.177 -2.1121  1.4128 -5.6689
   35MOL    H88 7636   0.925   6.868   0.418  2.5168 -2.1801  2.1866
   35MOL    H89 7637   0.792   6.781   0.465 -0.6217 -3.1400 -0.7776
   35MOL    C90 7638   0.799   6.816   0.249 -0.4791  0.2095  0.4255
   35MOL    C91 7639   0.886   6.901   0.152  0.0108  0.3315 -0.3352
   35MOL    O92 7640   0.972   6.976   0.194  0.5194  0.3398 -0.3112
   35MOL    C93 7641   0.869   6.872   0.004  0.1846  0.3804 -0.2331
   35MOL    C94 7642   0.655   6.864   0.268 -0.5069  0.1841 -0.2642
   35MOL    H95 7643   0.786   6.720   0.200 -0.2316 -0.9364  2.5338
   35MOL    H96 7644   0.972   6.854   7.817 -0.0439 -0.3461 -0.5978
   35MOL    H97 7645   0.817   6.778   7.824  0.4657 -0.1459  1.2413
   35MOL    H98 7646   0.822   6.957   7.796 -0.4626  0.3794  0.3569
   35MOL    H99 7647   0.600   6.813   0.348 -4.5541  1.5317 -2.0175
   35MOL   H100 7648   0.599   6.830   0.181 -1.5603  0.8906  0.1135
   35MOL   C101 7649   0.631   7.020   0.289 -0.4534 -0.2311 -0.0051
   35MOL   C102 7650   0.666   7.063   0.432 -0.4286  0.2025  0.0458
   35MOL   O103 7651   0.594   7.035   0.527 -0.0255  0.2534 -0.0508
   35MOL   C104 7652   0.799   7.138   0.457  0.3266 -0.2377 -0.8062
   35MOL   C105 7653   0.494   7.077   0.250  0.7244  0.3983 -0.8299
   35MOL   H106 7654   0.704   7.071   0.226 -1.0129 -0.8120 -1.1319
   35MOL   H107 7655   0.849   7.106   0.549  2.5316  1.9014 -1.2103
   35MOL   H108 7656   0.866   7.133   0.371 -1.7962  0.0964 -2.5191
   35MOL   H109 7657   0.774   7.244   0.462 -0.1744 -0.4147  0.8881
   35MOL   H110 7658   0.497   7.182   0.278 -1.1733 -0.0407  1.2414
   35MOL   H111 7659   0.409   7.040   0.308  0.1046 -1.4774 -2.8644
   35MOL   C112 7660   0.450   7.054   0.106  0.9792 -0.0147  1.0567
   35MOL   C113 7661   0.549   7.116   0.009  0.4020 -0.4643 -0.1284
   35MOL   O114 7662   0.623   7.212   0.042 -0.1228 -0.5034 -0.2126
   35MOL   C115 7663   0.553   7.063   7.708  0.3108  0.3276 -0.0588
   35MOL   C116 7664   0.300   7.096   0.073  0.1449 -0.1087 -1.2578
   35MOL   H117 7665   0.454   6.948   0.078  0.7479 -0.6261  3.2541
   35MOL   H118 7666   0.588   7.131   7.630  1.2076  1.1130  1.0102
   35MOL   H119 7667   0.614   6.974   7.697 -1.0927 -0.4112 -2.0562
   35MOL   H120 7668   0.453   7.036   7.673 -0.2885  1.4677  0.7192
   35MOL   H121 7669   0.244   7.078   0.165 -0.4927 -0.7042 -1.7567
   35MOL   H122 7670   0.254   7.043   7.832 -4.4578  0.7668  0.6046
   35MOL   C123 7671   0.257   7.249   0.043 -0.0510 -0.1428  0.8208
   35MOL   C124 7672   0.269   7.338   0.168 -0.0838 -0.4537  0.0742
   35MOL   O125 7673   0.237   7.301   0.281 -0.5094 -0.3982 -0.4156
   35MOL   C126 7674   0.330   7.477   0.151  0.0008 -0.7042  0.2421
   35MOL   C127 7675   0.113   7.257   7.822 -0.3071  0.2114  0.0341
   35MOL   H128 7676   0.324   7.281   7.805 -1.7200 -1.8893 -1.3388
   35MOL   H129 7677   0.260   7.551   0.112 -0.2077 -0.5899  0.8297
   35MOL   H130 7678   0.367   7.509   0.249 -0.1705  0.0507  0.0646
   35MOL   H131 7679   0.411   7.476   0.078 -0.7062 -0.0355 -0.5546
   35MOL   H132 7680   0.147   7.234   7.722  0.3026  0.8060  0.1003
   35MOL   H133 7681   0.073   7.357   7.804 -0.2593  0.0070 -1.2120
   35MOL   C134 7682   0.003   7.169   0.035 -0.2298  0.3633 -0.1562
   35MOL   C135 7683   7.755   7.130   7.760  0.3642  0.7318  0.2388
   35MOL   O136 7684   7.751   7.198   7.654  0.0191 -0.0973  0.6940
   35MOL   C137 7685   7.656   7.013   7.774 -0.2294  0.2546 -0.0463
   35MOL   C138 7686   7.773   7.218   0.167  0.3193  0.1459 -0.4453
   35MOL   H139 7687   0.050   7.074   0.063 -2.1340 -0.0784  1.7562
   35MOL   H140 7688   7.555   7.045   7.799 -0.6033 -1.0637  0.1393
   35MOL   H141 7689   7.656   6.961   7.678 -2.2578  1.6195 -0.8162
   35MOL   H142 7690   7.684   6.936   0.003 -0.1763 -0.3675 -0.7373
   35MOL   H143 7691   7.666   7.217   0.145  0.1705 -2.0542  0.2073
   35MOL   H144 7692   7.800   7.322   0.186 -0.9087  0.0945  1.7864
   35MOL   C145 7693   7.795   7.132   0.297 -0.3299 -0.5549  0.0280
   35MOL   C146 7694   7.743   6.990   0.290 -0.0603 -0.3196  0.1200
   35MOL   O147 7695   7.641   6.968   0.227  0.3173  0.0998  0.2200
   35MOL   C148 7696   7.807   6.891   0.381 -0.4315  0.2455 -0.3548
   35MOL   C149 7697   7.747   7.212   0.424  0.3738  0.1096 -0.4579
   35MOL   H150 7698   0.060   7.115   0.304 -0.2575 -0.2425 -0.2724
   35MOL   H151 7699   0.061   6.866   0.337 -1.3865 -0.7874 -1.9230
   35MOL   H152 7700   7.806   6.927   0.484  0.6767  0.0876 -0.2836
   35MOL   H153 7701   7.750   6.798   0.376 -1.4497  0.9078 -1.7325
   35MOL   H154 7702   7.809   7.300   0.405 -0.9728  1.0005 -0.7830
   35MOL   H155 7703   7.777   7.173   0.521 -0.2827 -2.7602 -1.3577
   35MOL   C156 7704   7.596   7.264   0.426  0.0228 -0.9470  0.5693
   35MOL   C157 7705   7.581   7.418   0.436  0.0838 -0.8681 -0.2580
   35MOL   O158 7706   7.521   7.487   0.349  0.1687  0.4579 -0.5277
   35MOL   C159 7707   7.616   7.485   0.565 -0.0737  0.2915 -0.6116
   35MOL   C160 7708   7.511   7.187   0.521  0.1959 -0.1838 -0.2147
   35MOL   H161 7709   7.559   7.240   0.326  1.3081 -1.1857  0.1498
   35MOL   H162 7710   7.603   7.593   0.557 -1.2135  0.1249 -1.0084
   35MOL   H163 7711   7.545   7.449   0.640  4.3787 -1.3948  3.0554
   35MOL   H164 7712   7.713   7.456   0.606  0.1555  0.0614 -1.3182
   35MOL   H165 7713   7.427   7.251   0.551  1.5484  0.7873  1.6173
   35MOL   H166 7714   7.567   7.170   0.612  2.1800  0.8535 -1.2070
   35MOL   C167 7715   7.444   7.049   0.471  0.1917  0.1179 -0.4663
   35MOL   C168 7716   7.357   7.053   0.345  0.2475 -0.5327  0.0669
   35MOL   O169 7717   7.331   7.164   0.291 -0.4217  0.3000  0.0375
   35MOL   C170 7718   7.300   6.920   0.299 -0.2418 -0.1263 -0.2401
   35MOL   C171 7719   7.361   6.990   0.591 -0.5599 -0.1325  0.1141
   35MOL   H172 7720   7.529   6.985   0.448  0.6688 -0.6957  3.2786
   35MOL   H173 7721   7.245   6.922   0.206  0.8676  1.4716 -0.8808
   35MOL   H174 7722   7.385   6.856   0.276 -1.6796 -2.2455  0.2057
   35MOL   H175 7723   7.243   6.861   0.371 -0.3870  1.4656  0.9728
   35MOL   H176 7724   7.264   6.947   0.567  0.3547 -1.6692 -0.9137
   35MOL   H177 7725   7.314   7.071   0.647 -0.6592  0.3001 -0.5845
   35MOL   C178 7726   7.438   6.889   0.681 -0.1428 -0.3596  0.2745
   35MOL   C179 7727   7.465   6.745   0.620 -0.6360 -0.1250  0.1037
   35MOL   O180 7728   7.376   6.663   0.596 -0.1548 -0.3371 -0.4514
   35MOL   C181 7729   7.610   6.697   0.612 -0.5663 -0.2762  0.0955
   35MOL   C182 7730   7.376   6.885   0.823  1.1051 -0.7816 -0.1238
   35MOL   H183 7731   7.537   6.932   0.695 -0.6470  0.9989 -0.1844
   35MOL   H184 7732   7.666   6.778   0.565  0.8409 -1.6793 -0.6737
   35MOL   H185 7733   7.642   6.684   0.716  1.4360  0.8172 -0.3587
   35MOL   H186 7734   7.623   6.608   0.551 -3.2334  0.0467 -1.0094
   35MOL   H187 7735   7.415   6.795   0.871  1.3365  0.5138  2.2050
   35MOL   H188 7736   7.269   6.869   0.820  0.8980  0.2482  1.2469
   35MOL   C189 7737   7.414   7.004   0.912  0.2211 -0.5466 -0.4199
   35MOL   C190 7738   7.554   6.989   0.978  0.1949 -0.0798  0.1377
   35MOL   O191 7739   7.559   6.931   1.088  0.3059 -0.2404  0.3839
   35MOL   C192 7740   7.679   7.040   0.899  0.2451 -0.7096  0.1312
   35MOL   C193 7741   7.311   7.033   1.025 -0.4190  0.1109 -0.6304
   35MOL   H194 7742   7.435   7.093   0.853  3.2028 -2.0278 -1.6853
   35MOL   H195 7743   7.658   7.068   0.795  1.7943  0.1060  0.0166
   35MOL   H196 7744   7.726   7.128   0.943  0.8323 -1.6652  1.4264
   35MOL   H197 7745   7.757   6.964   0.902  1.6585  0.7689  1.8235
   35MOL   H198 7746   7.315   6.948   1.092  2.3778  0.2963 -0.5221
   35MOL   H199 7747   7.210   7.028   0.982 -0.2969  1.7291 -1.1364
   35MOL   C200 7748   7.320   7.170   1.099 -0.2073  0.5774 -0.2338
   35MOL   C201 7749   7.224   7.173   1.212 -0.3279 -0.1567  0.5734
   35MOL   O202 7750   7.116   7.234   1.208 -0.6569 -0.6999  0.4847
   35MOL   C203 7751   7.275   7.098   1.339  0.5352  0.8921  0.8328
   35MOL   C204 7752   7.316   7.297   1.009 -0.1043  0.0466  0.2311
   35MOL   H205 7753   7.423   7.172   1.135 -0.7733 -2.0634  1.7486
   35MOL   H206 7754   7.375   7.055   1.325  0.0909 -0.2749  1.1665
   35MOL   H207 7755   7.268   7.155   1.432 -1.6488 -0.9183  1.8372
   35MOL   H208 7756   7.207   7.016   1.362  1.2028  0.4053  1.1247
   35MOL   H209 7757   7.215   7.327   0.981 -0.2333  0.1668  0.8186
   35MOL   H210 7758   7.358   7.276   0.911  4.2057  1.2535  1.7311
   35MOL   C211 7759   7.406   7.418   1.053  0.1383 -0.0527 -0.0501
   35MOL   C212 7760   7.560   7.394   1.033  0.0644  0.2659 -0.1362
   35MOL   O213 7761   7.617   7.316   1.110 -0.2545  0.3794  0.0702
   35MOL   C214 7762   7.636   7.447   0.917  0.8035 -0.2554 -0.5577
   35MOL   C215 7763   7.369   7.473   1.191  0.0285 -0.4205  0.4605
   35MOL   H216 7764   7.379   7.498   0.984  0.1435 -1.0481 -1.2373
   35MOL   H217 7765   7.723   7.381   0.919 -0.1615 -1.5280 -0.2331
   35MOL   H218 7766   7.577   7.435   0.826  0.3673 -2.8406  0.0351
   35MOL   H219 7767   7.650   7.555   0.923 -0.2099 -0.1914  0.7646
   35MOL   H220 7768   7.426   7.565   1.205 -0.8690  0.1826  0.2317
   35MOL   H221 7769   7.416   7.404   1.261  1.3896 -0.1782 -0.2133
   35MOL   H222 7770   7.264   7.500   1.208 -0.2184 -1.8901  1.3168
   36MOL     C1 7771   6.311   6.629   3.114  0.1146  0.5368  0.2611
   36MOL     C2 7772   6.207   6.569   3.215 -0.8985  0.2143 -0.9065
   36MOL     O3 7773   6.246   6.535   3.328 -0.2537  0.0814 -0.0940
   36MOL     C4 7774   6.059   6.586   3.186  0.9031 -0.0310 -0.0979
   36MOL     C5 7775   6.459   6.597   3.148 -0.2619  0.3981  0.2249
   36MOL     H6 7776   6.294   6.574   3.021  1.1811  1.9292 -0.7871
   36MOL     H7 7777   6.007   6.602   3.281 -2.2681 -2.2324 -1.4146
   36MOL     H8 7778   6.039   6.662   3.111 -0.1600 -2.3056 -2.1604
   36MOL     H9 7779   6.027   6.492   3.143 -2.4004  1.1079 -0.2417
   36MOL    H10 7780   6.519   6.615   3.059  0.8426 -2.5902  0.3301
   36MOL    H11 7781   6.459   6.489   3.163 -1.2376  0.3563 -0.0374
   36MOL    H12 7782   6.298   6.737   3.102  1.6606  0.8146  0.9947
   36MOL    C13 7783   6.533   6.664   3.263 -0.6884 -0.5072 -0.5722
   36MOL    C14 7784   6.603   6.793   3.220  0.5749  0.2333  0.1335
   36MOL    O15 7785   6.714   6.792   3.159 -0.2083  0.1103 -0.0570
   36MOL    C16 7786   6.522   6.923   3.243  0.6356  0.2215 -0.0662
   36MOL    C17 7787   6.630   6.570   3.340 -0.3211  0.0208 -0.4560
   36MOL    H18 7788   6.453   6.697   3.330 -0.2192  0.1623 -0.3357
   36MOL    H19 7789   6.508   6.944   3.349 -2.2490  0.0937 -0.3985
   36MOL    H20 7790   6.569   7.014   3.206  0.8136  0.3716  0.5137
   36MOL    H21 7791   6.428   6.919   3.188 -0.9439  0.1531  2.5215
   36MOL    H22 7792   6.718   6.619   3.381 -0.8152  1.2697 -0.8543
   36MOL    H23 7793   6.679   6.503   3.269 -1.9282 -0.8821 -0.7367
   36MOL    C24 7794   6.579   6.485   3.452 -0.3562  0.2530  0.5567
   36MOL    C25 7795   6.507   6.570   3.558  0.1809 -0.0533 -0.3233
   36MOL    O26 7796   6.543   6.677   3.608  0.2070 -0.1180 -0.2183
   36MOL    C27 7797   6.389   6.500   3.633 -0.0714 -0.1146  0.2699
   36MOL    C28 7798   6.690   6.401   3.529  0.5606  0.7805 -0.3685
   36MOL    H29 7799   6.513   6.407   3.414  0.5843 -0.9854  1.4102
   36MOL    H30 7800   6.333   6.435   3.566  0.5533  0.1798 -0.5442
   36MOL    H31 7801   6.418   6.436   3.716  0.8847  0.8076  0.6537
   36MOL    H32 7802   6.317   6.577   3.662 -0.0397  0.4746 -1.2075
   36MOL    H33 7803   6.644   6.364   3.621 -0.4634  2.2435 -0.2773
   36MOL    H34 7804   6.766   6.468   3.571 -1.6028  1.0063  3.3802
   36MOL    C35 7805   6.751   6.280   3.447  0.3822 -0.8671 -0.2242
   36MOL    C36 7806   6.628   6.193   3.409 -0.1636 -0.2749 -0.4830
   36MOL    O37 7807   6.545   6.165   3.493  0.3403 -0.4059  0.2582
   36MOL    C38 7808   6.611   6.154   3.259  0.5796  0.2681 -0.3284
   36MOL    C39 7809   6.853   6.199   3.544  0.7221 -0.4481 -0.2039
   36MOL    H40 7810   6.804   6.326   3.364 -0.5663  1.8339  0.5967
   36MOL    H41 7811   6.511   6.114   3.243 -1.2859  4.1301  0.8734
   36MOL    H42 7812   6.628   6.247   3.205  2.1131 -0.6403 -1.4396
   36MOL    H43 7813   6.687   6.083   3.227  1.3219  0.3051  1.3317
   36MOL    H44 7814   6.796   6.121   3.595 -0.5059  0.6901  0.2008
   36MOL    H45 7815   6.891   6.267   3.621  0.5528  0.5221 -0.9775
   36MOL    C46 7816   6.989   6.150   3.480 -0.7031  0.1222 -0.0043
   36MOL    C47 7817   6.967   6.062   3.362  0.1700  1.2546 -0.1449
   36MOL    O48 7818   6.945   5.942   3.371 -0.2701  0.6870  0.2600
   36MOL    C49 7819   6.966   6.129   3.225 -0.1678  0.3109 -0.6024
   36MOL    C50 7820   7.086   6.096   3.585 -0.5631 -0.4257  0.4110
   36MOL    H51 7821   7.037   6.240   3.440  0.8617 -1.4904 -1.8498
   36MOL    H52 7822   6.980   6.236   3.241  1.8426  0.0897 -0.8057
   36MOL    H53 7823   7.045   6.090   3.161  1.6034  1.1434  1.0381
   36MOL    H54 7824   6.871   6.124   3.172 -0.0252 -1.6508 -0.7035
   36MOL    H55 7825   7.046   6.005   3.630  0.9323 -0.4899  1.6666
   36MOL    H56 7826   7.085   6.177   3.658 -1.2255  0.3699 -0.4713
   36MOL    C57 7827   7.243   6.064   3.556 -0.9619 -0.1636  0.5246
   36MOL    C58 7828   7.322   6.202   3.513 -0.1472  0.4855  0.0851
   36MOL    O59 7829   7.277   6.274   3.418  0.1864  0.2794  0.5854
   36MOL    C60 7830   7.434   6.249   3.609 -0.4059 -0.3730  0.6609
   36MOL    C61 7831   7.278   5.940   3.465 -0.0031 -0.0209  0.4562
   36MOL    H62 7832   7.273   6.045   3.659 -2.2006 -1.5358  0.6466
   36MOL    H63 7833   7.408   6.340   3.663 -1.3710  0.4643 -1.1582
   36MOL    H64 7834   7.455   6.168   3.679  2.4933  0.6184  1.0033
   36MOL    H65 7835   7.525   6.269   3.553 -0.9783  0.0579 -0.1297
   36MOL    H66 7836   7.381   5.947   3.430 -0.2808 -3.2760 -1.2208
   36MOL    H67 7837   7.228   5.939   3.369  1.4416  0.5237 -0.3200
   36MOL    C68 7838   7.262   5.803   3.534  0.2278  0.7649  0.1919
   36MOL    C69 7839   7.354   5.789   3.660  0.1466  0.0224  0.2447
   36MOL    O70 7840   7.468   5.836   3.663 -0.1423 -0.6083  0.0141
   36MOL    C71 7841   7.286   5.743   3.795 -0.0163  0.1708 -0.0164
   36MOL    C72 7842   7.275   5.684   3.433 -0.5958 -0.1662 -0.4807
   36MOL    H73 7843   7.160   5.796   3.570 -0.4251 -0.5369 -1.8502
   36MOL    H74 7844   7.183   5.716   3.772 -0.0526 -1.0319  1.4847
   36MOL    H75 7845   7.329   5.651   3.834 -2.0041 -0.4845  0.6470
   36MOL    H76 7846   7.288   5.821   3.871  1.0461  0.9210 -0.7965
   36MOL    H77 7847   7.374   5.696   3.389 -0.6160  0.7755 -0.2854
   36MOL    H78 7848   7.211   5.702   3.347  0.4840 -0.1664 -1.3062
   36MOL    C79 7849   7.256   5.547   3.492  0.0408 -0.0043 -0.0760
   36MOL    C80 7850   7.324   5.447   3.395  0.5198 -0.2010  0.0277
   36MOL    O81 7851   7.265   5.378   3.310 -0.0468 -0.1850  0.3692
   36MOL    C82 7852   7.473   5.447   3.400  0.3665  0.4283 -0.5489
   36MOL    C83 7853   7.103   5.511   3.514 -0.4375 -0.0279 -0.4815
   36MOL    H84 7854   7.312   5.522   3.582 -2.2888 -1.6718  0.9663
   36MOL    H85 7855   7.524   5.511   3.328  1.7778 -1.6584 -1.4426
   36MOL    H86 7856   7.496   5.480   3.502  5.5567 -1.0288 -1.1128
   36MOL    H87 7857   7.511   5.347   3.383 -0.0310  0.3120 -0.7725
   36MOL    H88 7858   7.050   5.496   3.420 -0.5661 -0.2650 -0.3717
   36MOL    H89 7859   7.057   5.602   3.552 -0.7900 -0.5821  0.4522
   36MOL    C90 7860   7.081   5.397   3.611  0.4209  0.0601  0.1766
   36MOL    C91 7861   6.948   5.321   3.597 -0.0447 -0.3738  0.2687
   36MOL    O92 7862   6.853   5.338   3.676  0.2829 -0.0910 -0.2669
   36MOL    C93 7863   6.946   5.221   3.483 -0.1779 -0.0750 -0.1114
   36MOL    C94 7864   7.106   5.423   3.759 -0.2760  0.1253 -0.5311
   36MOL    H95 7865   7.161   5.332   3.577  1.6944  1.6695  0.0504
   36MOL    H96 7866   7.040   5.228   3.426 -1.0661 -1.3131 -1.7533
   36MOL    H97 7867   6.927   5.119   3.514 -1.0814 -0.7517 -2.7812
   36MOL    H98 7868   6.862   5.257   3.424 -1.4073  0.3676  1.8748
   36MOL    H99 7869   7.028   5.496   3.782  1.4183  1.9124 -0.2867
   36MOL   H100 7870   7.197   5.481   3.772 -0.3387  0.5528 -1.9907
   36MOL   C101 7871   7.110   5.307   3.866 -0.4427  0.1666 -0.7622
   36MOL   C102 7872   7.143   5.355   4.010 -0.3117 -0.3733  0.7530
   36MOL   O103 7873   7.226   5.295   4.079 -0.1896  0.0633  0.1296
   36MOL   C104 7874   7.085   5.487   4.051 -1.1108 -0.0383  0.0065
   36MOL   C105 7875   7.214   5.195   3.817  0.7417 -0.7612  0.3183
   36MOL   H106 7876   7.010   5.263   3.877 -0.2849 -0.1680 -0.6616
   36MOL   H107 7877   6.977   5.505   4.046 -1.4839 -2.6150 -2.6548
   36MOL   H108 7878   7.135   5.524   4.140 -1.3744  0.7379 -0.1569
   36MOL   H109 7879   7.133   5.560   3.986  1.6880 -0.4066  1.6106
   36MOL   H110 7880   7.318   5.225   3.832  0.7723 -0.2063 -0.9393
   36MOL   H111 7881   7.201   5.181   3.710  0.2969 -0.1230  0.2815
   36MOL   C112 7882   7.171   5.055   3.866  0.2760  0.0339  0.7172
   36MOL   C113 7883   7.289   4.965   3.861  0.2109  1.0432 -0.3728
   36MOL   O114 7884   7.294   4.852   3.812 -0.0182  0.2151  0.1731
   36MOL   C115 7885   7.414   5.027   3.930  0.8207  0.8799 -0.0738
   36MOL   C116 7886   7.044   4.989   3.794  0.1914  0.0374 -0.5541
   36MOL   H117 7887   7.154   5.069   3.973  0.4151  3.1296  0.3741
   36MOL   H118 7888   7.393   5.098   4.010  1.8011  0.3350  0.6763
   36MOL   H119 7889   7.463   4.947   3.985 -1.4624 -0.2882  0.3077
   36MOL   H120 7890   7.492   5.065   3.864  1.3560 -2.4276 -1.4237
   36MOL   H121 7891   7.062   4.940   3.699  3.4790 -0.9451  0.4990
   36MOL   H122 7892   6.981   5.075   3.771  0.0207 -0.2718 -1.2565
   36MOL   C123 7893   6.970   4.888   3.880  0.3300 -0.0295 -0.1608
   36MOL   C124 7894   6.889   4.794   3.790 -0.4807  0.4117  0.2100
   36MOL   O125 7895   6.766   4.796   3.780 -0.4157  0.4784  0.2616
   36MOL   C126 7896   6.971   4.699   3.693  0.2013 -0.4616 -0.9234
   36MOL   C127 7897   6.874   4.957   3.984  0.2537  0.0862 -0.3712
   36MOL   H128 7898   7.036   4.812   3.921 -1.3292 -0.9755  0.7736
   36MOL   H129 7899   7.079   4.702   3.700  0.0999  0.4819  0.5647
   36MOL   H130 7900   6.937   4.597   3.712  0.2036 -0.4351 -0.7752
   36MOL   H131 7901   6.940   4.717   3.590 -1.5861  1.4420 -0.1068
   36MOL   H132 7902   6.807   5.019   3.923  0.4597 -0.2600 -0.9590
   36MOL   H133 7903   6.938   5.032   4.030 -1.0912  0.6051  0.6849
   36MOL   C134 7904   6.799   4.862   4.081  0.4019  0.4977 -0.1398
   36MOL   C135 7905   6.662   4.915   4.117  0.1409  0.0747  0.2370
   36MOL   O136 7906   6.648   4.999   4.205 -0.3216 -0.0125  0.2323
   36MOL   C137 7907   6.548   4.866   4.034 -0.3176  0.3035  0.1372
   36MOL   C138 7908   6.879   4.825   4.211 -0.1604 -0.7221  0.5845
   36MOL   H139 7909   6.778   4.765   4.037 -2.3901  0.9942  0.0547
   36MOL   H140 7910   6.461   4.932   4.035 -2.5217 -2.5115  0.0168
   36MOL   H141 7911   6.575   4.871   3.929 -1.2026  0.6570 -0.0831
   36MOL   H142 7912   6.516   4.766   4.065 -0.7761  0.0643 -1.0746
   36MOL   H143 7913   6.883   4.910   4.280  1.0111 -1.7936  1.8691
   36MOL   H144 7914   6.985   4.832   4.183 -0.0257  0.5560  1.3646
   36MOL   C145 7915   6.852   4.692   4.288  0.1165 -0.0577 -0.2199
   36MOL   C146 7916   6.753   4.715   4.410  0.1967  0.8585  0.6670
   36MOL   O147 7917   6.799   4.770   4.514  0.1283  0.0272 -0.0901
   36MOL   C148 7918   6.611   4.665   4.396 -0.2431  0.2606  0.2418
   36MOL   C149 7919   6.986   4.623   4.321 -0.6441 -0.8988  0.0752
   36MOL   H150 7920   6.810   4.625   4.213  1.3862  1.4538 -2.3281
   36MOL   H151 7921   6.565   4.676   4.494 -0.7747 -0.9553  0.1358
   36MOL   H152 7922   6.553   4.721   4.323  0.9001 -0.5095 -1.2915
   36MOL   H153 7923   6.604   4.562   4.360 -1.9885  0.6080 -0.4357
   36MOL   H154 7924   7.029   4.695   4.391  0.3420 -2.8392  1.5140
   36MOL   H155 7925   7.036   4.610   4.226  0.6282 -0.1465  0.6245
   36MOL   C156 7926   6.978   4.493   4.405 -0.0363  0.0601 -0.2241
   36MOL   C157 7927   7.104   4.466   4.489 -0.2033  0.2030  0.6134
   36MOL   O158 7928   7.213   4.428   4.443 -0.1594 -0.0951 -0.0167
   36MOL   C159 7929   7.090   4.471   4.642 -0.1978 -0.1111 -0.0671
   36MOL   C160 7930   6.947   4.361   4.328 -0.2091  0.2482  0.5754
   36MOL   H161 7931   6.898   4.503   4.479 -1.2215  1.6165 -1.6616
   36MOL   H162 7932   7.022   4.394   4.677 -0.5109  1.0144  1.8799
   36MOL   H163 7933   7.189   4.445   4.680 -0.0006  2.2809  1.1503
   36MOL   H164 7934   7.052   4.563   4.686  0.8820  1.7887 -2.9407
   36MOL   H165 7935   6.996   4.272   4.366  0.6356  0.4324 -0.0699
   36MOL   H166 7936   6.987   4.373   4.227 -0.7792 -0.0202  0.3133
   36MOL   C167 7937   6.800   4.326   4.319  1.0927  0.0742  0.3538
   36MOL   C168 7938   6.747   4.273   4.454  0.6687  0.8340  0.4696
   36MOL   O169 7939   6.811   4.180   4.511 -0.4565 -0.3034 -0.5067
   36MOL   C170 7940   6.619   4.325   4.507  0.4126  0.2711  1.0906
   36MOL   C171 7941   6.771   4.216   4.211  0.7563 -0.1224 -0.5340
   36MOL   H172 7942   6.739   4.412   4.292  0.9681 -0.9334 -2.7427
   36MOL   H173 7943   6.555   4.372   4.432  1.5055 -1.1438 -0.7916
   36MOL   H174 7944   6.571   4.244   4.560 -1.9444  1.9146  1.5346
   36MOL   H175 7945   6.658   4.399   4.576  0.1603 -0.2799  1.8282
   36MOL   H176 7946   6.817   4.118   4.230 -0.8437 -0.5881  1.0138
   36MOL   H177 7947   6.815   4.254   4.119  0.0234 -0.3124 -0.9586
   36MOL   C178 7948   6.617   4.188   4.189 -0.3610  0.1198 -0.8840
   36MOL   C179 7949   6.614   4.068   4.096  0.7173 -0.3335 -1.0991
   36MOL   O180 7950   6.625   4.077   3.972 -0.1254  0.0781 -0.3745
   36MOL   C181 7951   6.589   3.934   4.155 -0.1565  0.2065 -0.7140
   36MOL   C182 7952   6.532   4.310   4.149 -0.1758 -0.7721 -0.5094
   36MOL   H183 7953   6.580   4.160   4.288  2.0680  0.6799  0.2375
   36MOL   H184 7954   6.650   3.854   4.114  0.2305  0.9320 -1.5777
   36MOL   H185 7955   6.613   3.947   4.261  0.8180  2.0724 -1.1429
   36MOL   H186 7956   6.485   3.906   4.136  0.5609 -1.3784 -2.4358
   36MOL   H187 7957   6.558   4.391   4.218 -0.0926 -2.9831  2.1421
   36MOL   H188 7958   6.430   4.285   4.178 -0.1451 -1.6688 -1.1749
   36MOL   C189 7959   6.533   4.366   4.003  0.0738 -0.0163  0.0669
   36MOL   C190 7960   6.662   4.453   3.971 -0.4073  0.6349 -0.6398
   36MOL   O191 7961   6.688   4.553   4.039  0.2375 -0.2851  0.5443
   36MOL   C192 7962   6.774   4.396   3.887 -0.1125  0.3090  0.1952
   36MOL   C193 7963   6.413   4.454   3.978 -0.3356 -0.2673 -0.6348
   36MOL   H194 7964   6.524   4.279   3.938 -1.9426  0.0017  0.3007
   36MOL   H195 7965   6.745   4.291   3.884 -1.1665  0.5957 -0.2818
   36MOL   H196 7966   6.767   4.447   3.791 -2.9603 -0.4628 -0.0624
   36MOL   H197 7967   6.870   4.401   3.938  0.3399  1.4941 -0.7355
   36MOL   H198 7968   6.416   4.543   4.040  0.4923 -0.3712 -0.5273
   36MOL   H199 7969   6.322   4.407   4.015 -0.1741  0.0027  0.1040
   36MOL   C200 7970   6.377   4.504   3.839  0.7350 -0.4866 -0.8783
   36MOL   C201 7971   6.375   4.386   3.731 -0.7899 -0.4817 -0.0164
   36MOL   O202 7972   6.481   4.333   3.704 -0.2518  0.2031 -0.3873
   36MOL   C203 7973   6.245   4.337   3.671  0.2630 -0.7202 -0.2610
   36MOL   C204 7974   6.449   4.629   3.783 -1.3115  0.4841 -0.1233
   36MOL   H205 7975   6.275   4.538   3.852  1.4104  1.8221 -1.3118
   36MOL   H206 7976   6.270   4.235   3.639 -2.8081 -1.5465 -0.2081
   36MOL   H207 7977   6.172   4.350   3.751  3.2302 -0.9669  2.5524
   36MOL   H208 7978   6.216   4.397   3.584 -0.9925 -0.5693  0.2468
   36MOL   H209 7979   6.530   4.585   3.724 -0.9706  0.5928  0.2584
   36MOL   H210 7980   6.497   4.680   3.867 -1.5632  0.7539 -0.1409
   36MOL   C211 7981   6.379   4.738   3.702  0.2437 -0.5606 -0.5216
   36MOL   C212 7982   6.265   4.811   3.786 -0.6865  0.0294 -0.3271
   36MOL   O213 7983   6.265   4.800   3.906 -0.0398  0.4946 -0.3647
   36MOL   C214 7984   6.155   4.899   3.727  0.5024 -0.0709  0.6145
   36MOL   C215 7985   6.328   4.691   3.565 -0.0995 -0.2064 -0.3459
   36MOL   H216 7986   6.449   4.817   3.675 -1.1725  0.3089 -1.7684
   36MOL   H217 7987   6.136   4.987   3.788 -0.0860  0.7973 -0.7807
   36MOL   H218 7988   6.181   4.942   3.630  0.8083 -1.9351 -0.1491
   36MOL   H219 7989   6.060   4.848   3.711  0.8684 -1.0804  1.6308
   36MOL   H220 7990   6.406   4.639   3.511 -2.1796 -2.2822 -1.4293
   36MOL   H221 7991   6.294   4.771   3.499 -0.0380  1.7463  1.8848
   36MOL   H222 7992   6.248   4.619   3.579 -2.6103  2.6032  0.4253
   37MOL     C1 7993   1.312   4.993   6.808  0.2619  0.0836  0.9377
   37MOL     C2 7994   1.249   5.034   6.939 -0.1060  0.2500 -0.5017
   37MOL     O3 7995   1.297   5.122   7.014  0.3707 -0.7783 -0.3992
   37MOL     C4 7996   1.123   4.958   6.989 -0.1571 -0.1488  0.2357
   37MOL     C5 7997   1.451   5.057   6.779 -0.8001 -0.0043  0.3830
   37MOL     H6 7998   1.327   4.885   6.814  1.6858  0.2626  0.7446
   37MOL     H7 7999   1.080   5.006   7.077 -0.5253  0.8934 -0.4973
   37MOL     H8 8000   1.047   4.933   6.915 -0.0710 -0.5777  0.2906
   37MOL     H9 8001   1.151   4.862   7.032 -2.2958 -1.6760 -1.6575
   37MOL    H10 8002   1.510   5.049   6.870  1.0283  1.6046 -0.6276
   37MOL    H11 8003   1.438   5.165   6.774 -0.3320  0.1066  1.5219
   37MOL    H12 8004   1.242   5.019   6.728 -0.9872  0.4421  2.1339
   37MOL    C13 8005   1.524   4.985   6.654 -0.1955 -0.4467  0.7484
   37MOL    C14 8006   1.663   5.053   6.621  0.3396  0.1278  0.9281
   37MOL    O15 8007   1.673   5.174   6.597 -0.1370  0.0592 -0.4642
   37MOL    C16 8008   1.782   4.960   6.608 -0.0122  0.1026  0.1172
   37MOL    C17 8009   1.442   5.006   6.524  0.8759  0.0082  0.3158
   37MOL    H18 8010   1.538   4.878   6.671  0.7670 -0.3868  0.3593
   37MOL    H19 8011   1.781   4.896   6.696 -0.1291  0.4562  0.3736
   37MOL    H20 8012   1.774   4.894   6.522  1.1567 -1.1101  0.9224
   37MOL    H21 8013   1.876   5.015   6.602 -1.3465  2.4663  0.0676
   37MOL    H22 8014   1.461   5.113   6.509 -0.3270  0.1214 -0.4794
   37MOL    H23 8015   1.336   4.990   6.543  1.2495 -0.2766  2.2860
   37MOL    C24 8016   1.472   4.927   6.396  0.4118  0.7891  0.7844
   37MOL    C25 8017   1.486   5.013   6.269 -0.0801  0.5362 -0.1036
   37MOL    O26 8018   1.604   5.030   6.226  0.2945 -0.2531 -0.0311
   37MOL    C27 8019   1.362   5.090   6.214  0.1577  0.1298  0.5750
   37MOL    C28 8020   1.387   4.806   6.359  1.0652  0.0823 -1.0144
   37MOL    H29 8021   1.570   4.880   6.407 -0.3051 -0.7344  0.7484
   37MOL    H30 8022   1.333   5.067   6.111 -0.4666 -2.4697  1.2803
   37MOL    H31 8023   1.272   5.076   6.273  0.4875  1.8620  1.4960
   37MOL    H32 8024   1.392   5.194   6.216  0.9076 -0.0754  0.2502
   37MOL    H33 8025   1.423   4.755   6.269 -0.9290 -1.5569 -0.9324
   37MOL    H34 8026   1.289   4.849   6.338  0.7811  0.0610  0.2156
   37MOL    C35 8027   1.365   4.707   6.482 -0.1339  0.1164  0.0111
   37MOL    C36 8028   1.484   4.612   6.505  1.0037  0.0896 -0.6240
   37MOL    O37 8029   1.562   4.577   6.412  0.2404  0.3156 -0.0796
   37MOL    C38 8030   1.505   4.564   6.644 -0.3328  0.9068 -0.1645
   37MOL    C39 8031   1.237   4.621   6.481 -0.5224  0.1819 -0.0309
   37MOL    H40 8032   1.346   4.766   6.572  0.8566  1.7038 -0.7931
   37MOL    H41 8033   1.572   4.478   6.641 -1.8393 -0.3539  1.3259
   37MOL    H42 8034   1.555   4.642   6.702 -0.2717  1.1490 -0.5400
   37MOL    H43 8035   1.413   4.524   6.685 -0.6241  0.7086 -1.0100
   37MOL    H44 8036   1.217   4.592   6.584  0.4244 -2.0306 -0.4585
   37MOL    H45 8037   1.247   4.529   6.424  0.4133 -0.2181  0.7637
   37MOL    C46 8038   1.106   4.686   6.428  0.3753  0.2686  0.0034
   37MOL    C47 8039   1.070   4.806   6.523 -0.1375 -0.1321 -0.2989
   37MOL    O48 8040   1.082   4.793   6.641 -0.2471  0.6293  0.1314
   37MOL    C49 8041   1.017   4.937   6.470 -0.2796  0.1765  0.5252
   37MOL    C50 8042   0.985   4.590   6.443  1.1471 -0.4100  0.5495
   37MOL    H51 8043   1.115   4.713   6.323 -2.4793 -0.9755 -0.6134
   37MOL    H52 8044   1.005   4.989   6.565 -0.3712 -0.4457  0.8560
   37MOL    H53 8045   1.091   4.997   6.418  0.9801 -1.3409  0.5345
   37MOL    H54 8046   0.931   4.928   6.404  0.0755 -1.5390  0.2665
   37MOL    H55 8047   0.947   4.574   6.544 -0.5600 -0.3925 -0.0793
   37MOL    H56 8048   1.020   4.491   6.414  1.4238 -0.2847  0.4563
   37MOL    C57 8049   0.864   4.628   6.355  0.3901  0.1383 -0.2249
   37MOL    C58 8050   0.732   4.565   6.389  0.4603  0.6188 -0.0366
   37MOL    O59 8051   0.722   4.440   6.378 -0.1935  0.3705  0.0176
   37MOL    C60 8052   0.622   4.653   6.441  0.5046  0.4742 -0.0231
   37MOL    C61 8053   0.898   4.600   6.205 -0.1725  0.2453  0.1788
   37MOL    H62 8054   0.845   4.735   6.370 -1.2736 -0.5260  2.9471
   37MOL    H63 8055   0.544   4.682   6.370 -0.0779  1.8968  1.1621
   37MOL    H64 8056   0.576   4.613   6.531  0.6095 -0.2230 -0.2817
   37MOL    H65 8057   0.665   4.749   6.470  0.3685  0.7415 -0.6844
   37MOL    H66 8058   0.882   4.494   6.185  1.1566 -0.2609  1.7375
   37MOL    H67 8059   1.003   4.594   6.177 -0.8286 -2.5443 -1.8442
   37MOL    C68 8060   0.821   4.692   6.101 -0.3551  0.3912  0.0347
   37MOL    C69 8061   0.831   4.610   5.966 -0.3532 -0.5025  0.2112
   37MOL    O70 8062   0.921   4.628   5.883  0.6300  0.5252 -0.3895
   37MOL    C71 8063   0.724   4.505   5.936 -0.4993  0.1938 -1.4979
   37MOL    C72 8064   0.886   4.830   6.097  0.0311  0.0344  0.3232
   37MOL    H73 8065   0.715   4.707   6.121 -0.4895  1.3475 -1.3486
   37MOL    H74 8066   0.710   4.479   5.830  1.5507 -3.0058 -1.0487
   37MOL    H75 8067   0.754   4.414   5.987  0.3218  1.2821 -0.0371
   37MOL    H76 8068   0.628   4.540   5.974 -1.3349 -1.7210 -1.8093
   37MOL    H77 8069   0.994   4.821   6.088  0.1705  1.3059  0.5368
   37MOL    H78 8070   0.872   4.889   6.188  1.4223 -2.2638  2.1012
   37MOL    C79 8071   0.844   4.927   5.986 -0.5214 -0.1742  0.2661
   37MOL    C80 8072   0.918   5.059   6.007  0.6488 -0.3073  0.1872
   37MOL    O81 8073   0.861   5.153   6.054 -0.1781  0.2096  0.2975
   37MOL    C82 8074   1.058   5.075   5.955 -0.5023  0.0131  0.3237
   37MOL    C83 8075   0.695   4.956   5.964 -0.7702  0.0471 -0.0269
   37MOL    H84 8076   0.881   4.884   5.893  1.3500 -0.0187  0.9145
   37MOL    H85 8077   1.067   5.021   5.860 -2.5465 -1.8069  1.1195
   37MOL    H86 8078   1.089   5.176   5.931 -0.0901 -0.7152 -2.3691
   37MOL    H87 8079   1.129   5.038   6.029 -2.1257 -1.1104  1.3314
   37MOL    H88 8080   0.650   4.992   6.056 -1.0721  0.4128 -0.3147
   37MOL    H89 8081   0.649   4.858   5.957  1.8285 -1.4030  2.1141
   37MOL    C90 8082   0.660   5.026   5.826 -0.1707 -0.0001  0.6823
   37MOL    C91 8083   0.568   5.144   5.837  0.1257 -0.1474  0.0782
   37MOL    O92 8084   0.457   5.126   5.882  0.2128  0.0464  0.8747
   37MOL    C93 8085   0.620   5.281   5.790 -0.5477 -0.3540 -0.4923
   37MOL    C94 8086   0.605   4.928   5.719  0.5231  0.4273  0.8582
   37MOL    H95 8087   0.748   5.065   5.775 -0.3079  0.7852  1.0335
   37MOL    H96 8088   0.623   5.292   5.682  1.0213  1.7469 -0.2686
   37MOL    H97 8089   0.553   5.359   5.828  2.2903  1.0659  1.7887
   37MOL    H98 8090   0.719   5.310   5.825 -1.0484  0.1079  0.5882
   37MOL    H99 8091   0.541   4.991   5.658  1.1594 -0.3305 -0.6100
   37MOL   H100 8092   0.550   4.843   5.760  1.3814 -1.1155 -1.1021
   37MOL   C101 8093   0.709   4.861   5.628 -0.1757  0.0723  0.1246
   37MOL   C102 8094   0.779   4.957   5.536 -0.3602 -0.0952  0.4396
   37MOL   O103 8095   0.894   4.990   5.564 -0.1782 -0.3409 -0.4213
   37MOL   C104 8096   0.713   5.021   5.412  0.3494 -0.0678  0.1694
   37MOL   C105 8097   0.660   4.736   5.549 -0.0395  0.5470  0.4910
   37MOL   H106 8098   0.779   4.810   5.695  0.3333  0.8365  0.1813
   37MOL   H107 8099   0.681   4.940   5.345 -1.5682 -0.2851  1.3084
   37MOL   H108 8100   0.620   5.075   5.428  0.1696 -0.0667 -0.8410
   37MOL   H109 8101   0.782   5.074   5.346 -1.7290  0.7066 -1.4495
   37MOL   H110 8102   0.578   4.771   5.486 -0.4243 -1.5571 -0.2152
   37MOL   H111 8103   0.599   4.670   5.610  0.7743  0.2830  1.0321
   37MOL   C112 8104   0.759   4.652   5.462 -0.7856  0.3630 -0.3756
   37MOL   C113 8105   0.675   4.575   5.357 -0.2398 -1.0276  0.7377
   37MOL   O114 8106   0.596   4.490   5.394 -0.0646  0.3323 -0.3890
   37MOL   C115 8107   0.686   4.618   5.219 -0.6309 -0.2850  0.0141
   37MOL   C116 8108   0.854   4.564   5.549  0.0770 -0.1984  0.3339
   37MOL   H117 8109   0.811   4.724   5.399 -1.1692  0.6831 -0.3285
   37MOL   H118 8110   0.726   4.718   5.201  0.1155 -0.3426  1.2629
   37MOL   H119 8111   0.743   4.546   5.160 -1.8245 -0.2157 -1.2710
   37MOL   H120 8112   0.582   4.620   5.186 -1.4127 -0.6360  2.3602
   37MOL   H121 8113   0.811   4.464   5.551  1.7453 -1.0575 -2.9119
   37MOL   H122 8114   0.836   4.592   5.652 -1.5380 -1.7068  0.4891
   37MOL   C123 8115   1.003   4.546   5.496 -0.3879 -0.0618 -0.0452
   37MOL   C124 8116   1.061   4.676   5.455  0.9647 -0.5937 -0.4915
   37MOL   O125 8117   1.058   4.720   5.341 -0.4615 -0.0195  0.1189
   37MOL   C126 8118   1.096   4.766   5.573  0.1544  0.4391  0.1212
   37MOL   C127 8119   1.005   4.442   5.376 -0.4028  0.1629  0.8244
   37MOL   H128 8120   1.064   4.494   5.571 -1.2349 -0.9727  0.0373
   37MOL   H129 8121   1.128   4.863   5.537  1.2149 -0.3643 -1.1058
   37MOL   H130 8122   1.016   4.773   5.647  1.3725  1.1073  1.3910
   37MOL   H131 8123   1.177   4.721   5.630  1.3288  0.7829 -1.2834
   37MOL   H132 8124   0.970   4.479   5.280  0.3338 -0.4501  0.3115
   37MOL   H133 8125   0.933   4.364   5.399  1.4036 -1.9092 -0.3090
   37MOL   C134 8126   1.152   4.374   5.343  0.7318 -0.2584  0.4377
   37MOL   C135 8127   1.239   4.469   5.248 -0.2656 -0.4407 -0.4114
   37MOL   O136 8128   1.211   4.510   5.137  0.4534  0.5369  0.2411
   37MOL   C137 8129   1.367   4.520   5.309  0.1726  0.4298  0.4413
   37MOL   C138 8130   1.120   4.240   5.274 -0.3866  0.5721 -0.0568
   37MOL   H139 8131   1.198   4.356   5.440  0.4675 -1.9222  0.2773
   37MOL   H140 8132   1.447   4.521   5.235 -0.5600 -0.5351 -0.3864
   37MOL   H141 8133   1.368   4.620   5.352  0.5256  0.2216  0.9193
   37MOL   H142 8134   1.400   4.451   5.387  3.0242  1.6370  0.3759
   37MOL   H143 8135   1.074   4.238   5.176  0.5645  0.0471 -0.5048
   37MOL   H144 8136   1.038   4.191   5.326 -0.2907  1.4072  0.8975
   37MOL   C145 8137   1.233   4.135   5.251 -0.9357  0.2590 -0.4449
   37MOL   C146 8138   1.307   4.118   5.387  0.4699  0.2199  0.2269
   37MOL   O147 8139   1.402   4.191   5.417 -0.2803 -0.0359 -0.1807
   37MOL   C148 8140   1.261   4.004   5.472 -0.3511 -0.5855 -0.1882
   37MOL   C149 8141   1.321   4.173   5.132  0.1127  0.8627 -0.4427
   37MOL   H150 8142   1.190   4.037   5.227  1.2452 -0.9719  0.5731
   37MOL   H151 8143   1.324   3.986   5.559 -1.3056  0.2116  0.6859
   37MOL   H152 8144   1.162   4.020   5.514 -0.0464 -4.1235  2.0753
   37MOL   H153 8145   1.250   3.910   5.417 -1.1626 -0.6618  0.1028
   37MOL   H154 8146   1.408   4.226   5.170  2.0462 -1.3781 -1.6157
   37MOL   H155 8147   1.271   4.234   5.057 -0.8350  1.0123  0.3012
   37MOL   C156 8148   1.367   4.044   5.055 -0.4475  1.0327 -0.1027
   37MOL   C157 8149   1.500   4.076   4.977 -1.0784 -0.2943  0.8635
   37MOL   O158 8150   1.494   4.106   4.857  0.5935 -0.2749 -0.3066
   37MOL   C159 8151   1.638   4.091   5.043 -0.1900 -0.2350  0.2754
   37MOL   C160 8152   1.247   3.993   4.971 -0.3334 -0.0748 -1.0520
   37MOL   H161 8153   1.400   3.972   5.130 -1.2792  2.8257  2.0456
   37MOL   H162 8154   1.617   4.107   5.149 -1.0789 -2.8394  0.5196
   37MOL   H163 8155   1.708   4.010   5.022 -1.1681 -1.5967  2.0983
   37MOL   H164 8156   1.684   4.181   5.001 -1.6004  0.8406  0.9824
   37MOL   H165 8157   1.233   4.082   4.909  0.1647  2.1917  1.9772
   37MOL   H166 8158   1.150   3.982   5.020 -1.0809  1.2365 -2.1995
   37MOL   C167 8159   1.267   3.870   4.882  0.5445  0.5438  0.0548
   37MOL   C168 8160   1.182   3.866   4.757 -0.0398  0.5298 -0.3852
   37MOL   O169 8161   1.074   3.921   4.749 -0.1676  0.3914 -0.1386
   37MOL   C170 8162   1.236   3.788   4.637 -0.2876 -0.0135  0.1230
   37MOL   C171 8163   1.264   3.736   4.953  0.8110 -0.3104  0.4418
   37MOL   H172 8164   1.368   3.885   4.846 -0.0248  1.9588 -0.9729
   37MOL   H173 8165   1.166   3.809   4.556  0.0394 -1.7254 -0.6068
   37MOL   H174 8166   1.335   3.821   4.606  0.3137 -3.8138 -2.3447
   37MOL   H175 8167   1.230   3.682   4.662  1.3159  0.3431  2.1852
   37MOL   H176 8168   1.333   3.735   5.037  1.7918 -1.7094 -0.3725
   37MOL   H177 8169   1.321   3.667   4.892 -0.2415 -2.7551  2.1615
   37MOL   C178 8170   1.130   3.675   5.006  0.0053  0.1924  0.5634
   37MOL   C179 8171   1.077   3.746   5.130  0.0033  0.4641  0.0180
   37MOL   O180 8172   1.125   3.735   5.241 -0.6387  0.5432 -0.3853
   37MOL   C181 8173   0.953   3.829   5.108  0.0367  0.4913 -0.7958
   37MOL   C182 8174   1.155   3.525   5.046  0.1421 -0.8110 -0.1429
   37MOL   H183 8175   1.064   3.671   4.919  1.0536  1.4049 -0.3254
   37MOL   H184 8176   0.955   3.908   5.183 -2.9006  0.3656 -0.5467
   37MOL   H185 8177   0.945   3.875   5.010  1.7576  0.7229 -0.8539
   37MOL   H186 8178   0.872   3.763   5.141  0.6519  0.2462  0.2655
   37MOL   H187 8179   1.233   3.523   5.122  1.8858 -1.9753 -1.9164
   37MOL   H188 8180   1.193   3.461   4.966 -0.2058  1.4494 -2.1797
   37MOL   C189 8181   1.034   3.455   5.107  0.5519  0.3425  0.1561
   37MOL   C190 8182   1.060   3.299   5.124  0.3430 -0.2253 -0.4392
   37MOL   O191 8183   1.041   3.227   5.028  0.4320 -0.0493  0.4718
   37MOL   C192 8184   1.130   3.255   5.248  0.0030  0.5066  0.3644
   37MOL   C193 8185   0.892   3.470   5.035 -0.6659 -0.3318  0.2531
   37MOL   H194 8186   1.034   3.496   5.208 -0.8909 -1.8168  1.0644
   37MOL   H195 8187   1.069   3.179   5.297 -2.6222  2.2916 -0.0387
   37MOL   H196 8188   1.224   3.207   5.219 -0.4847 -0.3453  0.1672
   37MOL   H197 8189   1.151   3.339   5.314  0.7414 -0.4447  1.3523
   37MOL   H198 8190   0.888   3.414   4.941  0.5952  1.1725 -0.7253
   37MOL   H199 8191   0.877   3.572   4.999  0.8712 -0.7142 -1.5224
   37MOL   C200 8192   0.773   3.421   5.118 -0.8705  0.4728 -0.2174
   37MOL   C201 8193   0.646   3.406   5.035 -0.5714  0.6006  0.6497
   37MOL   O202 8194   0.558   3.490   5.045  0.6747  0.1231 -0.6629
   37MOL   C203 8195   0.640   3.291   4.937  0.1634  0.2106  0.3634
   37MOL   C204 8196   0.745   3.518   5.235  0.9690  0.2606  0.5348
   37MOL   H205 8197   0.789   3.324   5.164  1.8220  0.6267 -0.7281
   37MOL   H206 8198   0.542   3.288   4.889  1.2298  2.2371 -2.0666
   37MOL   H207 8199   0.720   3.315   4.866  1.0072  0.7927  1.5052
   37MOL   H208 8200   0.667   3.197   4.985  1.6499  0.3303 -0.1996
   37MOL   H209 8201   0.687   3.606   5.206  2.1001  0.5834 -0.7731
   37MOL   H210 8202   0.836   3.562   5.275  2.1892 -2.5747  0.9575
   37MOL   C211 8203   0.690   3.437   5.359 -0.3692  0.2185  0.7974
   37MOL   C212 8204   0.593   3.521   5.448  0.2583 -0.0488 -0.7635
   37MOL   O213 8205   0.536   3.626   5.409 -0.2832  0.8095  0.0966
   37MOL   C214 8206   0.546   3.458   5.576  0.1571 -0.3090 -0.4555
   37MOL   C215 8207   0.814   3.386   5.439  0.1600 -0.4450  0.1770
   37MOL   H216 8208   0.634   3.350   5.323  1.6671 -0.8888  0.2217
   37MOL   H217 8209   0.585   3.360   5.604  2.8259  1.1092  0.9464
   37MOL   H218 8210   0.579   3.519   5.660  3.1196 -1.5277 -0.6551
   37MOL   H219 8211   0.438   3.463   5.589  0.1399 -1.2445 -0.1595
   37MOL   H220 8212   0.868   3.452   5.507  1.0388 -2.6577  1.7038
   37MOL   H221 8213   0.882   3.345   5.364 -0.4186 -1.1055  0.0094
   37MOL   H222 8214   0.786   3.297   5.496  0.8163 -1.4266 -0.9988
   38MOL     C1 8215   0.584   2.451   6.773  0.9427 -1.0111 -0.3718
   38MOL     C2 8216   0.449   2.374   6.802  0.2057 -0.2069 -0.0874
   38MOL     O3 8217   0.334   2.427   6.786  0.0628  0.2575 -0.1515
   38MOL     C4 8218   0.462   2.235   6.866  1.1260 -0.7396  0.0781
   38MOL     C5 8219   0.571   2.606   6.760  0.0380 -0.2432  0.1590
   38MOL     H6 8220   0.657   2.425   6.849  1.4309  0.3891 -0.3467
   38MOL     H7 8221   0.377   2.218   6.933  2.5610 -0.3811  2.0289
   38MOL     H8 8222   0.473   2.159   6.789 -1.0781 -2.2120  1.1598
   38MOL     H9 8223   0.557   2.239   6.919  0.4630  0.8180  1.2170
   38MOL    H10 8224   0.501   2.642   6.835  1.1875 -1.4037  1.8220
   38MOL    H11 8225   0.516   2.626   6.668  2.7518 -0.3465 -1.5486
   38MOL    H12 8226   0.628   2.420   6.678  2.3723  1.1647 -0.4766
   38MOL    C13 8227   0.701   2.689   6.768 -0.2448 -0.0866  0.6370
   38MOL    C14 8228   0.809   2.643   6.662 -0.1538  0.9507 -0.1642
   38MOL    O15 8229   0.895   2.562   6.694  0.8025  0.2168  0.0753
   38MOL    C16 8230   0.790   2.695   6.519 -0.4602 -0.0213  0.0819
   38MOL    C17 8231   0.767   2.696   6.903  0.1687  0.4994 -0.2861
   38MOL    H18 8232   0.664   2.790   6.747  2.2603  0.6427 -0.4250
   38MOL    H19 8233   0.759   2.610   6.459  0.1800 -1.2294  1.4298
   38MOL    H20 8234   0.713   2.771   6.508  0.0851  0.3325 -1.3915
   38MOL    H21 8235   0.887   2.732   6.487  0.5708 -3.7166 -1.3247
   38MOL    H22 8236   0.873   2.672   6.905  0.1949  0.7040  1.8425
   38MOL    H23 8237   0.720   2.628   6.974  1.2759  0.8598  0.7893
   38MOL    C24 8238   0.752   2.831   6.971  0.1363 -0.1219 -0.1535
   38MOL    C25 8239   0.816   2.942   6.883 -0.5091 -0.4900  0.4171
   38MOL    O26 8240   0.894   2.920   6.791 -0.7795  0.1148 -0.4604
   38MOL    C27 8241   0.794   3.083   6.921 -0.3072 -0.2217  0.4232
   38MOL    C28 8242   0.817   2.834   7.110  0.5652  0.1988  0.2016
   38MOL    H29 8243   0.647   2.860   6.977  0.3947  0.9737 -0.8328
   38MOL    H30 8244   0.844   3.124   7.008 -0.5813 -0.1968  0.5666
   38MOL    H31 8245   0.833   3.138   6.835  1.5063  0.3262  1.5767
   38MOL    H32 8246   0.690   3.113   6.925 -0.8441 -2.0473  0.4483
   38MOL    H33 8247   0.819   2.931   7.159 -0.4675 -0.1755  1.0316
   38MOL    H34 8248   0.924   2.825   7.092  0.4862  0.9711 -0.6583
   38MOL    C35 8249   0.768   2.729   7.214 -0.9897  0.2719 -0.4303
   38MOL    C36 8250   0.616   2.743   7.238  0.0702  0.3244  0.6251
   38MOL    O37 8251   0.563   2.838   7.289 -0.2398  0.0115  0.0270
   38MOL    C38 8252   0.529   2.629   7.182 -0.9923  0.1932 -0.0759
   38MOL    C39 8253   0.859   2.738   7.343 -0.2612 -0.0704  0.1411
   38MOL    H40 8254   0.781   2.630   7.170  0.8400  1.2175 -2.0881
   38MOL    H41 8255   0.522   2.639   7.074  1.6525  1.4366 -0.1666
   38MOL    H42 8256   0.577   2.533   7.201  0.3796  1.2007  1.8101
   38MOL    H43 8257   0.428   2.633   7.222 -0.4394  1.6049  1.2660
   38MOL    H44 8258   0.822   2.811   7.415 -0.3732  1.5850 -1.5557
   38MOL    H45 8259   0.964   2.763   7.329  0.0963 -1.9062 -0.6351
   38MOL    C46 8260   0.875   2.607   7.424 -0.0959  0.3378 -0.5051
   38MOL    C47 8261   0.776   2.606   7.548 -0.1041 -0.1158  0.3940
   38MOL    O48 8262   0.811   2.643   7.665 -0.2583 -0.1876 -0.4757
   38MOL    C49 8263   0.633   2.566   7.528 -0.6826  0.2587 -0.2169
   38MOL    C50 8264   1.017   2.593   7.483 -0.7486  0.3109 -0.4639
   38MOL    H51 8265   0.853   2.530   7.350  1.3050  0.4553 -1.0451
   38MOL    H52 8266   0.595   2.489   7.595  0.2976 -0.4595 -0.4680
   38MOL    H53 8267   0.576   2.658   7.541 -0.2576  0.2395  2.0099
   38MOL    H54 8268   0.618   2.544   7.422 -0.3413 -1.9756  0.1702
   38MOL    H55 8269   1.048   2.685   7.533  0.2540 -0.1787 -0.1745
   38MOL    H56 8270   1.077   2.594   7.392  0.4005  1.1703  0.2896
   38MOL    C57 8271   1.051   2.461   7.560  0.7114 -0.1246  0.1836
   38MOL    C58 8272   1.171   2.499   7.650 -0.7945  0.2231 -0.8897
   38MOL    O59 8273   1.270   2.555   7.598  0.0863  0.1805 -0.3693
   38MOL    C60 8274   1.164   2.469   7.801 -0.2336 -0.2007 -0.9053
   38MOL    C61 8275   1.075   2.335   7.472 -0.6390 -0.4277 -0.3244
   38MOL    H62 8276   0.974   2.444   7.636 -0.8687  1.9677 -0.9165
   38MOL    H63 8277   1.187   2.366   7.828  0.5024 -0.7238 -3.3905
   38MOL    H64 8278   1.229   2.538   0.013 -1.2645 -0.5024  0.7492
   38MOL    H65 8279   1.066   2.483   0.004  0.5475 -0.8019  1.0541
   38MOL    H66 8280   1.179   2.303   7.464 -0.4431  0.4902 -1.7033
   38MOL    H67 8281   1.057   2.353   7.365  2.6146  0.0135 -0.8408
   38MOL    C68 8282   1.003   2.208   7.513  0.2035 -0.4941 -0.6192
   38MOL    C69 8283   1.067   2.140   7.634 -0.1362 -0.5210  0.1452
   38MOL    O70 8284   1.028   2.151   7.747  0.3077  0.2321 -0.8328
   38MOL    C71 8285   1.189   2.048   7.615  0.5137  0.2351  0.0401
   38MOL    C72 8286   0.992   2.110   7.395 -0.0429  0.3167 -0.3862
   38MOL    H73 8287   0.901   2.240   7.536  0.8997  3.7151 -2.8272
   38MOL    H74 8288   1.268   2.068   7.689  0.3323  0.7086  0.1065
   38MOL    H75 8289   1.157   1.944   7.613 -1.5101  0.8237  0.7887
   38MOL    H76 8290   1.227   2.080   7.518  0.9392  2.4932  0.9091
   38MOL    H77 8291   1.088   2.061   7.382 -0.0733  0.4030 -0.9570
   38MOL    H78 8292   0.980   2.160   7.299  0.9972 -1.6704 -1.5888
   38MOL    C79 8293   0.886   1.997   7.413 -0.4116 -0.5922 -0.5347
   38MOL    C80 8294   0.919   1.871   7.332  0.4948  0.4348  0.2348
   38MOL    O81 8295   0.987   1.873   7.235 -0.2559  0.1211  0.7352
   38MOL    C82 8296   0.848   1.747   7.382 -0.8366 -0.5953 -0.1414
   38MOL    C83 8297   0.735   2.041   7.414  0.5831 -0.1908 -0.0739
   38MOL    H84 8298   0.902   1.961   7.514  0.5558  0.0720 -0.4537
   38MOL    H85 8299   0.916   1.665   7.361  0.1617 -0.7065  3.2517
   38MOL    H86 8300   0.829   1.757   7.488 -0.0924 -0.4566 -0.0190
   38MOL    H87 8301   0.752   1.729   7.332 -1.2762  0.2696  0.3738
   38MOL    H88 8302   0.716   2.112   7.495 -0.4953 -0.1078 -0.3919
   38MOL    H89 8303   0.678   1.952   7.438  1.5504 -0.7773  0.0950
   38MOL    C90 8304   0.688   2.103   7.279  0.3510 -0.2211  0.1115
   38MOL    C91 8305   0.734   2.247   7.258 -0.2020  0.5043 -0.2454
   38MOL    O92 8306   0.730   2.331   7.346 -0.2164 -0.2782 -0.2410
   38MOL    C93 8307   0.792   2.279   7.116  0.5105  0.0293  0.0969
   38MOL    C94 8308   0.536   2.106   7.263 -0.4850  0.1019  0.1600
   38MOL    H95 8309   0.733   2.053   7.193 -0.6194 -1.0737  0.0976
   38MOL    H96 8310   0.715   2.251   7.045  1.0987  1.6999 -1.2473
   38MOL    H97 8311   0.818   2.385   7.110  1.8776 -0.3635 -1.3336
   38MOL    H98 8312   0.874   2.208   7.103  0.5794  0.2846 -0.8844
   38MOL    H99 8313   0.521   2.181   7.184  1.1580  0.4838  0.1879
   38MOL   H100 8314   0.492   2.140   7.356  1.3015  0.0680  1.0395
   38MOL   C101 8315   0.479   1.968   7.234  0.0960  0.5113  0.0619
   38MOL   C102 8316   0.499   1.936   7.088 -0.2786  0.0225 -0.0445
   38MOL   O103 8317   0.417   1.967   7.003  0.1494 -0.1261  0.5990
   38MOL   C104 8318   0.629   1.871   7.044 -0.8811  0.1687 -0.2653
   38MOL   C105 8319   0.333   1.964   7.270 -0.6114 -0.4461 -0.3409
   38MOL   H106 8320   0.530   1.898   7.300 -1.3984 -1.1465 -0.5081
   38MOL   H107 8321   0.619   1.773   6.998 -0.9040 -2.2179  4.5382
   38MOL   H108 8322   0.675   1.934   6.967  0.5440  1.7757  1.8348
   38MOL   H109 8323   0.695   1.835   7.123 -0.7716  0.1845 -0.3480
   38MOL   H110 8324   0.280   2.014   7.189  0.6206 -0.4352 -1.1526
   38MOL   H111 8325   0.298   2.014   7.360 -1.6222  2.0504 -2.0598
   38MOL   C112 8326   0.265   1.821   7.294  0.0139 -0.7177  0.1968
   38MOL   C113 8327   0.115   1.834   7.304 -0.0413  0.0550  0.0179
   38MOL   O114 8328   0.058   1.884   7.399 -0.2062  0.0085  0.2526
   38MOL   C115 8329   0.039   1.765   7.189 -0.1524  0.1420 -0.4680
   38MOL   C116 8330   0.327   1.749   7.417  0.2852  0.6472  0.3574
   38MOL   H117 8331   0.291   1.759   7.208 -0.9086  0.3306 -0.8529
   38MOL   H118 8332   0.049   1.657   7.188 -0.9838  0.0501  0.4494
   38MOL   H119 8333   7.774   1.783   7.194 -0.3027 -1.0843  0.9349
   38MOL   H120 8334   0.073   1.804   7.093  0.6940  1.5061  0.3703
   38MOL   H121 8335   0.271   1.776   7.507  2.5639 -1.7110  2.5457
   38MOL   H122 8336   0.417   1.809   7.433  0.6485  0.9096 -2.4990
   38MOL   C123 8337   0.353   1.597   7.413 -0.0092 -0.5096  0.2633
   38MOL   C124 8338   0.223   1.513   7.408 -0.5443 -0.6323  0.7861
   38MOL   O125 8339   0.129   1.529   7.488 -0.2550 -0.0521 -0.3233
   38MOL   C126 8340   0.198   1.419   7.287 -0.4244  0.0305 -0.7083
   38MOL   C127 8341   0.456   1.548   7.516  0.3249 -0.3867  0.0758
   38MOL   H128 8342   0.388   1.580   7.312 -0.3289 -1.7253  0.3482
   38MOL   H129 8343   0.184   1.320   7.330 -0.0461  0.1697 -0.2549
   38MOL   H130 8344   0.104   1.450   7.242 -1.8888  0.5331  2.5518
   38MOL   H131 8345   0.284   1.410   7.220  0.9012  0.9003  0.8270
   38MOL   H132 8346   0.548   1.603   7.499  0.3333 -0.6840 -0.8858
   38MOL   H133 8347   0.476   1.450   7.473 -2.2015 -0.5130 -0.9252
   38MOL   C134 8348   0.415   1.532   7.667 -0.0738  0.0616  0.5677
   38MOL   C135 8349   0.354   1.659   7.739 -0.2633  0.5208  0.0337
   38MOL   O136 8350   0.399   1.770   7.718 -0.0225  0.0497  0.5173
   38MOL   C137 8351   0.234   1.639   7.833 -0.5518  0.5595 -0.3387
   38MOL   C138 8352   0.538   1.477   7.751  0.0710  0.0848  1.0355
   38MOL   H139 8353   0.341   1.453   7.680  1.0166 -1.3626 -1.6515
   38MOL   H140 8354   0.211   1.738   0.031 -1.8979  0.8610 -1.7963
   38MOL   H141 8355   0.156   1.590   7.774 -0.0435 -1.2363  0.4427
   38MOL   H142 8356   0.263   1.579   0.078  1.8865  0.7186 -0.9963
   38MOL   H143 8357   0.557   1.382   7.702  1.0778 -0.1460  1.8595
   38MOL   H144 8358   0.511   1.449   0.011  0.3666  0.9402  1.3575
   38MOL   C145 8359   0.673   1.554   7.750  0.5276 -1.4206  0.4069
   38MOL   C146 8360   0.785   1.453   7.732 -0.2638 -0.0874 -0.3158
   38MOL   O147 8361   0.833   1.389   7.824  0.0469  0.1693 -0.7779
   38MOL   C148 8362   0.836   1.429   7.595 -0.2033  0.3726 -0.9665
   38MOL   C149 8363   0.666   1.643   0.034 -0.5812 -0.0116  0.2156
   38MOL   H150 8364   0.675   1.626   7.668 -4.2032  0.0334  1.3977
   38MOL   H151 8365   0.899   1.514   7.568  0.1488  0.5633  0.4279
   38MOL   H152 8366   0.893   1.336   7.594 -0.4822  0.1939  0.0539
   38MOL   H153 8367   0.758   1.405   7.522 -0.9648 -0.9980  0.2659
   38MOL   H154 8368   0.651   1.579   0.122 -0.6401  0.5581  0.6232
   38MOL   H155 8369   0.572   1.699   0.033 -0.6789 -0.1162  1.5211
   38MOL   C156 8370   0.776   1.753   0.060 -0.0744 -0.1439 -0.4672
   38MOL   C157 8371   0.763   1.862   7.797 -0.2040  0.7818  0.0165
   38MOL   O158 8372   0.843   1.866   7.700  0.2648  0.5791  1.0194
   38MOL   C159 8373   0.649   1.959   7.812 -0.1266  0.0889  0.0991
   38MOL   C160 8374   0.920   1.694   0.064 -0.0196 -0.6517  0.2108
   38MOL   H161 8375   0.745   1.792   0.157  1.3929  0.8215 -0.3650
   38MOL   H162 8376   0.546   1.923   7.819 -0.4237  0.9580  0.2585
   38MOL   H163 8377   0.669   2.030   0.050 -1.7149 -1.1474  1.6381
   38MOL   H164 8378   0.636   2.015   7.720 -1.4748 -0.5258 -0.1052
   38MOL   H165 8379   0.946   1.656   7.807 -1.6825 -1.4566  0.0636
   38MOL   H166 8380   0.919   1.605   0.126 -1.7684 -0.5335  0.3823
   38MOL   C167 8381   1.021   1.796   0.123  0.6143  0.8394 -0.0356
   38MOL   C168 8382   1.163   1.750   0.078 -0.0309 -0.2294 -0.9690
   38MOL   O169 8383   1.259   1.730   0.149 -0.3089  0.3444 -0.6669
   38MOL   C170 8384   1.182   1.736   7.768 -0.4610 -0.1828  0.2547
   38MOL   C171 8385   0.995   1.813   0.275  0.1576 -0.4659 -0.7693
   38MOL   H172 8386   1.002   1.888   0.067  0.4382  1.1742  0.5658
   38MOL   H173 8387   1.171   1.633   7.734  2.1982  0.4354 -2.6987
   38MOL   H174 8388   1.116   1.805   7.717 -0.1935 -0.2560 -0.1913
   38MOL   H175 8389   1.283   1.753   7.732 -0.3575  1.5705  1.2914
   38MOL   H176 8390   1.086   1.792   0.331  0.3303  1.0930 -0.4407
   38MOL   H177 8391   0.917   1.743   0.305 -1.1050  0.7036 -1.2583
   38MOL   C178 8392   0.947   1.947   0.322 -0.4968 -0.5773 -0.6688
   38MOL   C179 8393   1.064   2.054   0.333  0.7182  0.1013 -0.3594
   38MOL   O180 8394   1.142   2.062   0.428  0.3270 -0.0660  0.4027
   38MOL   C181 8395   1.074   2.146   0.209  0.2854  0.1085 -0.5390
   38MOL   C182 8396   0.886   1.936   0.464  0.9481 -0.2852  0.9203
   38MOL   H183 8397   0.876   1.986   0.250  0.7182 -0.1630 -1.6756
   38MOL   H184 8398   1.031   2.241   0.239 -0.3013  0.4594 -2.3846
   38MOL   H185 8399   1.176   2.152   0.172  1.2226 -2.1699  1.5347
   38MOL   H186 8400   1.007   2.103   0.134 -1.1234 -0.2591  0.8941
   38MOL   H187 8401   0.890   2.035   0.509 -0.3937  0.0623  0.2984
   38MOL   H188 8402   0.956   1.876   0.522  0.5135 -1.2332  0.4940
   38MOL   C189 8403   0.747   1.881   0.480 -0.2502 -0.1677 -0.2567
   38MOL   C190 8404   0.643   1.959   0.404  0.0453  0.2307 -0.3413
   38MOL   O191 8405   0.612   1.934   0.284  0.0018  0.5027 -1.0052
   38MOL   C192 8406   0.586   2.087   0.458 -0.4706  0.7781 -0.6385
   38MOL   C193 8407   0.720   1.869   0.635 -0.3658  0.4377  0.3607
   38MOL   H194 8408   0.749   1.784   0.432  0.0739  0.7628 -2.1763
   38MOL   H195 8409   0.497   2.071   0.520  0.5050 -1.0575  0.3363
   38MOL   H196 8410   0.656   2.134   0.528 -0.5155 -0.8978  0.5672
   38MOL   H197 8411   0.541   2.156   0.387 -1.8867 -0.8585 -1.3546
   38MOL   H198 8412   0.646   1.946   0.658  0.1539  1.2264 -0.5506
   38MOL   H199 8413   0.795   1.911   0.702  0.0267  0.3481 -0.0266
   38MOL   C200 8414   0.664   1.731   0.684 -0.1073  0.3995 -0.6677
   38MOL   C201 8415   0.524   1.695   0.627  0.8392  0.0793  0.2086
   38MOL   O202 8416   0.423   1.750   0.673  0.1138 -0.0525 -0.1019
   38MOL   C203 8417   0.513   1.607   0.502  0.5621 -0.1477 -0.3683
   38MOL   C204 8418   0.672   1.712   0.840 -0.0934 -0.0594 -0.6284
   38MOL   H205 8419   0.731   1.660   0.634 -0.3246  0.8038 -1.5364
   38MOL   H206 8420   0.469   1.660   0.417  0.5859 -1.1614 -1.0108
   38MOL   H207 8421   0.617   1.585   0.478  1.1063  0.9406  0.8809
   38MOL   H208 8422   0.456   1.515   0.511 -1.4512  1.1756  0.8198
   38MOL   H209 8423   0.628   1.793   0.899 -0.2187 -1.7916  1.7313
   38MOL   H210 8424   0.775   1.725   0.875 -0.9835  0.1779  2.0499
   38MOL   C211 8425   0.605   1.586   0.896  0.8842  0.2184 -0.3401
   38MOL   C212 8426   0.571   1.613   1.049  1.1959 -0.5560  0.7179
   38MOL   O213 8427   0.649   1.578   1.138  0.3216  0.0167 -0.3315
   38MOL   C214 8428   0.438   1.671   1.081  0.1396 -0.6023 -0.4678
   38MOL   C215 8429   0.697   1.461   0.878 -0.4429 -0.3758 -0.2544
   38MOL   H216 8430   0.507   1.569   0.852  1.3424 -0.8476 -0.9571
   38MOL   H217 8431   0.379   1.668   0.990  0.9745  1.5022 -1.1123
   38MOL   H218 8432   0.395   1.603   1.155  0.1797 -2.5222 -2.1804
   38MOL   H219 8433   0.446   1.777   1.108  0.6197 -0.9286  0.7202
   38MOL   H220 8434   0.801   1.488   0.894 -0.0647  0.2467 -3.4509
   38MOL   H221 8435   0.690   1.417   0.779  2.5374 -0.9185 -0.2659
   38MOL   H222 8436   0.667   1.379   0.943  2.5808 -0.2674  1.3426
   39MOL     C1 8437   7.093   5.788   5.983  0.4130 -0.2286  0.5140
   39MOL     C2 8438   6.960   5.810   5.904  0.0502 -0.2620  0.6383
   39MOL     O3 8439   6.855   5.853   5.952  0.3375 -0.0063  0.0683
   39MOL     C4 8440   6.964   5.760   5.759 -0.6553  0.0923  0.8041
   39MOL     C5 8441   7.075   5.799   6.133 -0.2665  0.3526 -0.1763
   39MOL     H6 8442   7.114   5.684   5.958 -0.9812 -0.9309  2.1254
   39MOL     H7 8443   7.048   5.814   5.716  0.4509 -1.6403  0.7511
   39MOL     H8 8444   6.983   5.653   5.753 -0.0520  0.2517 -0.2242
   39MOL     H9 8445   6.870   5.796   5.718  0.6017  2.8813  0.2716
   39MOL    H10 8446   6.982   5.760   6.173 -1.6663  1.1092 -2.5637
   39MOL    H11 8447   7.076   5.907   6.149  1.8910  0.2388  0.6259
   39MOL    H12 8448   7.167   5.849   5.932  0.2478 -1.2436 -0.9582
   39MOL    C13 8449   7.181   5.732   6.221 -0.8960  0.4559  0.0523
   39MOL    C14 8450   7.319   5.789   6.185 -0.3703 -0.1469  0.3488
   39MOL    O15 8451   7.413   5.732   6.125  0.9046  0.2719  0.5350
   39MOL    C16 8452   7.334   5.935   6.215 -0.0486 -0.2071  0.7058
   39MOL    C17 8453   7.178   5.582   6.207 -0.1963  0.9783 -0.2992
   39MOL    H18 8454   7.166   5.762   6.325 -0.5966  0.2095  0.1677
   39MOL    H19 8455   7.342   5.952   6.322  0.4700  1.5784  0.3956
   39MOL    H20 8456   7.421   5.984   6.172  0.5630 -0.9932  1.0317
   39MOL    H21 8457   7.256   5.999   6.175  0.5188 -0.2780 -0.5276
   39MOL    H22 8458   7.251   5.528   6.268 -0.3256  0.4388 -0.6176
   39MOL    H23 8459   7.188   5.537   6.108  0.3142 -2.7035  1.3244
   39MOL    C24 8460   7.048   5.514   6.270 -0.3519  0.5110 -0.2148
   39MOL    C25 8461   7.014   5.559   6.417  0.0177 -0.4187 -0.6862
   39MOL    O26 8462   6.923   5.637   6.445 -0.0893  0.0583 -0.3720
   39MOL    C27 8463   7.109   5.515   6.528  0.1865 -0.2703  0.0867
   39MOL    C28 8464   7.034   5.350   6.274 -0.2526 -0.1375  0.3652
   39MOL    H29 8465   6.959   5.552   6.221 -0.9499 -0.9187 -0.2793
   39MOL    H30 8466   7.213   5.546   6.520  0.1403  0.8037  3.1338
   39MOL    H31 8467   7.081   5.550   6.627 -0.1691 -1.9437  0.5909
   39MOL    H32 8468   7.113   5.406   6.535 -0.1424 -0.2768  0.1865
   39MOL    H33 8469   6.954   5.307   6.334  1.9302 -0.2947  3.2498
   39MOL    H34 8470   7.126   5.315   6.320  1.1338  1.4107 -1.1747
   39MOL    C35 8471   7.025   5.289   6.125 -0.4257 -0.5781  0.5483
   39MOL    C36 8472   6.892   5.310   6.061 -1.1098 -0.6800 -0.8474
   39MOL    O37 8473   6.807   5.225   6.056  0.0869  0.1471 -0.0350
   39MOL    C38 8474   6.869   5.448   5.997 -0.6078  0.5091 -0.5339
   39MOL    C39 8475   7.052   5.136   6.145 -0.2125 -0.5264  0.3014
   39MOL    H40 8476   7.106   5.334   6.068  0.0405 -0.2099  1.4951
   39MOL    H41 8477   6.962   5.498   5.968 -0.5046 -0.2811 -1.5950
   39MOL    H42 8478   6.813   5.429   5.906 -0.4370 -1.7081 -0.2219
   39MOL    H43 8479   6.820   5.518   6.064  1.2590  1.0855  0.2800
   39MOL    H44 8480   6.962   5.097   6.193 -0.0389  0.8896  1.8066
   39MOL    H45 8481   7.121   5.123   6.229 -0.1165  1.2754  0.5142
   39MOL    C46 8482   7.099   5.055   6.020 -0.1314  0.8363  0.4291
   39MOL    C47 8483   7.062   4.907   6.045 -1.0664 -0.6840  0.4472
   39MOL    O48 8484   7.128   4.833   6.114 -0.0491 -0.5153  0.4570
   39MOL    C49 8485   6.945   4.838   5.970 -0.7866  0.0934 -0.1267
   39MOL    C50 8486   7.251   5.090   5.995 -0.0421 -0.4519  0.2856
   39MOL    H51 8487   7.037   5.079   5.933  2.0556 -1.9691 -2.0051
   39MOL    H52 8488   6.944   4.874   5.867 -0.1668 -2.6899 -1.1292
   39MOL    H53 8489   6.953   4.730   5.956 -0.3514  0.0932  0.1415
   39MOL    H54 8490   6.851   4.858   6.021 -0.4925  1.1978  0.0156
   39MOL    H55 8491   7.316   5.069   6.080  2.5035 -2.2415 -2.0096
   39MOL    H56 8492   7.274   5.196   5.988  1.2406 -0.6625  1.1722
   39MOL    C57 8493   7.309   5.011   5.877  0.3201 -0.5611  0.0333
   39MOL    C58 8494   7.386   4.885   5.918  0.1748 -0.5392 -0.2005
   39MOL    O59 8495   7.429   4.875   6.030  0.2949 -0.0693  0.3979
   39MOL    C60 8496   7.414   4.784   5.814 -0.0065 -1.2051 -0.1938
   39MOL    C61 8497   7.398   5.092   5.776  0.7243 -0.0121 -0.2306
   39MOL    H62 8498   7.224   4.967   5.825 -0.4370  1.7804 -0.8101
   39MOL    H63 8499   7.351   4.698   5.837  0.7199 -1.1520  2.1426
   39MOL    H64 8500   7.390   4.819   5.714  1.1076 -0.9459 -0.3770
   39MOL    H65 8501   7.519   4.756   5.807  0.5009  0.5231  0.2991
   39MOL    H66 8502   7.446   5.025   5.705 -1.7295 -1.9897 -0.0914
   39MOL    H67 8503   7.487   5.145   5.811  0.1818  0.4315  0.4796
   39MOL    C68 8504   7.323   5.205   5.705  0.5767  0.5307 -0.0717
   39MOL    C69 8505   7.234   5.141   5.599  0.5925  0.3008 -0.3416
   39MOL    O70 8506   7.288   5.079   5.509 -0.3470  0.5037  0.1588
   39MOL    C71 8507   7.085   5.167   5.599  0.3591  0.1928  0.1045
   39MOL    C72 8508   7.416   5.305   5.643  0.2276  0.4381  0.2752
   39MOL    H73 8509   7.254   5.250   5.776  1.1870  2.1481 -0.4904
   39MOL    H74 8510   7.018   5.081   5.600 -0.2389  0.6634  0.8244
   39MOL    H75 8511   7.058   5.236   5.679  0.7249  0.9014 -0.3769
   39MOL    H76 8512   7.054   5.216   5.507 -1.5773 -1.5158 -0.1901
   39MOL    H77 8513   7.470   5.245   5.569 -1.6654  0.9258 -1.5682
   39MOL    H78 8514   7.488   5.330   5.721 -0.2187 -1.3292  1.2698
   39MOL    C79 8515   7.363   5.437   5.588 -0.0668  0.0690 -0.1047
   39MOL    C80 8516   7.307   5.518   5.707 -1.0124  0.6322 -0.0383
   39MOL    O81 8517   7.196   5.493   5.757  0.7588  0.0015  0.5638
   39MOL    C82 8518   7.390   5.634   5.752 -0.3612  0.4991 -0.0882
   39MOL    C83 8519   7.260   5.413   5.474 -0.3201 -0.1025  0.3106
   39MOL    H84 8520   7.447   5.489   5.542  0.0112  0.4131  0.4234
   39MOL    H85 8521   7.322   5.702   5.803  0.0078  0.1037  0.9562
   39MOL    H86 8522   7.470   5.597   5.816  0.9609  2.7060 -0.4228
   39MOL    H87 8523   7.444   5.680   5.669  0.8994 -1.4359 -0.3770
   39MOL    H88 8524   7.156   5.398   5.503 -0.8220  1.5937 -0.4722
   39MOL    H89 8525   7.275   5.321   5.417  0.7068  1.1628 -1.5469
   39MOL    C90 8526   7.247   5.525   5.367  0.4317  0.2615  0.9161
   39MOL    C91 8527   7.378   5.566   5.302 -0.0985  0.2239 -0.3429
   39MOL    O92 8528   7.431   5.674   5.336 -0.0430  0.0361 -0.3258
   39MOL    C93 8529   7.451   5.481   5.203  0.0058 -0.0134 -0.7370
   39MOL    C94 8530   7.159   5.640   5.417 -0.0517 -0.3089 -0.0301
   39MOL    H95 8531   7.187   5.480   5.288 -0.1579  2.1630  0.2518
   39MOL    H96 8532   7.515   5.414   5.261  0.0815  0.1099 -0.6796
   39MOL    H97 8533   7.383   5.436   5.130  0.0235 -0.4556 -0.4850
   39MOL    H98 8534   7.520   5.548   5.152 -0.8663  2.9548  1.8522
   39MOL    H99 8535   7.203   5.713   5.485 -0.5615  1.2374 -1.3073
   39MOL   H100 8536   7.089   5.588   5.482  2.4835 -0.9634  2.2361
   39MOL   C101 8537   7.080   5.719   5.313  0.6052  0.4109  0.7239
   39MOL   C102 8538   7.156   5.836   5.247  0.1144 -0.6068 -0.4954
   39MOL   O103 8539   7.155   5.941   5.303 -0.5338 -0.2838  0.1673
   39MOL   C104 8540   7.227   5.817   5.111 -0.0565 -0.6855 -0.1438
   39MOL   C105 8541   6.938   5.771   5.362  0.6753 -0.4464  0.4314
   39MOL   H106 8542   7.077   5.664   5.219  2.1586  0.4968  0.6106
   39MOL   H107 8543   7.144   5.792   5.046 -1.6221  0.3495  1.4268
   39MOL   H108 8544   7.280   5.901   5.065  0.6917  0.2321  2.2796
   39MOL   H109 8545   7.301   5.737   5.116 -1.8181 -2.2618  1.3680
   39MOL   H110 8546   6.901   5.838   5.285 -0.9528 -1.2190  0.5192
   39MOL   H111 8547   6.938   5.825   5.457  0.3132 -0.2478  0.3199
   39MOL   C112 8548   6.833   5.653   5.365  0.1723 -0.6873 -0.9411
   39MOL   C113 8549   6.806   5.587   5.231  0.3939  0.2394  0.0098
   39MOL   O114 8550   6.717   5.630   5.165 -0.6263  0.3112 -0.6130
   39MOL   C115 8551   6.893   5.468   5.187  0.2406  0.4689  0.0235
   39MOL   C116 8552   6.701   5.702   5.424 -0.3450 -0.5586  0.4165
   39MOL   H117 8553   6.882   5.576   5.426  0.5803  0.1454 -0.1961
   39MOL   H118 8554   6.830   5.409   5.121  0.4231  0.2741  0.0230
   39MOL   H119 8555   6.970   5.505   5.119 -0.0349  0.5844 -0.2241
   39MOL   H120 8556   6.929   5.408   5.271 -1.4371  0.5997  0.8572
   39MOL   H121 8557   6.639   5.756   5.353 -0.0484 -0.9204 -0.1177
   39MOL   H122 8558   6.735   5.788   5.482  1.1243 -1.0761  0.3450
   39MOL   C123 8559   6.615   5.607   5.504 -0.8612 -0.1434  0.1331
   39MOL   C124 8560   6.672   5.580   5.645  0.3064 -0.4038  0.1718
   39MOL   O125 8561   6.774   5.510   5.648 -0.3260 -0.5726 -0.1451
   39MOL   C126 8562   6.594   5.625   5.772 -0.0828  0.8532 -0.0413
   39MOL   C127 8563   6.565   5.475   5.439  0.0638 -0.0470 -0.3025
   39MOL   H128 8564   6.522   5.662   5.515 -0.8428  0.1327 -0.9513
   39MOL   H129 8565   6.499   5.573   5.786  1.0380 -1.1590  0.2968
   39MOL   H130 8566   6.652   5.599   5.862 -0.2489  2.1440  0.4464
   39MOL   H131 8567   6.576   5.732   5.780 -1.3054  0.7665 -1.5447
   39MOL   H132 8568   6.530   5.411   5.520 -1.4592 -2.0321 -2.4555
   39MOL   H133 8569   6.649   5.417   5.401 -1.4645 -2.0366 -0.7054
   39MOL   C134 8570   6.471   5.476   5.314 -0.2246  0.1990  0.0664
   39MOL   C135 8571   6.330   5.519   5.354 -0.0364  0.5431 -0.2729
   39MOL   O136 8572   6.254   5.444   5.418  0.2438 -0.0651 -0.5860
   39MOL   C137 8573   6.297   5.667   5.320 -0.4395  0.0356  0.2083
   39MOL   C138 8574   6.480   5.336   5.237 -0.2492  0.0304  0.3533
   39MOL   H139 8575   6.499   5.559   5.249 -1.6923  0.6463 -0.0140
   39MOL   H140 8576   6.207   5.679   5.258  0.5365  0.7346 -1.1032
   39MOL   H141 8577   6.272   5.724   5.410  0.8597  0.7359  0.1311
   39MOL   H142 8578   6.379   5.727   5.280  0.2754  0.0014  1.6081
   39MOL   H143 8579   6.451   5.264   5.314  1.7053  0.9745  2.0375
   39MOL   H144 8580   6.585   5.323   5.214 -1.1707 -0.2358 -4.0535
   39MOL   C145 8581   6.393   5.325   5.106  0.0257  0.3214  0.1001
   39MOL   C146 8582   6.419   5.446   5.015  0.1850  0.5706 -0.0116
   39MOL   O147 8583   6.350   5.547   5.020  0.2888 -0.5367 -0.6105
   39MOL   C148 8584   6.532   5.430   4.918  0.6307 -0.3108 -0.5161
   39MOL   C149 8585   6.239   5.302   5.123  0.3104  0.1589 -0.1163
   39MOL   H150 8586   6.436   5.237   5.059  2.0410  0.5013  1.5307
   39MOL   H151 8587   6.540   5.331   4.874  1.7380 -0.1964 -0.5881
   39MOL   H152 8588   6.517   5.510   4.845 -0.3162  0.4613  0.5158
   39MOL   H153 8589   6.629   5.457   4.960 -1.0555  0.3733  3.0988
   39MOL   H154 8590   6.184   5.396   5.117 -0.6863 -0.3349  0.9931
   39MOL   H155 8591   6.211   5.273   5.224 -1.8038 -0.8805 -0.9646
   39MOL   C156 8592   6.172   5.198   5.033  0.6982  0.5309  0.1555
   39MOL   C157 8593   6.141   5.271   4.902  0.1447  0.6428  0.4245
   39MOL   O158 8594   6.048   5.349   4.895  0.0815  0.7908  0.4064
   39MOL   C159 8595   6.210   5.222   4.775  0.7087 -0.1155 -0.1535
   39MOL   C160 8596   6.045   5.143   5.105  0.5072  0.0748 -0.0903
   39MOL   H161 8597   6.243   5.116   5.018 -1.0192 -1.2207  1.3679
   39MOL   H162 8598   6.314   5.255   4.776  1.0282 -1.0801 -0.2883
   39MOL   H163 8599   6.201   5.113   4.766 -0.3391 -0.2145  1.8141
   39MOL   H164 8600   6.161   5.262   4.686 -1.0904  3.3068  2.2636
   39MOL   H165 8601   5.958   5.193   5.063 -0.3944 -1.2334  0.1904
   39MOL   H166 8602   6.050   5.161   5.213  1.6439 -0.8272  0.0175
   39MOL   C167 8603   6.014   4.990   5.098  0.2678 -0.1493 -0.3203
   39MOL   C168 8604   6.018   4.924   4.956 -0.4743 -0.7835  0.1880
   39MOL   O169 8605   5.973   4.987   4.860 -0.5554  0.2408 -0.9864
   39MOL   C170 8606   6.075   4.787   4.940  0.2494  0.0452 -0.7100
   39MOL   C171 8607   5.880   4.951   5.166  0.4148  0.8208 -0.0610
   39MOL   H172 8608   6.086   4.940   5.162  2.3022  1.1223 -1.5868
   39MOL   H173 8609   6.126   4.756   5.031  2.2192 -0.7985 -2.0439
   39MOL   H174 8610   5.991   4.725   4.909 -1.2668  0.8852  1.6660
   39MOL   H175 8611   6.146   4.792   4.857  2.3059 -1.1094  0.9286
   39MOL   H176 8612   5.859   4.848   5.140  0.5092  0.6137  0.6594
   39MOL   H177 8613   5.805   5.011   5.115 -1.9872 -0.2702  2.1046
   39MOL   C178 8614   5.866   4.969   5.323  0.2268 -0.1731 -0.3200
   39MOL   C179 8615   5.859   4.829   5.394 -0.9171  0.0338  0.0226
   39MOL   O180 8616   5.760   4.788   5.459  0.4119  0.2147 -0.0026
   39MOL   C181 8617   5.973   4.729   5.373 -0.0972  0.4502 -0.2635
   39MOL   C182 8618   5.743   5.054   5.362 -0.2190 -0.3752 -0.3562
   39MOL   H183 8619   5.955   5.021   5.359  1.0954 -0.7433 -1.6223
   39MOL   H184 8620   5.947   4.625   5.392  2.1098 -0.5098 -2.2819
   39MOL   H185 8621   6.002   4.737   5.268 -0.4955 -1.1652 -0.4972
   39MOL   H186 8622   6.058   4.742   5.440 -2.3232  0.4371  2.6669
   39MOL   H187 8623   5.719   5.031   5.466  3.3828 -1.9470  0.2060
   39MOL   H188 8624   5.661   5.009   5.305  0.3973  0.5506 -2.0062
   39MOL   C189 8625   5.761   5.211   5.348 -0.8051  0.2125  0.3073
   39MOL   C190 8626   5.810   5.275   5.482 -0.2697  0.3636 -0.5268
   39MOL   O191 8627   5.772   5.242   5.593 -0.0835 -0.0789 -0.0730
   39MOL   C192 8628   5.903   5.396   5.468 -0.2865 -0.5249  0.0248
   39MOL   C193 8629   5.623   5.271   5.305  0.1338  0.4656 -0.0814
   39MOL   H194 8630   5.845   5.219   5.279 -0.9591 -1.0636 -0.0505
   39MOL   H195 8631   5.951   5.437   5.556 -0.8910 -1.5694  0.8448
   39MOL   H196 8632   5.965   5.384   5.379 -1.9055  3.3528 -1.7867
   39MOL   H197 8633   5.833   5.470   5.428  1.2343  1.4870  1.0491
   39MOL   H198 8634   5.560   5.275   5.395  1.2286  1.4452  0.6442
   39MOL   H199 8635   5.564   5.202   5.245  3.3318  0.8348 -3.8292
   39MOL   C200 8636   5.641   5.399   5.221  0.3798  0.7268 -0.3498
   39MOL   C201 8637   5.527   5.496   5.235 -0.2563 -0.0209 -0.5594
   39MOL   O202 8638   5.410   5.461   5.248 -0.4548  0.5415 -0.1302
   39MOL   C203 8639   5.574   5.647   5.240  0.2091 -0.2029 -0.2187
   39MOL   C204 8640   5.677   5.375   5.075 -0.3845  0.3501 -0.6932
   39MOL   H205 8641   5.729   5.452   5.259  2.0177 -2.1428  0.0546
   39MOL   H206 8642   5.659   5.670   5.305  0.9638  0.7537 -1.5211
   39MOL   H207 8643   5.587   5.693   5.142 -0.4878  0.9855  0.2328
   39MOL   H208 8644   5.490   5.704   5.280  0.1544  0.4325 -1.2371
   39MOL   H209 8645   5.772   5.322   5.080  0.7643  2.1860 -2.5324
   39MOL   H210 8646   5.703   5.469   5.027 -1.1200  1.1989  0.5145
   39MOL   C211 8647   5.586   5.284   4.982 -0.2525 -0.0086 -0.2891
   39MOL   C212 8648   5.639   5.252   4.846 -0.8943 -0.3285 -0.3494
   39MOL   O213 8649   5.638   5.337   4.752 -0.2315 -0.1528 -0.3882
   39MOL   C214 8650   5.698   5.116   4.816 -0.1664  0.4975  0.3499
   39MOL   C215 8651   5.448   5.341   4.957 -0.3287  0.2609 -0.2178
   39MOL   H216 8652   5.578   5.190   5.037  2.3852  0.2862  0.6416
   39MOL   H217 8653   5.792   5.131   4.763 -0.3103  1.2998  0.3123
   39MOL   H218 8654   5.723   5.051   4.900  1.0528 -2.5306 -2.2331
   39MOL   H219 8655   5.632   5.063   4.747  0.1204  0.2079  0.2969
   39MOL   H220 8656   5.386   5.312   5.042 -0.8010 -1.3597 -1.0846
   39MOL   H221 8657   5.391   5.287   4.882  0.9227 -2.6157  0.8055
   39MOL   H222 8658   5.455   5.449   4.944  1.4765  0.1347 -0.4786
   40MOL     C1 8659   1.050   0.966   6.397 -0.5129 -0.3960  0.4661
   40MOL     C2 8660   1.155   1.019   6.496  0.3861 -0.0892 -0.0587
   40MOL     O3 8661   1.268   1.063   6.461 -0.4050 -0.2741  0.4042
   40MOL     C4 8662   1.129   1.006   6.640  0.5874  0.3370 -0.1639
   40MOL     C5 8663   1.046   1.034   6.259 -0.2248  0.1976 -0.4064
   40MOL     H6 8664   1.088   0.868   6.369  1.5979  1.0402 -1.9459
   40MOL     H7 8665   1.021   1.006   6.651  0.6309  1.8573  0.3410
   40MOL     H8 8666   1.152   0.905   6.676  1.4754  0.4877 -0.3032
   40MOL     H9 8667   1.182   1.087   6.689  0.9081  0.9309 -1.4675
   40MOL    H10 8668   0.979   0.987   6.187 -0.4527 -0.9915  0.5700
   40MOL    H11 8669   1.146   1.006   6.228  0.1287 -1.2771  1.9317
   40MOL    H12 8670   0.951   0.957   6.441 -1.4956 -1.5076 -1.8810
   40MOL    C13 8671   1.023   1.189   6.270 -0.2793 -0.1225  0.4865
   40MOL    C14 8672   0.877   1.229   6.315 -0.0332 -0.4880 -0.6065
   40MOL    O15 8673   0.849   1.269   6.429 -0.3037 -0.0419 -0.2239
   40MOL    C16 8674   0.756   1.203   6.223 -0.2002  0.1766 -0.4192
   40MOL    C17 8675   1.049   1.269   6.139  0.2830 -0.2885  0.0714
   40MOL    H18 8676   1.089   1.225   6.348  0.2003  0.2157 -0.0667
   40MOL    H19 8677   0.740   1.282   6.150  0.9085 -1.1940 -2.1754
   40MOL    H20 8678   0.760   1.101   6.185 -1.7212 -0.1790  0.3257
   40MOL    H21 8679   0.671   1.213   6.290  0.8717 -1.6468  1.2543
   40MOL    H22 8680   1.000   1.364   6.160 -2.9309 -1.8139 -0.2770
   40MOL    H23 8681   0.982   1.230   6.063  1.1076 -1.1908 -0.2131
   40MOL    C24 8682   1.193   1.278   6.085  0.4524 -0.4032  0.4428
   40MOL    C25 8683   1.284   1.365   6.174  0.0563 -0.1935 -0.1214
   40MOL    O26 8684   1.282   1.490   6.170  0.1945  0.3065 -0.0661
   40MOL    C27 8685   1.368   1.295   6.279 -0.7885  0.6878 -0.6723
   40MOL    C28 8686   1.192   1.347   5.950  0.4093  0.2168 -0.0232
   40MOL    H29 8687   1.234   1.178   6.078  0.2177 -0.5285  0.8629
   40MOL    H30 8688   1.332   1.310   6.381  0.0318  1.5053 -0.4966
   40MOL    H31 8689   1.377   1.188   6.261  2.9794  0.7462  0.4005
   40MOL    H32 8690   1.474   1.319   6.272  0.3263 -2.9626  2.2553
   40MOL    H33 8691   1.139   1.442   5.959  1.9894  1.1098  0.1834
   40MOL    H34 8692   1.119   1.289   5.893 -0.9477  3.2682 -1.5474
   40MOL    C35 8693   1.324   1.358   5.869  0.7893 -0.1309 -0.3628
   40MOL    C36 8694   1.305   1.446   5.750  0.4793  0.8055 -0.2617
   40MOL    O37 8695   1.288   1.397   5.639  0.2647 -0.1552  0.2945
   40MOL    C38 8696   1.331   1.591   5.773  0.3742  0.2991  0.0976
   40MOL    C39 8697   1.377   1.214   5.837 -0.1317 -0.0049 -0.3476
   40MOL    H40 8698   1.396   1.403   5.937 -1.6041  0.5763  1.7931
   40MOL    H41 8699   1.358   1.619   5.671  1.8325 -1.1592  0.0579
   40MOL    H42 8700   1.242   1.642   5.808 -1.7611 -2.6319 -0.9065
   40MOL    H43 8701   1.414   1.617   5.839  0.5754  1.7314 -0.6841
   40MOL    H44 8702   1.311   1.183   5.756  1.0419 -1.3235 -0.8264
   40MOL    H45 8703   1.369   1.145   5.921  0.0801  0.1529 -0.1970
   40MOL    C46 8704   1.531   1.193   5.793  0.0706  0.0603  0.7700
   40MOL    C47 8705   1.637   1.269   5.872 -0.4443 -0.0900 -0.6718
   40MOL    O48 8706   1.706   1.355   5.828 -0.4408 -0.4426 -0.5751
   40MOL    C49 8707   1.657   1.219   6.017 -0.0571  0.1675 -0.2542
   40MOL    C50 8708   1.554   1.198   5.638  0.1258  0.3440 -0.6828
   40MOL    H51 8709   1.543   1.089   5.820  1.3922 -0.3605 -1.2946
   40MOL    H52 8710   1.583   1.263   6.084  1.0763 -3.9177  3.9463
   40MOL    H53 8711   1.639   1.112   6.025 -1.7015  0.4316 -0.2288
   40MOL    H54 8712   1.758   1.240   6.050 -0.0756  0.6221 -0.4800
   40MOL    H55 8713   1.612   1.286   5.609  1.3068 -0.1698  0.0306
   40MOL    H56 8714   1.464   1.205   5.578 -1.5259 -0.5877  1.6055
   40MOL    C57 8715   1.641   1.080   5.585  0.2295  0.2484 -0.5392
   40MOL    C58 8716   1.558   0.945   5.601 -0.5331 -0.3061  0.3387
   40MOL    O59 8717   1.597   0.851   5.670  0.4429 -0.2116  0.0599
   40MOL    C60 8718   1.437   0.936   5.512 -0.5000  0.9969  0.9969
   40MOL    C61 8719   1.789   1.054   5.625  0.1540  0.0552 -0.5770
   40MOL    H62 8720   1.649   1.100   5.478  1.3302  0.9027 -0.3455
   40MOL    H63 8721   1.464   0.952   5.408 -0.8462  0.4546  0.8171
   40MOL    H64 8722   1.413   0.829   5.505  0.3446  0.8643  0.0442
   40MOL    H65 8723   1.357   1.010   5.521 -1.0433  0.9864 -2.8863
   40MOL    H66 8724   1.811   0.963   5.569  1.5659  0.7490 -1.1745
   40MOL    H67 8725   1.790   1.011   5.725  1.8500  0.1475 -0.5339
   40MOL    C68 8726   1.882   1.173   5.606 -0.2674  0.1343  0.0792
   40MOL    C69 8727   1.879   1.219   5.463 -0.1168 -0.4863 -0.1106
   40MOL    O70 8728   1.919   1.150   5.370 -0.1142  0.2245  0.1975
   40MOL    C71 8729   1.825   1.359   5.435 -0.3818 -0.3199 -0.3054
   40MOL    C72 8730   2.027   1.143   5.664  0.0734 -0.0419 -0.4560
   40MOL    H73 8731   1.845   1.259   5.662 -2.9577 -0.6746 -0.3564
   40MOL    H74 8732   1.899   1.417   5.380  1.1917  0.1950  2.2704
   40MOL    H75 8733   1.736   1.350   5.372  0.3806 -0.6222 -1.3494
   40MOL    H76 8734   1.800   1.411   5.528 -0.1026  3.0326 -2.0342
   40MOL    H77 8735   2.084   1.097   5.583 -1.3561 -1.5507 -0.6359
   40MOL    H78 8736   2.026   1.069   5.744  0.9625  0.0593 -0.3553
   40MOL    C79 8737   2.110   1.266   5.722 -0.2873 -0.2267 -0.6431
   40MOL    C80 8738   2.256   1.225   5.735  0.0049 -0.2430 -0.2379
   40MOL    O81 8739   2.291   1.131   5.804 -0.0235  0.6781  0.6099
   40MOL    C82 8740   2.364   1.311   5.671 -0.2459 -0.0195  0.4386
   40MOL    C83 8741   2.053   1.315   5.855 -0.0227  0.1064 -0.2000
   40MOL    H84 8742   2.109   1.343   5.644 -3.0746  0.9331  0.4571
   40MOL    H85 8743   2.321   1.404   5.635  0.6817  0.6261  0.9905
   40MOL    H86 8744   2.447   1.340   5.735  2.4896 -2.5985 -1.7623
   40MOL    H87 8745   2.409   1.254   5.590  0.3955  1.5302 -0.2905
   40MOL    H88 8746   2.073   1.234   5.925 -0.8036 -1.0369 -1.2744
   40MOL    H89 8747   1.945   1.314   5.847 -0.0115 -3.8744 -1.0160
   40MOL    C90 8748   2.114   1.451   5.901  0.2270 -0.0228  0.4117
   40MOL    C91 8749   2.232   1.438   6.003 -0.3859  0.2431  0.3321
   40MOL    O92 8750   2.246   1.344   6.082 -0.8067 -0.0100  0.5119
   40MOL    C93 8751   2.344   1.537   5.992  0.0040 -0.8162  0.0974
   40MOL    C94 8752   2.008   1.534   5.989 -0.6868 -0.2333  0.8342
   40MOL    H95 8753   2.139   1.518   5.819  0.2669 -0.2703  0.2236
   40MOL    H96 8754   2.421   1.538   6.069 -0.4559 -2.2509  0.5872
   40MOL    H97 8755   2.396   1.531   5.896  1.5680  0.5467  0.8333
   40MOL    H98 8756   2.285   1.628   5.995  1.3644  0.0248  2.0384
   40MOL    H99 8757   2.062   1.609   6.048  4.1493 -1.3657 -1.8930
   40MOL   H100 8758   1.960   1.467   6.061 -0.3372  0.0395  1.3274
   40MOL   C101 8759   1.903   1.602   5.901  0.2460  0.0834 -0.6016
   40MOL   C102 8760   1.955   1.713   5.810  0.6140 -0.1826  0.5128
   40MOL   O103 8761   2.072   1.740   5.803 -0.1454 -0.0687 -0.6288
   40MOL   C104 8762   1.852   1.797   5.739  0.0687  0.2534 -0.0569
   40MOL   C105 8763   1.776   1.630   5.990 -0.7922  0.2661 -0.3619
   40MOL   H106 8764   1.876   1.528   5.826  1.0420  0.3828 -1.1779
   40MOL   H107 8765   1.892   1.866   5.664 -2.0270  0.8894 -0.6233
   40MOL   H108 8766   1.787   1.724   5.690 -0.2075 -0.4358  1.3222
   40MOL   H109 8767   1.793   1.858   5.807  0.3725  0.7017 -0.1906
   40MOL   H110 8768   1.736   1.534   6.023 -0.5476  0.5430  0.7480
   40MOL   H111 8769   1.704   1.665   5.916 -1.3513  1.2633  0.6349
   40MOL   C112 8770   1.770   1.737   6.108  0.2739  0.2698 -0.1411
   40MOL   C113 8771   1.835   1.674   6.234 -0.1823  0.0168  0.1456
   40MOL   O114 8772   1.791   1.571   6.287 -0.0001 -0.6666 -0.5751
   40MOL   C115 8773   1.952   1.745   6.301  0.2428 -0.2515 -0.3913
   40MOL   C116 8774   1.617   1.776   6.133  0.3137 -0.7142 -0.2968
   40MOL   H117 8775   1.830   1.821   6.071  0.7186 -0.4647 -1.1126
   40MOL   H118 8776   1.978   1.698   6.396  1.3861 -0.1982 -0.6638
   40MOL   H119 8777   2.031   1.723   6.229 -0.3408  0.7683 -1.3572
   40MOL   H120 8778   1.932   1.851   6.315  1.4773  0.2337 -2.1078
   40MOL   H121 8779   1.562   1.686   6.162  0.7703  0.0979  3.4124
   40MOL   H122 8780   1.569   1.815   6.044 -0.7116 -1.1071  0.0732
   40MOL   C123 8781   1.587   1.884   6.238  0.1780  0.8720 -0.0368
   40MOL   C124 8782   1.653   2.019   6.199  0.3396  0.1743  0.0730
   40MOL   O125 8783   1.756   2.064   6.249 -0.0127  0.5599 -0.1682
   40MOL   C126 8784   1.584   2.106   6.096  0.0902 -0.0029  0.1012
   40MOL   C127 8785   1.615   1.846   6.388  0.6979 -0.2057 -0.1626
   40MOL   H128 8786   1.480   1.904   6.228 -0.0098 -0.2579 -0.3015
   40MOL   H129 8787   1.498   2.155   6.142 -0.4192 -0.9665  0.1814
   40MOL   H130 8788   1.649   2.177   6.043  0.1691 -1.1692 -1.3895
   40MOL   H131 8789   1.543   2.031   6.028 -0.3422  0.8413 -0.5798
   40MOL   H132 8790   1.717   1.872   6.417  1.0185 -1.1771 -0.3883
   40MOL   H133 8791   1.604   1.738   6.400  1.0152 -0.2839 -0.5658
   40MOL   C134 8792   1.527   1.921   6.489  0.2934  0.2642 -0.0199
   40MOL   C135 8793   1.381   1.897   6.452  0.5394 -0.4086 -0.6835
   40MOL   O136 8794   1.300   1.990   6.424  0.3579  0.5424 -0.6372
   40MOL   C137 8795   1.334   1.748   6.446 -0.1536 -0.0854 -0.2400
   40MOL   C138 8796   1.553   2.077   6.508  0.5118  0.0087  0.2375
   40MOL   H139 8797   1.546   1.879   6.588 -2.7077 -0.5529  0.2450
   40MOL   H140 8798   1.238   1.723   6.490 -0.0465 -0.7567 -0.3740
   40MOL   H141 8799   1.326   1.726   6.339  2.8477  1.5980 -0.8603
   40MOL   H142 8800   1.399   1.672   6.490  0.1201 -0.6524 -1.5716
   40MOL   H143 8801   1.523   2.135   6.421  0.7633  0.6609  0.5816
   40MOL   H144 8802   1.660   2.098   6.514 -0.1541  3.2440  2.4431
   40MOL   C145 8803   1.477   2.138   6.633  0.5260 -0.0029  0.0774
   40MOL   C146 8804   1.438   2.288   6.613 -0.4057  0.3705 -0.3350
   40MOL   O147 8805   1.496   2.373   6.677 -0.0822 -0.1423 -0.3573
   40MOL   C148 8806   1.320   2.311   6.519 -0.1131 -1.2092 -1.1006
   40MOL   C149 8807   1.564   2.120   6.765 -0.4302  0.0351  0.0692
   40MOL   H150 8808   1.397   2.065   6.640  0.9498 -0.5600 -0.9216
   40MOL   H151 8809   1.241   2.235   6.513 -2.2631  0.4631  3.5376
   40MOL   H152 8810   1.272   2.398   6.564 -0.8202 -1.0338 -2.1651
   40MOL   H153 8811   1.358   2.335   6.420  0.6725  0.3820 -0.4279
   40MOL   H154 8812   1.646   2.190   6.754  0.8015 -1.2086  1.2354
   40MOL   H155 8813   1.622   2.028   6.761 -1.1540 -0.3972 -0.6772
   40MOL   C156 8814   1.478   2.128   6.889  0.6176 -0.4340  0.1044
   40MOL   C157 8815   1.578   2.147   7.005 -0.0599  0.1715 -0.1774
   40MOL   O158 8816   1.618   2.046   7.069  0.0082 -0.7328  0.4979
   40MOL   C159 8817   1.635   2.285   7.043  0.3434  0.2155  1.0363
   40MOL   C160 8818   1.372   2.022   6.910  0.0387  1.0911  0.0999
   40MOL   H161 8819   1.429   2.226   6.886 -0.4415 -0.9722 -0.5573
   40MOL   H162 8820   1.562   2.346   7.097  0.1729 -0.1105  1.1714
   40MOL   H163 8821   1.727   2.279   7.102  1.4966 -0.4224 -0.7987
   40MOL   H164 8822   1.652   2.333   6.946 -0.9701  2.0310  1.6617
   40MOL   H165 8823   1.421   1.939   6.961  0.7240  1.4228 -0.0041
   40MOL   H166 8824   1.326   1.977   6.823 -0.3282 -0.4253  1.0724
   40MOL   C167 8825   1.254   2.069   6.997  0.9227 -0.0971  0.0582
   40MOL   C168 8826   1.280   2.084   7.148 -0.5871 -0.1315 -0.3645
   40MOL   O169 8827   1.262   2.188   7.209 -0.2171  0.3027 -0.0030
   40MOL   C170 8828   1.320   1.963   7.224 -1.1326 -0.1050  0.6935
   40MOL   C171 8829   1.119   1.988   6.970 -0.0105 -0.1169  0.1837
   40MOL   H172 8830   1.222   2.165   6.958  1.4099  0.3941  0.8582
   40MOL   H173 8831   1.352   1.981   7.327  2.7137  1.4954 -0.6503
   40MOL   H174 8832   1.237   1.899   7.250 -1.8157  0.1397 -0.8219
   40MOL   H175 8833   1.408   1.913   7.182 -0.0250  1.2445  1.3414
   40MOL   H176 8834   1.050   2.027   7.044 -0.7040 -2.5212  0.8442
   40MOL   H177 8835   1.132   1.881   6.988 -3.2843 -0.5216  0.3951
   40MOL   C178 8836   1.055   1.994   6.826 -0.6509 -0.3376 -0.1702
   40MOL   C179 8837   0.960   2.113   6.814 -0.9516  0.0117  0.0275
   40MOL   O180 8838   0.851   2.115   6.867  0.1158 -0.0098 -0.3091
   40MOL   C181 8839   1.003   2.228   6.722 -0.5308 -0.0545 -0.1792
   40MOL   C182 8840   0.978   1.863   6.794  0.5777  0.4356  0.0184
   40MOL   H183 8841   1.135   2.000   6.752 -0.7819  1.7493 -0.1736
   40MOL   H184 8842   0.923   2.257   6.654 -0.5182 -1.0820 -0.6481
   40MOL   H185 8843   1.019   2.319   6.779 -0.5890  1.7788 -2.9813
   40MOL   H186 8844   1.097   2.193   6.678 -0.3598  1.1594 -0.7917
   40MOL   H187 8845   0.900   1.841   6.867 -0.5747 -1.5527 -1.7554
   40MOL   H188 8846   1.039   1.776   6.817  0.6384  0.6794  0.7899
   40MOL   C189 8847   0.898   1.854   6.659  0.3331 -0.0638  0.4654
   40MOL   C190 8848   0.788   1.753   6.677  0.3109  0.3172  0.1262
   40MOL   O191 8849   0.809   1.636   6.709  0.1852  0.0754 -0.2407
   40MOL   C192 8850   0.647   1.811   6.646 -0.3680 -0.4360 -0.6737
   40MOL   C193 8851   0.984   1.829   6.531 -0.2346 -0.0109 -0.5472
   40MOL   H194 8852   0.839   1.943   6.638 -0.9512 -0.7286  1.1921
   40MOL   H195 8853   0.582   1.749   6.707 -1.6176  1.0136 -0.5069
   40MOL   H196 8854   0.642   1.917   6.673  0.2373 -0.0904 -1.8659
   40MOL   H197 8855   0.615   1.807   6.542 -0.3389 -0.9278 -0.6624
   40MOL   H198 8856   1.037   1.734   6.521  1.0028  0.5993  0.0160
   40MOL   H199 8857   1.063   1.904   6.545  1.3331 -1.7798  0.2372
   40MOL   C200 8858   0.897   1.851   6.400 -0.8755 -0.1814 -0.5961
   40MOL   C201 8859   0.848   1.710   6.347 -0.2472  0.2007 -0.0410
   40MOL   O202 8860   0.737   1.712   6.298 -0.5978  0.4743  0.1084
   40MOL   C203 8861   0.945   1.591   6.340  0.3599  0.7883 -0.2131
   40MOL   C204 8862   0.981   1.909   6.290  0.0945  0.2362 -0.0808
   40MOL   H205 8863   0.816   1.922   6.419  0.0514  0.9309 -0.7288
   40MOL   H206 8864   0.937   1.541   6.243 -1.4731  1.7111 -0.5571
   40MOL   H207 8865   1.050   1.618   6.344  0.4886  0.3602 -0.6504
   40MOL   H208 8866   0.922   1.521   6.420  1.8377 -0.4395 -0.8505
   40MOL   H209 8867   1.071   1.850   6.272  1.3768  2.1131  0.0101
   40MOL   H210 8868   1.028   2.001   6.323 -1.9886  1.5782 -0.7964
   40MOL   C211 8869   0.904   1.943   6.155  0.0399 -0.0786  0.1660
   40MOL   C212 8870   1.011   1.964   6.047 -0.1943  0.4064 -0.6381
   40MOL   O213 8871   1.059   2.074   6.018  0.4874  0.0642 -0.2956
   40MOL   C214 8872   1.060   1.837   5.978  0.4969 -0.2038 -0.1482
   40MOL   C215 8873   0.802   2.053   6.164  0.1184  0.3986  0.3391
   40MOL   H216 8874   0.858   1.849   6.125 -0.5580 -0.5478  2.4371
   40MOL   H217 8875   1.095   1.767   6.054  0.0704  0.0636  0.2958
   40MOL   H218 8876   0.988   1.796   5.907  1.2057 -3.8133  1.0886
   40MOL   H219 8877   1.147   1.866   5.920  1.8492  0.2958  2.0843
   40MOL   H220 8878   0.846   2.141   6.209  0.3504  1.3423 -1.6624
   40MOL   H221 8879   0.711   2.034   6.221 -0.1801 -0.7897 -0.4860
   40MOL   H222 8880   0.775   2.087   6.064  1.3490 -0.3316 -0.2520
   41MOL     C1 8881   5.829   7.031   1.572 -0.5708 -0.0002 -0.1502
   41MOL     C2 8882   5.954   6.953   1.556  0.1862 -0.4239 -0.7936
   41MOL     O3 8883   6.029   6.968   1.464  0.2296 -0.0543  0.1571
   41MOL     C4 8884   5.995   6.849   1.664  0.1277 -0.1749 -0.0060
   41MOL     C5 8885   5.812   7.156   1.476 -0.3289  0.2150 -0.2144
   41MOL     H6 8886   5.746   6.965   1.546 -1.3442  1.3997 -1.3159
   41MOL     H7 8887   6.003   6.897   1.762  1.0324  0.1091 -0.2159
   41MOL     H8 8888   5.914   6.777   1.660 -1.5123  1.6475 -0.5436
   41MOL     H9 8889   6.079   6.792   1.624  1.5047  1.7859  0.0357
   41MOL    H10 8890   5.710   7.194   1.478 -0.1579  0.6812 -0.3490
   41MOL    H11 8891   5.829   7.117   1.376 -0.3742 -1.9228  0.5783
   41MOL    H12 8892   5.814   7.055   1.677 -0.6458  0.4536 -0.2627
   41MOL    C13 8893   5.920   7.270   1.473 -0.5054 -0.4212  0.3970
   41MOL    C14 8894   5.966   7.315   1.614 -0.1647  0.0205 -0.8107
   41MOL    O15 8895   5.891   7.373   1.694 -0.1644 -0.5391  0.7974
   41MOL    C16 8896   6.103   7.274   1.648 -0.5760 -0.5315  0.2301
   41MOL    C17 8897   5.884   7.394   1.378 -0.6128 -0.0284  0.2873
   41MOL    H18 8898   6.009   7.214   1.442  0.3277 -0.4727  2.7297
   41MOL    H19 8899   6.148   7.353   1.709 -0.2669 -0.4954 -0.0475
   41MOL    H20 8900   6.092   7.184   1.709 -2.5807  0.1791  0.9595
   41MOL    H21 8901   6.169   7.256   1.564 -0.4759 -1.1193  0.4329
   41MOL    H22 8902   5.967   7.464   1.366 -0.3200 -0.2800  0.8117
   41MOL    H23 8903   5.802   7.437   1.435 -1.9221 -0.8448 -0.9350
   41MOL    C24 8904   5.830   7.344   1.240 -0.2310 -0.1211  0.1571
   41MOL    C25 8905   5.945   7.267   1.162  1.0015 -0.3586 -0.8360
   41MOL    O26 8906   6.060   7.298   1.170 -0.1460  0.2277 -0.3480
   41MOL    C27 8907   5.897   7.162   1.062  0.2239 -0.3796 -0.4506
   41MOL    C28 8908   5.771   7.463   1.161  0.2166  0.4198 -0.4123
   41MOL    H29 8909   5.759   7.262   1.250 -1.1055  0.4360 -1.3142
   41MOL    H30 8910   5.904   7.061   1.101 -0.6820  0.5038  2.1321
   41MOL    H31 8911   5.792   7.183   1.041  0.6264  0.3632 -1.7644
   41MOL    H32 8912   5.961   7.167   0.974  1.9898  1.1353  0.8608
   41MOL    H33 8913   5.851   7.487   1.092  1.5393  0.4005  1.0709
   41MOL    H34 8914   5.759   7.544   1.233 -1.5453  0.3221 -0.5761
   41MOL    C35 8915   5.639   7.441   1.082 -0.4640  0.1890 -0.4190
   41MOL    C36 8916   5.636   7.499   0.942  0.0304 -0.1556  0.2143
   41MOL    O37 8917   5.679   7.608   0.918 -0.1739 -0.6987  0.3106
   41MOL    C38 8918   5.578   7.406   0.829  0.2686  0.6848  0.7708
   41MOL    C39 8919   5.521   7.499   1.160 -0.1858 -0.1306  0.1368
   41MOL    H40 8920   5.630   7.332   1.072  1.8661 -0.0024 -0.7552
   41MOL    H41 8921   5.653   7.367   0.761 -1.1259 -0.8297  0.0490
   41MOL    H42 8922   5.509   7.330   0.867  1.0227 -0.1666  0.4574
   41MOL    H43 8923   5.527   7.482   0.770 -0.6231 -0.8713 -0.5240
   41MOL    H44 8924   5.430   7.508   1.100 -0.7359 -0.0191  0.9749
   41MOL    H45 8925   5.550   7.602   1.180 -2.0124  0.7841 -1.7393
   41MOL    C46 8926   5.476   7.423   1.287  0.2473  0.6158  0.0065
   41MOL    C47 8927   5.411   7.286   1.268 -0.2924 -0.6773  0.9612
   41MOL    O48 8928   5.442   7.192   1.338 -0.0651 -0.3869 -0.1260
   41MOL    C49 8929   5.298   7.281   1.165 -0.6030  0.2611 -0.0481
   41MOL    C50 8930   5.379   7.505   1.384  0.3295 -0.3373 -0.2435
   41MOL    H51 8931   5.565   7.400   1.346  0.2359  1.3427  0.3168
   41MOL    H52 8932   5.241   7.190   1.183 -0.7223  0.5401  1.0581
   41MOL    H53 8933   5.231   7.367   1.166 -2.7515 -1.3378 -1.4414
   41MOL    H54 8934   5.341   7.275   1.065  1.1261  0.8951  0.6437
   41MOL    H55 8935   5.341   7.438   1.462 -2.6340 -0.2724 -1.5617
   41MOL    H56 8936   5.293   7.537   1.326  1.1859  0.9745 -0.8018
   41MOL    C57 8937   5.456   7.627   1.438  0.2616  0.1525  0.2971
   41MOL    C58 8938   5.574   7.578   1.528 -0.0896 -0.1615  0.4290
   41MOL    O59 8939   5.585   7.464   1.575 -0.1948  0.0107  0.8029
   41MOL    C60 8940   5.683   7.680   1.563 -0.2160 -0.1466 -0.2982
   41MOL    C61 8941   5.376   7.737   1.495  0.3710  0.0214 -0.3240
   41MOL    H62 8942   5.516   7.671   1.358 -1.6753  4.0400  0.8402
   41MOL    H63 8943   5.764   7.626   1.613 -1.1656 -1.4262 -0.1218
   41MOL    H64 8944   5.721   7.737   1.479 -1.4873 -0.8926 -1.3932
   41MOL    H65 8945   5.640   7.757   1.627 -0.3982 -1.1662  0.8487
   41MOL    H66 8946   5.283   7.759   1.442 -2.1456 -1.2330  3.3216
   41MOL    H67 8947   5.437   7.825   1.474  1.9596 -0.4167  2.2743
   41MOL    C68 8948   5.332   7.739   1.643 -0.0791 -0.1783 -0.3877
   41MOL    C69 8949   5.243   7.625   1.668  0.0617  0.2331  0.5034
   41MOL    O70 8950   5.128   7.615   1.619  0.1145 -0.4996 -0.3235
   41MOL    C71 8951   5.285   7.521   1.770 -0.1695  0.1676  0.1627
   41MOL    C72 8952   5.257   0.026   1.698 -0.9121  0.4538  0.0359
   41MOL    H73 8953   5.424   7.712   1.695 -0.0569  1.9095  0.7107
   41MOL    H74 8954   5.274   7.556   1.873  0.2617 -1.6204  0.8381
   41MOL    H75 8955   5.240   7.423   1.753 -0.1265  0.0425  0.7268
   41MOL    H76 8956   5.391   7.508   1.750  0.0033  0.0168  1.1251
   41MOL    H77 8957   5.263   0.032   1.807  0.3995  2.5170 -0.1152
   41MOL    H78 8958   5.151   0.013   1.677 -0.6306 -2.4887  0.2212
   41MOL    C79 8959   5.313   0.168   1.645  0.1983  0.0277  0.0065
   41MOL    C80 8960   5.465   0.182   1.676 -0.4807 -0.7109  0.4694
   41MOL    O81 8961   5.551   0.184   1.589 -0.0316 -0.1403 -0.3880
   41MOL    C82 8962   5.500   0.152   1.820 -0.0238  0.4440  0.1573
   41MOL    C83 8963   5.220   0.292   1.678  0.3441 -0.8475  0.3609
   41MOL    H84 8964   5.315   0.167   1.536  2.0752 -1.7247  0.0161
   41MOL    H85 8965   5.486   0.236   1.888  0.3164 -0.1772  1.0097
   41MOL    H86 8966   5.441   0.066   1.851 -1.0266  0.9621 -0.2940
   41MOL    H87 8967   5.602   0.119   1.838 -0.1078 -0.6291 -1.2306
   41MOL    H88 8968   5.248   0.324   1.778 -0.1981 -0.0022  0.2425
   41MOL    H89 8969   5.117   0.258   1.688 -1.0553  2.8268 -1.0832
   41MOL    C90 8970   5.232   0.415   1.578 -0.8563 -0.8044  0.4586
   41MOL    C91 8971   5.163   0.393   1.442  0.1374  0.5048  0.3540
   41MOL    O92 8972   5.197   0.465   1.347  0.1836  0.5930 -0.1039
   41MOL    C93 8973   5.044   0.296   1.429  0.0312 -0.2473  0.4274
   41MOL    C94 8974   5.371   0.487   1.566 -0.7715  0.0650  0.2112
   41MOL    H95 8975   5.166   0.485   1.630 -0.6687 -0.1943 -0.1294
   41MOL    H96 8976   4.980   0.313   1.516 -1.0850  0.4510 -0.5084
   41MOL    H97 8977   4.982   0.311   1.341 -1.0150 -1.2854  0.9670
   41MOL    H98 8978   5.065   0.190   1.436 -0.1330 -0.2578  0.7615
   41MOL    H99 8979   5.358   0.583   1.516 -0.0293  0.0677  0.0181
   41MOL   H100 8980   5.435   0.432   1.496  0.9195  3.0219 -0.6221
   41MOL   C101 8981   5.433   0.521   1.709 -0.1894 -0.5913 -0.5395
   41MOL   C102 8982   5.340   0.615   1.787  0.5377  0.8384 -0.6827
   41MOL   O103 8983   5.296   0.714   1.732  0.6254 -0.1232  0.1062
   41MOL   C104 8984   5.293   0.574   1.926 -0.0580  0.1034  0.7753
   41MOL   C105 8985   5.562   0.599   1.686  0.1281  0.0265  0.2303
   41MOL   H106 8986   5.450   0.425   1.759  1.1845 -0.2263 -0.2861
   41MOL   H107 8987   5.271   0.661   1.988  2.3055  2.0511 -1.0473
   41MOL   H108 8988   5.204   0.511   1.921 -0.3874  0.5146  1.3589
   41MOL   H109 8989   5.372   0.514   1.972 -0.5066 -0.1162  1.2676
   41MOL   H110 8990   5.558   0.669   1.603 -2.5833  1.4153  1.4778
   41MOL   H111 8991   5.636   0.523   1.660  0.5755  1.1234 -1.8327
   41MOL   C112 8992   5.645   0.654   1.801 -0.4979 -0.0653  1.1755
   41MOL   C113 8993   5.703   0.560   1.905 -0.1736  0.4007  0.0575
   41MOL   O114 8994   5.629   0.484   1.968  0.4034 -0.3434 -0.6989
   41MOL   C115 8995   5.851   0.550   1.933  0.4420 -0.5692  0.3237
   41MOL   C116 8996   5.590   0.783   1.867  0.1499 -1.0340 -0.3697
   41MOL   H117 8997   5.738   0.687   1.753  0.2998 -2.5657  0.9191
   41MOL   H118 8998   5.895   0.461   1.979 -0.6600 -1.0222  0.5132
   41MOL   H119 8999   5.916   0.556   1.845  0.1910 -1.6728  0.0573
   41MOL   H120 9000   5.878   0.641   1.987 -1.7775 -0.7913  1.8442
   41MOL   H121 9001   5.526   0.743   1.946  0.0526 -0.9802 -0.4215
   41MOL   H122 9002   5.531   0.841   1.796 -0.5925 -0.5340  0.6357
   41MOL   C123 9003   5.703   0.875   1.924 -0.8013  0.2586 -0.3443
   41MOL   C124 9004   5.654   0.943   2.047  0.4418  0.2800 -0.4048
   41MOL   O125 9005   5.590   1.050   2.046 -0.3279  0.6477  0.5119
   41MOL   C126 9006   5.665   0.874   2.184 -0.5336 -0.8243  0.1393
   41MOL   C127 9007   5.749   0.965   1.802  0.1289  0.2688  0.1979
   41MOL   H128 9008   5.787   0.810   1.951 -0.9424 -0.4474 -1.5479
   41MOL   H129 9009   5.717   0.778   2.176 -2.0265 -2.0947  4.4771
   41MOL   H130 9010   5.723   0.935   2.253 -0.7510  1.6009 -1.7702
   41MOL   H131 9011   5.578   0.864   2.248 -1.1511  0.4457 -0.4855
   41MOL   H132 9012   5.681   1.050   1.803  1.6812  1.5754 -1.5505
   41MOL   H133 9013   5.731   0.914   1.707 -0.8390  1.5290 -0.3173
   41MOL   C134 9014   5.901   1.004   1.804 -0.2577 -0.0072 -0.1629
   41MOL   C135 9015   5.989   0.878   1.807  0.2356  1.1140 -0.2591
   41MOL   O136 9016   6.032   0.831   1.911 -0.4333  0.8339 -0.3744
   41MOL   C137 9017   6.023   0.807   1.681 -0.2239  0.7991 -0.1890
   41MOL   C138 9018   5.938   1.106   1.907 -0.0452 -0.2197  0.4158
   41MOL   H139 9019   5.932   1.045   1.708 -0.7359 -0.8339 -0.6771
   41MOL   H140 9020   6.003   0.862   1.589 -0.0080  1.2984  0.0615
   41MOL   H141 9021   6.131   0.795   1.684 -0.1969  0.9182 -0.5750
   41MOL   H142 9022   5.981   0.707   1.673  0.0748  0.7098 -0.7040
   41MOL   H143 9023   6.044   1.104   1.932 -0.1098  0.9704  0.8033
   41MOL   H144 9024   5.891   1.085   2.003  0.1166 -0.1343  0.5140
   41MOL   C145 9025   5.907   1.257   1.880 -0.0430 -0.4109  0.4588
   41MOL   C146 9026   6.020   1.325   1.811  0.0721  0.1716 -0.7437
   41MOL   O147 9027   6.131   1.356   1.864 -0.0638 -0.6978 -0.6081
   41MOL   C148 9028   5.991   1.346   1.663  0.1125  0.4823  0.6879
   41MOL   C149 9029   5.855   1.329   2.008 -0.3706 -0.2930 -0.4522
   41MOL   H150 9030   5.821   1.258   1.813 -0.6745  1.7611  1.2434
   41MOL   H151 9031   6.043   1.435   1.627  0.3476 -0.6125 -1.7835
   41MOL   H152 9032   6.025   1.261   1.604 -2.2538 -0.4240  0.5867
   41MOL   H153 9033   5.885   1.361   1.642  0.1130 -0.4280 -0.0056
   41MOL   H154 9034   5.935   1.315   2.081 -0.4465  3.2267  0.3583
   41MOL   H155 9035   5.773   1.275   2.056 -0.7201 -0.0570 -0.7797
   41MOL   C156 9036   5.820   1.480   2.006  0.5441 -0.2535 -0.1444
   41MOL   C157 9037   5.768   1.525   2.150 -0.1455 -0.4211  0.1128
   41MOL   O158 9038   5.652   1.558   2.165 -0.2609  0.0055  0.2126
   41MOL   C159 9039   5.863   1.510   2.270  0.2587  0.0001 -0.4324
   41MOL   C160 9040   5.714   1.512   1.891 -0.3125  0.2695 -0.0240
   41MOL   H161 9041   5.911   1.539   1.995  1.1331 -0.6085  2.4948
   41MOL   H162 9042   5.958   1.560   2.252  0.8212 -1.3545 -1.3102
   41MOL   H163 9043   5.818   1.535   2.366 -0.4250 -0.3930 -0.6454
   41MOL   H164 9044   5.885   1.403   2.269 -1.1221 -0.2929 -1.5554
   41MOL   H165 9045   5.620   1.467   1.921  0.6606 -0.8213  1.5258
   41MOL   H166 9046   5.756   1.466   1.802  1.1822  2.2235 -0.3780
   41MOL   C167 9047   5.701   1.662   1.855  0.5796 -0.5104  0.0162
   41MOL   C168 9048   5.554   1.696   1.831  0.2375  0.9552  0.1520
   41MOL   O169 9049   5.482   1.636   1.750 -0.6981 -0.3305 -0.1298
   41MOL   C170 9050   5.510   1.805   1.917  0.1603 -0.0907  0.2200
   41MOL   C171 9051   5.794   1.706   1.730 -0.3637  0.2809  0.0292
   41MOL   H172 9052   5.735   1.704   1.950 -1.2496  0.0345  0.4477
   41MOL   H173 9053   5.416   1.790   1.970  0.6539 -1.2232  0.8002
   41MOL   H174 9054   5.583   1.833   1.994  1.7703 -0.7628 -1.0143
   41MOL   H175 9055   5.488   1.897   1.864  2.8756  0.4424 -0.0698
   41MOL   H176 9056   5.777   1.811   1.704 -0.5257  0.3868  0.5476
   41MOL   H177 9057   5.755   1.660   1.640 -2.8745  2.4686 -0.0543
   41MOL   C178 9058   5.943   1.680   1.743 -0.2855  0.1302  0.0742
   41MOL   C179 9059   6.001   1.767   1.858 -0.5541  0.3166  0.1169
   41MOL   O180 9060   5.952   1.873   1.897 -0.0040 -0.1597 -0.4062
   41MOL   C181 9061   6.138   1.719   1.913 -0.2238 -0.3651  0.7626
   41MOL   C182 9062   6.014   1.707   1.604  0.3036  0.0071  0.1089
   41MOL   H183 9063   5.955   1.579   1.781 -1.4489  0.4089  1.2275
   41MOL   H184 9064   6.214   1.788   1.877 -3.6454  2.1398 -1.9850
   41MOL   H185 9065   6.144   1.699   2.020 -0.5786 -2.4116  0.4100
   41MOL   H186 9066   6.169   1.625   1.869  1.0683  0.5415 -0.2944
   41MOL   H187 9067   5.974   1.630   1.538 -1.3964  1.3004 -0.4145
   41MOL   H188 9068   6.122   1.690   1.610  0.6643  2.3572  0.9649
   41MOL   C189 9069   5.992   1.849   1.544  0.1688 -0.0351  0.4833
   41MOL   C190 9070   5.874   1.852   1.448  0.8143  0.3608 -0.3094
   41MOL   O191 9071   5.764   1.907   1.469 -0.1873  0.3697 -0.4851
   41MOL   C192 9072   5.896   1.790   1.314 -0.0205 -0.2084 -0.0185
   41MOL   C193 9073   6.117   1.901   1.474 -0.3092  0.0473  0.3344
   41MOL   H194 9074   5.960   1.914   1.626 -0.5852  1.0199 -0.6367
   41MOL   H195 9075   5.986   1.728   1.315  0.5484  0.5959 -0.7221
   41MOL   H196 9076   5.814   1.731   1.274 -0.3153 -0.4215  0.8981
   41MOL   H197 9077   5.911   1.874   1.246  0.5224 -1.9610 -2.1411
   41MOL   H198 9078   6.156   1.833   1.399  0.9224 -0.6178  1.5483
   41MOL   H199 9079   6.199   1.902   1.546  0.2058  0.4826 -0.2510
   41MOL   C200 9080   6.105   2.052   1.425 -0.6872 -0.7399  0.1261
   41MOL   C201 9081   6.216   2.073   1.324  0.0089 -0.4036  0.6128
   41MOL   O202 9082   6.284   1.985   1.274 -0.0884 -0.6418  0.1653
   41MOL   C203 9083   6.245   2.211   1.280 -0.4658  0.6395  0.0723
   41MOL   C204 9084   6.071   2.163   1.529 -0.9342  0.3730 -0.0249
   41MOL   H205 9085   6.013   2.052   1.366  1.0560  1.5803 -2.7313
   41MOL   H206 9086   6.300   2.269   1.353  0.0217  0.1731  0.0759
   41MOL   H207 9087   6.312   2.221   1.194  1.1035  0.2610  1.2357
   41MOL   H208 9088   6.148   2.256   1.257 -1.1341 -0.3907  0.7819
   41MOL   H209 9089   5.977   2.135   1.578 -0.3089  0.2007  1.0870
   41MOL   H210 9090   6.066   2.264   1.487 -1.6571 -0.4341 -1.9178
   41MOL   C211 9091   6.157   2.163   1.662  0.2691  0.6991  0.0641
   41MOL   C212 9092   6.109   2.257   1.774 -0.1888 -0.1034 -0.7610
   41MOL   O213 9093   6.071   2.372   1.756  0.9477 -0.0651 -0.2295
   41MOL   C214 9094   6.114   2.203   1.915  0.3936  0.5508 -0.2157
   41MOL   C215 9095   6.302   2.205   1.646 -0.2468  0.0069  0.3900
   41MOL   H216 9096   6.167   2.060   1.697  2.2740  0.2186 -1.8210
   41MOL   H217 9097   6.150   2.286   1.976  0.4734  0.5506 -0.2630
   41MOL   H218 9098   6.016   2.169   1.947 -0.3523  1.9884 -0.9175
   41MOL   H219 9099   6.182   2.118   1.913 -1.4977 -0.9673 -1.1821
   41MOL   H220 9100   6.341   2.126   1.582 -1.7790 -1.7288  1.5250
   41MOL   H221 9101   6.357   2.225   1.738  0.9927 -0.5890 -0.2079
   41MOL   H222 9102   6.299   2.295   1.585 -1.3605 -0.3226 -0.0465
   42MOL     C1 9103   5.134   1.272   3.271  0.3930 -0.0699  0.5171
   42MOL     C2 9104   5.211   1.406   3.313  0.7171 -0.2289 -0.1342
   42MOL     O3 9105   5.271   1.402   3.416  0.1208  0.0628  0.4775
   42MOL     C4 9106   5.226   1.524   3.212  0.0361 -0.2921  0.3232
   42MOL     C5 9107   5.122   1.182   3.393 -0.4761 -0.0299  0.0771
   42MOL     H6 9108   5.034   1.309   3.246 -0.4041 -2.9968 -0.8777
   42MOL     H7 9109   5.128   1.558   3.179 -0.3354 -0.7707  0.9105
   42MOL     H8 9110   5.277   1.610   3.255 -1.0000  1.6426 -2.1976
   42MOL     H9 9111   5.286   1.494   3.126 -0.4958  1.1162 -0.5460
   42MOL    H10 9112   5.095   1.239   3.482 -1.2118  1.2486 -0.9522
   42MOL    H11 9113   5.219   1.139   3.419 -1.0337 -0.0335  2.2128
   42MOL    H12 9114   5.176   1.221   3.184 -1.5139 -1.6619  0.4906
   42MOL    C13 9115   5.019   1.069   3.356  0.0662  0.3783  0.8169
   42MOL    C14 9116   4.906   1.097   3.456  0.5188  0.4324 -0.5616
   42MOL    O15 9117   4.915   1.071   3.576  0.3412  0.3907  0.3629
   42MOL    C16 9118   4.779   1.174   3.397  0.4580  0.3424 -0.3175
   42MOL    C17 9119   5.087   0.926   3.375  0.1652  0.7431 -0.2169
   42MOL    H18 9120   4.982   1.088   3.255 -0.3266  3.0858  1.4133
   42MOL    H19 9121   4.812   1.218   3.303  0.8300 -0.8617 -0.7593
   42MOL    H20 9122   4.693   1.110   3.381  0.1686  0.7401 -0.3538
   42MOL    H21 9123   4.740   1.251   3.463 -0.5080  0.4010 -0.9475
   42MOL    H22 9124   5.080   0.897   3.480 -1.0501 -1.5415 -0.8913
   42MOL    H23 9125   5.191   0.932   3.345 -0.5871 -0.9494 -3.3382
   42MOL    C24 9126   5.036   0.808   3.292  0.7327  0.5851  0.0273
   42MOL    C25 9127   5.013   0.839   3.144  0.8173 -0.5091  0.4284
   42MOL    O26 9128   4.904   0.851   3.091  0.7320 -0.9552 -0.5955
   42MOL    C27 9129   5.127   0.893   3.062 -0.2406 -0.0256  0.2856
   42MOL    C28 9130   4.918   0.731   3.355  0.2428 -0.3468 -0.7994
   42MOL    H29 9131   5.118   0.736   3.295  0.3432  0.0092 -1.9572
   42MOL    H30 9132   5.223   0.844   3.081 -0.5311 -1.8274 -2.5697
   42MOL    H31 9133   5.107   0.873   2.957  0.7191 -2.6755  0.5804
   42MOL    H32 9134   5.136   1.001   3.078 -2.5445  0.0099  1.5898
   42MOL    H33 9135   4.906   0.647   3.285 -1.3464 -1.4271  0.7398
   42MOL    H34 9136   4.832   0.795   3.339 -1.3188 -1.8545  1.2630
   42MOL    C35 9137   4.932   0.667   3.493 -0.6436 -0.5204 -0.3734
   42MOL    C36 9138   5.034   0.550   3.498  0.2595 -0.1839  0.0101
   42MOL    O37 9139   5.051   0.471   3.406 -0.1168  0.0927  0.5253
   42MOL    C38 9140   5.105   0.530   3.627 -0.1291  0.5290  0.1021
   42MOL    C39 9141   4.790   0.659   3.560  0.4331 -0.1875  0.4325
   42MOL    H40 9142   4.982   0.746   3.549  1.3794  0.2406 -3.0943
   42MOL    H41 9143   5.158   0.624   3.647  0.0744  0.3888  0.2260
   42MOL    H42 9144   5.036   0.517   3.710  0.4853  1.3639  0.7558
   42MOL    H43 9145   5.183   0.455   3.625 -0.7015 -0.0721  0.2464
   42MOL    H44 9146   4.731   0.749   3.547  0.5366 -0.4913 -2.5567
   42MOL    H45 9147   4.806   0.655   3.667  1.7208  0.9615  0.3062
   42MOL    C46 9148   4.705   0.536   3.521  0.6231 -0.1680  0.6334
   42MOL    C47 9149   4.555   0.569   3.501  0.1864  0.0303  0.0758
   42MOL    O48 9150   4.465   0.535   3.577 -0.0215  0.1066  0.5551
   42MOL    C49 9151   4.524   0.648   3.374  0.1598 -0.1897  0.3101
   42MOL    C50 9152   4.721   0.417   3.621 -0.5377 -0.3868  0.2083
   42MOL    H51 9153   4.745   0.505   3.425 -2.2195 -0.5456 -0.4426
   42MOL    H52 9154   4.549   0.582   3.291 -1.1628  1.4867 -1.4687
   42MOL    H53 9155   4.421   0.686   3.368  0.5697  0.8900 -0.0336
   42MOL    H54 9156   4.586   0.736   3.361  1.2261 -0.6842  2.0156
   42MOL    H55 9157   4.653   0.441   3.702 -0.5667 -0.7993  0.3069
   42MOL    H56 9158   4.825   0.419   3.654 -1.2701 -0.4991  2.5584
   42MOL    C57 9159   4.690   0.281   3.544  0.6324  0.3739 -0.5109
   42MOL    C58 9160   4.608   0.206   3.638  0.1435 -0.3857  0.2292
   42MOL    O59 9161   4.657   0.184   3.753 -0.5091  0.1811 -0.4321
   42MOL    C60 9162   4.468   0.167   3.596  0.4139  0.1422 -0.1772
   42MOL    C61 9163   4.812   0.199   3.498 -0.0884 -0.6856 -1.0369
   42MOL    H62 9164   4.637   0.310   3.454  1.2249  3.8641  0.1907
   42MOL    H63 9165   4.402   0.252   3.617  0.1179 -0.4452  1.3810
   42MOL    H64 9166   4.461   0.163   3.487 -0.6290 -2.3921 -0.0605
   42MOL    H65 9167   4.418   0.089   3.654 -0.5709  0.5116 -0.5179
   42MOL    H66 9168   4.866   0.153   3.581 -2.3596 -1.2117  0.1874
   42MOL    H67 9169   4.887   0.266   3.455 -1.1914  1.5194  0.3527
   42MOL    C68 9170   4.795   0.081   3.401 -0.3557  0.7213  0.1005
   42MOL    C69 9171   4.724   0.143   3.276  0.0320  0.1792  0.3853
   42MOL    O70 9172   4.601   0.163   3.269 -0.4465  0.4748  0.1935
   42MOL    C71 9173   4.807   0.191   3.161  0.3677 -0.0669  0.1897
   42MOL    C72 9174   4.718   7.801   3.463 -0.2206  0.6099  0.2258
   42MOL    H73 9175   4.897   0.059   3.370 -0.7163 -0.2754 -0.4023
   42MOL    H74 9176   4.899   0.134   3.147 -0.4163 -1.1789 -0.5158
   42MOL    H75 9177   4.744   0.172   3.074 -0.1313 -0.9071  0.7275
   42MOL    H76 9178   4.826   0.295   3.186 -0.7714 -0.0474  0.9999
   42MOL    H77 9179   4.719   7.739   3.374 -0.7398  0.2405  0.4746
   42MOL    H78 9180   4.611   7.818   3.477 -0.1667  0.2400  1.1068
   42MOL    C79 9181   4.795   7.726   3.577  0.4239 -0.4795  0.5608
   42MOL    C80 9182   4.924   7.666   3.516 -0.4752 -0.1594 -0.2810
   42MOL    O81 9183   4.930   7.607   3.408  0.0345  0.1273  0.2374
   42MOL    C82 9184   5.044   7.641   3.613  0.1742  0.3272  0.3037
   42MOL    C83 9185   4.698   7.620   3.636 -1.0547 -0.1461  0.3117
   42MOL    H84 9186   4.822   7.793   3.658 -0.1987  0.4740 -0.0013
   42MOL    H85 9187   5.123   7.611   3.544 -0.8426 -0.8820 -0.3622
   42MOL    H86 9188   5.082   7.733   3.658 -0.8665  0.5676  0.7078
   42MOL    H87 9189   5.025   7.556   3.679  2.4398 -0.8356 -0.5042
   42MOL    H88 9190   4.751   7.530   3.668  2.8616  1.2710 -1.9856
   42MOL    H89 9191   4.627   7.596   3.556 -2.3382  2.0057  0.7526
   42MOL    C90 9192   4.614   7.672   3.757  0.1374  0.1074  0.2938
   42MOL    C91 9193   4.681   7.648   3.890 -0.0250  0.6290 -0.7798
   42MOL    O92 9194   4.666   7.532   3.938  0.3573 -0.3030  0.2007
   42MOL    C93 9195   4.781   7.746   3.950 -0.4576  0.0450  0.2769
   42MOL    C94 9196   4.467   7.595   3.751 -0.4463 -0.1578 -0.3858
   42MOL    H95 9197   4.596   7.780   3.749  0.6355  0.0954 -1.0774
   42MOL    H96 9198   4.857   7.694   4.009  1.2519 -0.1775 -2.0606
   42MOL    H97 9199   4.846   7.786   3.873 -1.8810 -1.3634 -1.7102
   42MOL    H98 9200   4.729   7.829   3.998  0.9494  0.7119  0.6823
   42MOL    H99 9201   4.488   7.488   3.738  0.8306 -0.0860  0.9353
   42MOL   H100 9202   4.418   7.622   3.657 -2.2605  0.7734  0.8097
   42MOL   C101 9203   4.362   7.632   3.859 -1.0151  0.2898 -0.7029
   42MOL   C102 9204   4.245   7.529   3.853 -0.5955 -0.6139 -1.3020
   42MOL   O103 9205   4.168   7.538   3.753  0.2839 -0.0798 -0.1861
   42MOL   C104 9206   4.226   7.425   3.963  0.4147 -0.2531  0.3881
   42MOL   C105 9207   4.311   7.773   3.839 -0.6878  0.3977  0.0356
   42MOL   H106 9208   4.393   7.630   3.964 -1.6143 -0.6788 -0.5373
   42MOL   H107 9209   4.295   7.347   3.931  0.5269  0.6075 -1.5102
   42MOL   H108 9210   4.264   7.467   4.056  1.1253 -1.4323  0.6425
   42MOL   H109 9211   4.120   7.399   3.967  0.1672  0.7312  0.1347
   42MOL   H110 9212   4.253   7.783   3.748 -0.3704  0.9225 -0.1127
   42MOL   H111 9213   4.386   0.008   3.822 -2.0561  1.4154 -1.5255
   42MOL   C112 9214   4.215   7.834   3.954  0.0984 -0.4250 -0.0702
   42MOL   C113 9215   4.278   7.810   4.090 -0.1053  0.3484  0.2245
   42MOL   O114 9216   4.249   7.722   4.174  0.0983 -0.3204 -0.1698
   42MOL   C115 9217   4.417   0.031   4.114  0.1183  0.7483  0.0768
   42MOL   C116 9218   4.062   7.788   3.952  0.1297  0.6251 -0.1727
   42MOL   H117 9219   4.208   0.101   3.948 -0.6425 -0.3946  1.0509
   42MOL   H118 9220   4.455   0.070   4.020 -0.6568  2.1518  0.3228
   42MOL   H119 9221   4.411   0.096   4.201 -0.9445 -0.1690  0.7076
   42MOL   H120 9222   4.486   7.793   4.143 -0.6179  0.6886  1.7289
   42MOL   H121 9223   4.035   7.697   4.008 -0.2142 -0.0772 -1.4640
   42MOL   H122 9224   4.037   7.745   3.855  0.2790 -1.1398  0.5457
   42MOL   C123 9225   3.944   0.044   3.994  0.3761  0.2487 -0.2628
   42MOL   C124 9226   3.942   0.072   4.146  0.2856 -0.3665  0.6650
   42MOL   O125 9227   3.917   7.823   4.225  0.5600  0.0231  0.3080
   42MOL   C126 9228   3.966   0.212   4.191 -0.2030 -0.6030 -0.2052
   42MOL   C127 9229   3.805   0.004   3.933 -0.6084  0.1091 -0.2302
   42MOL   H128 9230   3.966   0.142   3.953 -1.0931  1.5190  1.8939
   42MOL   H129 9231   4.055   0.228   4.252 -2.0016 -1.6191  2.7927
   42MOL   H130 9232   3.982   0.281   4.108 -2.0711  1.3382  1.0008
   42MOL   H131 9233   3.880   0.252   4.245 -1.2290  0.2885 -2.4541
   42MOL   H132 9234   3.787   7.745   3.972  1.6109 -0.2758 -0.1014
   42MOL   H133 9235   3.806   7.832   3.825  2.1694  3.4867 -0.7303
   42MOL   C134 9236   3.680   0.100   3.955 -0.1959 -0.0456  0.7896
   42MOL   C135 9237   3.720   0.244   3.926 -0.4204 -0.5643 -0.1513
   42MOL   O136 9238   3.763   0.321   4.018  0.4289 -0.4169  0.2356
   42MOL   C137 9239   3.737   0.288   3.783 -0.1169  0.1080 -0.1295
   42MOL   C138 9240   3.610   0.083   4.098 -0.7063  0.4249  0.1915
   42MOL   H139 9241   3.594   0.074   3.894  0.6072  1.6239 -1.1240
   42MOL   H140 9242   3.842   0.315   3.768  0.3133 -2.1060 -1.3751
   42MOL   H141 9243   3.714   0.207   3.714  1.0592 -1.1614  0.9348
   42MOL   H142 9244   3.670   0.370   3.760 -2.0205 -1.4166 -0.1470
   42MOL   H143 9245   3.668   0.136   4.174  1.8027 -2.9984  0.7836
   42MOL   H144 9246   3.613   7.818   4.117 -3.0884 -0.2547 -2.8336
   42MOL   C145 9247   3.464   0.124   4.102 -0.0658  0.5373  0.4065
   42MOL   C146 9248   3.429   0.209   4.227 -0.2985  0.3118 -0.6198
   42MOL   O147 9249   3.419   0.147   4.333 -0.2665 -0.0446 -0.2893
   42MOL   C148 9250   3.383   0.348   4.197 -0.2336  0.0830 -0.5597
   42MOL   C149 9251   3.368   0.005   4.098  0.0770 -0.3382 -0.1082
   42MOL   H150 9252   3.427   0.189   4.022 -0.3404 -1.7606 -1.3946
   42MOL   H151 9253   3.459   0.425   4.202 -0.9845  0.7621  0.8292
   42MOL   H152 9254   3.319   0.359   4.109  1.6277  0.9338 -1.8195
   42MOL   H153 9255   3.311   0.371   4.276  1.2631 -0.7504  1.0887
   42MOL   H154 9256   3.339   7.798   4.191 -0.3722  0.1221 -0.0011
   42MOL   H155 9257   3.424   7.763   4.058 -0.1132 -0.5744  0.1213
   42MOL   C156 9258   3.235   0.039   4.030 -0.2129  0.3283  0.2734
   42MOL   C157 9259   3.122   0.108   4.106  0.1079 -0.5395 -0.3306
   42MOL   O158 9260   3.066   0.200   4.040  0.0626  0.5646  0.2097
   42MOL   C159 9261   3.096   0.070   4.253  0.2645  0.4009  0.4340
   42MOL   C160 9262   3.183   7.746   3.973  0.2796  0.4042  0.2636
   42MOL   H161 9263   3.252   0.108   3.948 -4.0038  1.1607  0.0974
   42MOL   H162 9264   2.993   0.039   4.267  0.6117 -0.3528  1.3808
   42MOL   H163 9265   3.152   7.821   4.274 -2.4024 -1.0450  1.4296
   42MOL   H164 9266   3.131   0.148   4.321 -1.5553  1.9219 -0.3255
   42MOL   H165 9267   3.132   7.691   4.052  1.0230  2.1326  1.9740
   42MOL   H166 9268   3.263   7.677   3.947 -1.4770 -1.4104 -0.5032
   42MOL   C167 9269   3.101   7.740   3.835  0.1432  0.3591 -0.3713
   42MOL   C168 9270   2.952   7.782   3.852 -0.4279 -0.0151  0.7981
   42MOL   O169 9271   2.894   7.771   3.959  0.0981 -0.1608 -0.2827
   42MOL   C170 9272   2.877   7.839   3.727  0.1778 -0.1308 -0.0001
   42MOL   C171 9273   3.118   7.599   3.764 -0.1933 -0.8493 -0.9826
   42MOL   H172 9274   3.149   7.805   3.762  0.7180  1.2996  0.8224
   42MOL   H173 9275   2.768   0.000   3.729  0.1973  0.1152  2.8815
   42MOL   H174 9276   2.922   0.092   3.696 -1.1719  1.5385  2.9706
   42MOL   H175 9277   2.905   7.771   3.646  0.7919 -0.6957  0.6784
   42MOL   H176 9278   3.017   7.562   3.748 -0.5708  0.3447 -1.3990
   42MOL   H177 9279   3.157   7.531   3.840 -2.5491 -2.1503 -0.8967
   42MOL   C178 9280   3.210   7.598   3.644 -0.2606  0.3284 -0.2592
   42MOL   C179 9281   3.173   7.474   3.562  0.0485 -0.1152  0.2527
   42MOL   O180 9282   3.135   7.373   3.619  0.1341  0.5556 -0.2246
   42MOL   C181 9283   3.177   7.491   3.415  0.7270  0.1858 -0.0427
   42MOL   C182 9284   3.362   7.587   3.686 -0.9089  0.5231 -0.4313
   42MOL   H183 9285   3.190   7.688   3.587 -2.2799 -0.4447 -0.8247
   42MOL   H184 9286   3.135   7.399   3.374 -0.5762  0.2497  1.1215
   42MOL   H185 9287   3.115   7.578   3.391 -0.8528 -1.4558 -2.1304
   42MOL   H186 9288   3.279   7.514   3.384  1.0950  0.1388  1.1276
   42MOL   H187 9289   3.372   7.490   3.735 -2.0947  0.6899  0.1505
   42MOL   H188 9290   3.376   7.667   3.759 -1.5364 -0.1168  0.3910
   42MOL   C189 9291   3.472   7.613   3.578 -0.5988  0.4171  0.5446
   42MOL   C190 9292   3.439   7.736   3.494  0.3147  0.2588  0.3384
   42MOL   O191 9293   3.376   7.728   3.390  0.2804  0.4693  0.9097
   42MOL   C192 9294   3.476   0.033   3.550  0.7906 -0.0184  0.1493
   42MOL   C193 9295   3.504   7.482   3.484  0.0498 -0.7280 -0.6462
   42MOL   H194 9296   3.568   7.629   3.626 -0.7768 -1.7311  1.6882
   42MOL   H195 9297   3.441   0.110   3.482 -1.9507 -3.0088 -1.9847
   42MOL   H196 9298   3.415   0.032   3.640  2.3576 -0.2385  1.2174
   42MOL   H197 9299   3.580   0.044   3.580  1.7568 -0.3357 -2.8648
   42MOL   H198 9300   3.515   7.517   3.381  0.8115 -0.2765 -0.4177
   42MOL   H199 9301   3.421   7.413   3.494 -0.9609  0.7579  1.6259
   42MOL   C200 9302   3.639   7.420   3.521 -0.5105  0.0936  0.4706
   42MOL   C201 9303   3.678   7.326   3.407 -0.6705  0.1669 -0.5825
   42MOL   O202 9304   3.612   7.224   3.384 -0.2074 -0.1561 -0.0962
   42MOL   C203 9305   3.824   7.333   3.349  0.2608  0.0756  0.0281
   42MOL   C204 9306   3.645   7.348   3.653 -0.1117  0.5514 -0.3021
   42MOL   H205 9307   3.710   7.503   3.527 -0.9263  0.5511 -0.7892
   42MOL   H206 9308   3.902   7.359   3.420  0.6016  0.0508 -0.3371
   42MOL   H207 9309   3.846   7.230   3.319 -0.2056  0.1925 -0.7236
   42MOL   H208 9310   3.811   7.401   3.264  1.5847 -0.6111 -0.7390
   42MOL   H209 9311   3.596   7.251   3.646  0.5170  0.1010  1.2822
   42MOL   H210 9312   3.583   7.393   3.730  0.6618 -2.6526  2.3082
   42MOL   C211 9313   3.781   7.325   3.715 -0.0580  0.4023  0.0673
   42MOL   C212 9314   3.768   7.192   3.808  0.7846 -0.0844  0.2043
   42MOL   O213 9315   3.765   7.196   3.929 -0.0979 -0.2296  0.0201
   42MOL   C214 9316   3.752   7.058   3.741  0.7097 -0.4307 -0.0471
   42MOL   C215 9317   3.822   7.451   3.797  0.0364  0.4408  0.0947
   42MOL   H216 9318   3.856   7.308   3.638  0.7456  1.0493  0.6982
   42MOL   H217 9319   3.708   7.066   3.641 -1.9802  0.3832  1.1536
   42MOL   H218 9320   3.850   7.014   3.720  0.7853 -0.5152  0.5000
   42MOL   H219 9321   3.697   6.992   3.807 -2.4401 -0.1184 -2.2055
   42MOL   H220 9322   3.841   7.538   3.734  1.2593  0.1084 -0.0093
   42MOL   H221 9323   3.912   7.436   3.856 -1.8381 -3.1426  2.2084
   42MOL   H222 9324   3.749   7.493   3.867  0.3394  0.6506  0.2849
   43MOL     C1 9325   0.639   1.273   1.958 -0.0960  0.4712 -0.9980
   43MOL     C2 9326   0.703   1.143   1.920  0.4964 -0.1073  0.2336
   43MOL     O3 9327   0.626   1.044   1.916 -0.3470 -0.2205  0.4342
   43MOL     C4 9328   0.857   1.134   1.906 -0.2699  0.2289 -0.0753
   43MOL     C5 9329   0.635   1.291   2.116  0.0648 -0.3610  0.4307
   43MOL     H6 9330   0.676   1.362   1.907 -0.0294  1.0702  0.0874
   43MOL     H7 9331   0.889   1.094   1.809  2.8179  0.6382  0.7219
   43MOL     H8 9332   0.896   1.235   1.912 -0.5169  0.2874  0.5382
   43MOL     H9 9333   0.904   1.078   1.988  1.1966 -0.8103 -1.5804
   43MOL    H10 9334   0.630   1.399   2.134 -0.2048 -0.4225  0.7386
   43MOL    H11 9335   0.724   1.252   2.165  0.1901 -1.1733 -0.4291
   43MOL    H12 9336   0.534   1.289   1.932 -0.0436  0.5902 -1.1389
   43MOL    C13 9337   0.502   1.229   2.179 -0.4512 -0.6189 -0.3476
   43MOL    C14 9338   0.370   1.256   2.106  0.4274  0.2030 -0.1988
   43MOL    O15 9339   0.329   1.368   2.086  0.1465 -0.2092  1.2262
   43MOL    C16 9340   0.282   1.136   2.060 -0.2824 -0.2206  0.6001
   43MOL    C17 9341   0.486   1.270   2.329  0.0644 -0.0154  0.2224
   43MOL    H18 9342   0.529   1.123   2.177  0.4695 -0.3792 -1.1925
   43MOL    H19 9343   0.229   1.141   1.965 -0.4768 -3.2095  0.5193
   43MOL    H20 9344   0.363   1.063   2.051  2.5380  2.6661  1.4999
   43MOL    H21 9345   0.208   1.126   2.139  1.6447 -1.2706  2.3327
   43MOL    H22 9346   0.384   1.247   2.362  0.3274 -3.6039 -1.2026
   43MOL    H23 9347   0.503   1.377   2.343  1.7220 -0.3458  0.8407
   43MOL    C24 9348   0.578   1.200   2.435  0.2396 -0.7047 -0.6255
   43MOL    C25 9349   0.726   1.248   2.441 -0.4332 -0.1263  0.4241
   43MOL    O26 9350   0.817   1.169   2.453  0.4076 -0.1706 -0.2263
   43MOL    C27 9351   0.746   1.406   2.449 -0.3535  1.0458  0.0567
   43MOL    C28 9352   0.566   1.038   2.455 -0.9573  0.0771  0.0582
   43MOL    H29 9353   0.534   1.251   2.520  0.0627 -4.2502  1.5134
   43MOL    H30 9354   0.756   1.444   2.348 -2.0744  1.2620 -0.0431
   43MOL    H31 9355   0.687   1.460   2.523  1.8370  0.9128  1.9712
   43MOL    H32 9356   0.847   1.419   2.487 -0.1470 -2.6621  1.0149
   43MOL    H33 9357   0.646   1.015   2.526  1.6895  0.0606 -2.8253
   43MOL    H34 9358   0.603   0.992   2.364 -1.4785  0.9127 -0.5740
   43MOL    C35 9359   0.419   0.986   2.483  0.4013  0.5889 -0.1218
   43MOL    C36 9360   0.352   1.054   2.608  0.7662  0.8987  0.1065
   43MOL    O37 9361   0.357   0.996   2.710 -0.4707  0.1187 -0.1110
   43MOL    C38 9362   0.269   1.185   2.606  0.0441  0.0240  0.2623
   43MOL    C39 9363   0.411   0.823   2.482 -0.3378  0.0823 -0.4797
   43MOL    H40 9364   0.364   1.024   2.397 -2.8756  3.3680  3.0471
   43MOL    H41 9365   0.196   1.177   2.525  0.8935  2.6481 -0.8039
   43MOL    H42 9366   0.214   1.189   2.700 -0.3505  0.1509  0.0277
   43MOL    H43 9367   0.339   1.267   2.593  0.3027 -0.3465 -0.6851
   43MOL    H44 9368   0.471   0.784   2.564  1.6514  1.0940 -1.4089
   43MOL    H45 9369   0.461   0.790   2.391  0.1799 -0.5016  0.0142
   43MOL    C46 9370   0.263   0.769   2.476  0.4902  0.5126 -0.8439
   43MOL    C47 9371   0.247   0.648   2.571 -0.3186  0.2673 -0.4781
   43MOL    O48 9372   0.295   0.540   2.540 -0.4486 -0.2052 -0.0451
   43MOL    C49 9373   0.176   0.677   2.701  0.1600  0.4217 -0.1508
   43MOL    C50 9374   0.209   0.723   2.331  0.1542 -0.3086  0.3803
   43MOL    H51 9375   0.202   0.847   2.521  0.2347 -0.5252  0.6578
   43MOL    H52 9376   0.080   0.626   2.707  0.9381 -0.7387  3.4051
   43MOL    H53 9377   0.232   0.643   2.788 -0.4076  0.4378  0.2213
   43MOL    H54 9378   0.158   0.783   2.718 -2.5206  0.0256 -0.4365
   43MOL    H55 9379   0.210   0.616   2.311  1.6258  0.2051 -2.5096
   43MOL    H56 9380   0.269   0.777   2.258  0.5106 -3.3752 -1.6570
   43MOL    C57 9381   0.063   0.769   2.291 -0.1821  0.5619  0.2088
   43MOL    C58 9382   0.042   0.923   2.284 -0.5667  0.1668 -0.1918
   43MOL    O59 9383   0.072   1.006   2.376 -0.1421  0.3233  0.1026
   43MOL    C60 9384   7.797   0.966   2.172 -0.2519 -0.0261 -0.1285
   43MOL    C61 9385   7.783   0.709   2.369 -0.7500  0.4612 -0.5808
   43MOL    H62 9386   0.049   0.737   2.188  1.8227 -1.7153  0.6069
   43MOL    H63 9387   7.821   0.931   2.071 -3.7589  0.2581 -1.1267
   43MOL    H64 9388   7.697   0.933   2.200  0.3554 -0.1638  1.9839
   43MOL    H65 9389   7.806   1.074   2.168  0.5063 -0.0941 -0.3668
   43MOL    H66 9390   7.707   0.787   2.383  0.6200  1.9330 -1.1964
   43MOL    H67 9391   7.810   0.681   2.471 -2.6449  0.4999 -0.0424
   43MOL    C68 9392   7.727   0.583   2.304 -0.0130 -0.4860 -0.3223
   43MOL    C69 9393   7.822   0.463   2.327  0.4264 -0.0433 -0.4489
   43MOL    O70 9394   0.045   0.414   2.231 -0.1419  0.1720 -0.2701
   43MOL    C71 9395   7.834   0.405   2.468 -0.1266 -0.6567  0.2926
   43MOL    C72 9396   7.680   0.602   2.159 -0.6450  0.4200 -0.4904
   43MOL    H73 9397   7.642   0.565   2.370  1.0875 -1.4415  0.8840
   43MOL    H74 9398   0.015   0.476   2.548  2.5464  1.1386 -1.9607
   43MOL    H75 9399   7.743   0.357   2.504  0.3051 -2.3325 -0.7763
   43MOL    H76 9400   0.049   0.312   2.472  2.0384  0.5944 -0.3439
   43MOL    H77 9401   7.770   0.619   2.099 -1.3709 -1.5130 -2.1693
   43MOL    H78 9402   7.621   0.693   2.165 -1.2793 -0.0677  0.7599
   43MOL    C79 9403   7.593   0.490   2.096  0.1758 -0.4214 -0.2752
   43MOL    C80 9404   7.630   0.479   1.947 -0.2389 -0.0105  0.5288
   43MOL    O81 9405   7.579   0.555   1.864  0.2931 -0.2316  0.4079
   43MOL    C82 9406   7.736   0.379   1.909  0.6713  0.8270 -0.4095
   43MOL    C83 9407   7.437   0.528   2.096 -0.2698  0.3459 -0.0266
   43MOL    H84 9408   7.618   0.395   2.142  2.0529  0.0929 -0.1737
   43MOL    H85 9409   7.781   0.319   1.988 -2.4866 -0.9784  0.1093
   43MOL    H86 9410   7.698   0.307   1.837  1.4474  1.1470 -1.1395
   43MOL    H87 9411   7.815   0.444   1.873  0.9951 -0.2265 -1.6589
   43MOL    H88 9412   7.383   0.465   2.025  0.8811 -2.0620  1.1991
   43MOL    H89 9413   7.434   0.628   2.051  0.1713  0.3297 -0.0991
   43MOL    C90 9414   7.358   0.523   2.224 -0.0306 -0.1232  0.6465
   43MOL    C91 9415   7.328   0.379   2.266  0.0521 -0.4501  0.5472
   43MOL    O92 9416   7.220   0.325   2.236  0.0594  0.1453 -0.2076
   43MOL    C93 9417   7.418   0.310   2.363  0.1350  0.0143 -0.4269
   43MOL    C94 9418   7.235   0.620   2.215 -0.9377  0.8314  0.4298
   43MOL    H95 9419   7.413   0.578   2.300 -0.1303 -1.0166  1.3723
   43MOL    H96 9420   7.460   0.379   2.437  1.8852 -1.5782  0.1128
   43MOL    H97 9421   7.366   0.234   2.420  1.0290  0.6097  1.2105
   43MOL    H98 9422   7.505   0.270   2.311  0.3758 -0.7383  0.5394
   43MOL    H99 9423   7.183   0.605   2.120 -0.2264 -0.2439  0.2016
   43MOL   H100 9424   7.272   0.722   2.207 -1.4273  0.9306 -0.6624
   43MOL   C101 9425   7.136   0.611   2.333 -0.4666 -0.6906 -0.1302
   43MOL   C102 9426   6.994   0.666   2.295  0.1706  0.2119  0.2331
   43MOL   O103 9427   6.963   0.778   2.321  0.0481 -0.8926  0.1506
   43MOL   C104 9428   6.906   0.585   2.196 -0.2801  0.0159 -0.0521
   43MOL   C105 9429   7.190   0.680   2.459 -0.0033 -0.5042 -0.2116
   43MOL   H106 9430   7.114   0.507   2.357 -3.2845 -0.1454 -0.1498
   43MOL   H107 9431   6.865   0.650   2.118 -0.8342 -1.4593 -1.0145
   43MOL   H108 9432   6.964   0.501   2.157  1.0893  0.3749  1.1937
   43MOL   H109 9433   6.824   0.549   2.258  0.3664 -0.2107  0.6775
   43MOL   H110 9434   7.199   0.785   2.433 -1.7394 -0.7138 -1.7608
   43MOL   H111 9435   7.293   0.652   2.478 -0.0837 -1.1730 -0.7455
   43MOL   C112 9436   7.113   0.685   2.599 -0.0096 -0.5074 -0.3570
   43MOL   C113 9437   7.196   0.790   2.676 -0.0053 -0.1111 -0.0171
   43MOL   O114 9438   7.309   0.758   2.719  0.2021 -0.3622 -0.2273
   43MOL   C115 9439   7.147   0.935   2.675 -0.6806  0.2490 -0.0863
   43MOL   C116 9440   7.115   0.547   2.661  0.4124 -0.1030  0.1671
   43MOL   H117 9441   7.017   0.732   2.576 -0.2819 -0.8292  0.1328
   43MOL   H118 9442   7.115   0.974   2.578 -1.0203  1.9953  0.7211
   43MOL   H119 9443   7.063   0.936   2.744 -0.5326  1.4788  0.0866
   43MOL   H120 9444   7.223   0.999   2.719 -0.6861  1.4424 -1.7531
   43MOL   H121 9445   7.098   0.554   2.769  1.1750 -1.0833  0.3615
   43MOL   H122 9446   7.216   0.507   2.665  1.7440  3.0325 -0.5859
   43MOL   C123 9447   7.006   0.450   2.611 -0.1624  1.1978 -0.3988
   43MOL   C124 9448   6.872   0.504   2.640  0.2851  0.4225  0.2513
   43MOL   O125 9449   6.802   0.539   2.542  0.3032  0.2670 -0.3389
   43MOL   C126 9450   6.826   0.537   2.779 -0.0370  0.1455  0.2763
   43MOL   C127 9451   7.045   0.304   2.658  0.3318  0.2189  0.0372
   43MOL   H128 9452   7.010   0.452   2.502 -0.3339  0.2109 -0.4214
   43MOL   H129 9453   6.847   0.643   2.795  1.8993 -0.1855  0.0546
   43MOL   H130 9454   6.718   0.524   2.774 -0.3091  2.5976 -1.5337
   43MOL   H131 9455   6.870   0.473   2.855  0.5336 -0.6799 -0.7424
   43MOL   H132 9456   7.051   0.294   2.767 -0.6626  3.0906  0.3846
   43MOL   H133 9457   7.147   0.280   2.627  0.2224  0.3963 -0.4536
   43MOL   C134 9458   6.936   0.194   2.612  0.0247 -0.4524 -0.9372
   43MOL   C135 9459   6.952   0.058   2.673 -1.3622  0.9663  0.1797
   43MOL   O136 9460   6.862   7.828   2.719  0.3383 -0.7368  0.6764
   43MOL   C137 9461   7.094   0.019   2.678  0.1894 -0.0317 -1.0408
   43MOL   C138 9462   6.924   0.194   2.454 -0.1777 -0.1798 -0.2938
   43MOL   H139 9463   6.847   0.223   2.668 -0.2540 -0.5818 -1.3133
   43MOL   H140 9464   7.150   0.053   2.591  2.3602  0.2151  0.4230
   43MOL   H141 9465   7.142   0.062   2.765 -0.9035  0.1591 -0.5227
   43MOL   H142 9466   7.112   7.754   2.680 -0.4265 -0.1144 -0.0953
   43MOL   H143 9467   7.023   0.174   2.414 -0.9215 -0.0099 -2.2863
   43MOL   H144 9468   6.923   0.297   2.420  1.6864  0.8918  2.7132
   43MOL   C145 9469   6.809   0.116   2.379 -0.4555 -0.2571  0.7410
   43MOL   C146 9470   6.829   0.115   2.228 -0.1170 -0.5374  0.0785
   43MOL   O147 9471   6.804   0.216   2.159 -0.2595  0.0379 -0.1503
   43MOL   C148 9472   6.860   7.813   2.170  0.4133  0.6516 -0.0998
   43MOL   C149 9473   6.677   0.185   2.434 -0.1651  0.4857  0.0106
   43MOL   H150 9474   6.812   0.015   2.419 -0.1235 -1.3721 -2.0171
   43MOL   H151 9475   6.955   7.815   2.116 -0.5050 -4.0689 -2.1491
   43MOL   H152 9476   6.863   7.738   2.248  1.3325  1.1023  0.3002
   43MOL   H153 9477   6.776   7.780   2.109  0.7794 -1.9421  0.7674
   43MOL   H154 9478   6.673   0.286   2.393  3.5616 -0.2258 -2.3830
   43MOL   H155 9479   6.682   0.187   2.543 -0.4975 -1.7731  0.0804
   43MOL   C156 9480   6.545   0.109   2.388  0.5381 -0.0548  0.4430
   43MOL   C157 9481   6.494   0.142   2.248  0.3425 -0.1882  0.3491
   43MOL   O158 9482   6.513   0.254   2.200  0.3293 -0.1373  0.1059
   43MOL   C159 9483   6.420   0.035   2.176  0.5056  0.2623  0.1950
   43MOL   C160 9484   6.434   0.140   2.485  0.6632  0.2174 -0.2437
   43MOL   H161 9485   6.555   0.000   2.393  2.0517 -0.2706 -4.3411
   43MOL   H162 9486   6.333   7.840   2.230  0.5582 -1.1204 -0.6353
   43MOL   H163 9487   6.377   0.070   2.082  0.3183 -2.3032 -0.7216
   43MOL   H164 9488   6.488   7.796   2.147  0.0914 -0.3835  1.0066
   43MOL   H165 9489   6.461   0.098   2.583  0.1552 -0.4199 -0.3726
   43MOL   H166 9490   6.350   0.072   2.466  1.9766 -1.7878  0.9281
   43MOL   C167 9491   6.373   0.283   2.501  0.1741  0.0733  0.3671
   43MOL   C168 9492   6.468   0.378   2.587 -0.6487  0.1003  0.1313
   43MOL   O169 9493   6.547   0.331   2.662 -0.2156 -0.0771  0.4178
   43MOL   C170 9494   6.479   0.528   2.552 -0.1975 -1.1445  0.2173
   43MOL   C171 9495   6.238   0.282   2.570 -0.4714 -0.2663 -0.2512
   43MOL   H172 9496   6.372   0.331   2.402 -1.7866 -0.2640  0.2048
   43MOL   H173 9497   6.529   0.534   2.455 -1.2046 -3.1301 -0.4631
   43MOL   H174 9498   6.388   0.585   2.570  0.2909  0.8223 -3.1666
   43MOL   H175 9499   6.558   0.554   2.622  0.0928 -0.4709 -0.3634
   43MOL   H176 9500   6.193   0.376   2.602 -1.4888 -0.9202  0.3083
   43MOL   H177 9501   6.253   0.227   2.663 -2.0100  2.0237  1.4030
   43MOL   C178 9502   6.125   0.212   2.501 -0.0692  0.0132  0.1394
   43MOL   C179 9503   6.096   0.280   2.359  0.0558 -0.2225 -0.1674
   43MOL   O180 9504   6.118   0.217   2.255  0.5521  0.3368  0.1450
   43MOL   C181 9505   6.029   0.417   2.353  0.8885  0.0441  1.4772
   43MOL   C182 9506   5.993   0.210   2.578 -0.0799  0.3353 -0.1432
   43MOL   H183 9507   6.148   0.110   2.471 -0.7566 -0.3994  0.9913
   43MOL   H184 9508   6.044   0.472   2.446 -1.9761  2.9862  0.2890
   43MOL   H185 9509   6.082   0.473   2.276 -1.7469  0.1762 -0.3136
   43MOL   H186 9510   5.924   0.416   2.321  1.0788 -3.1700  0.7958
   43MOL   H187 9511   5.913   0.195   2.506 -0.6556  0.4982  0.4572
   43MOL   H188 9512   5.974   0.313   2.608  1.6827  1.0308 -1.3780
   43MOL   C189 9513   5.998   0.117   2.706  0.5673 -0.3441  0.1565
   43MOL   C190 9514   6.040   7.819   2.679  0.2142  0.1034  0.1073
   43MOL   O191 9515   6.132   7.763   2.734 -0.6577 -0.2066 -0.2062
   43MOL   C192 9516   5.968   7.738   2.569 -0.1522 -0.3039 -0.4394
   43MOL   C193 9517   5.870   0.134   2.790  0.5349 -0.6372 -0.3536
   43MOL   H194 9518   6.080   0.157   2.766 -0.8189  0.3603  1.6345
   43MOL   H195 9519   5.994   7.632   2.574  0.9199  0.0341  2.0147
   43MOL   H196 9520   5.865   7.757   2.599  0.6947  0.1126  2.3649
   43MOL   H197 9521   5.971   7.766   2.464 -0.2821  1.5813  0.0567
   43MOL   H198 9522   5.785   0.098   2.732  0.6258 -0.3636 -0.6551
   43MOL   H199 9523   5.858   0.242   2.801  1.0394 -0.5995 -0.1714
   43MOL   C200 9524   5.874   0.078   2.935  0.7740  0.2293 -0.2983
   43MOL   C201 9525   5.738   0.057   3.003 -0.1758  0.0908 -0.3429
   43MOL   O202 9526   5.662   0.153   3.031  0.5658  0.0270  0.7994
   43MOL   C203 9527   5.689   7.759   3.026  0.7511  0.6923 -0.3923
   43MOL   C204 9528   5.986   0.134   3.033  0.5939  0.4461 -0.5599
   43MOL   H205 9529   5.917   7.821   2.925 -0.7304 -0.3912 -0.6828
   43MOL   H206 9530   5.739   7.688   2.961 -0.8645 -1.6210  0.8323
   43MOL   H207 9531   5.714   7.721   3.124  2.1797  0.8254 -0.7045
   43MOL   H208 9532   5.580   7.765   3.026  0.5962 -1.2036  3.0354
   43MOL   H209 9533   5.937   0.167   3.124 -0.9961  0.9705 -1.5780
   43MOL   H210 9534   6.022   0.223   2.980  2.5997 -0.9515 -1.5986
   43MOL   C211 9535   6.102   0.038   3.070  0.2018 -0.5858  0.2200
   43MOL   C212 9536   6.071   7.752   3.150 -0.4368  0.3573 -0.1786
   43MOL   O213 9537   5.964   7.732   3.208 -0.3349 -0.0179  0.4863
   43MOL   C214 9538   6.180   7.643   3.152 -0.2904  0.0552 -0.3389
   43MOL   C215 9539   6.199   0.135   3.145 -0.1492  0.3186  0.2175
   43MOL   H216 9540   6.165   0.002   2.989 -2.3663 -1.9185 -1.2618
   43MOL   H217 9541   6.152   7.539   3.134  2.6240 -0.7707 -0.2968
   43MOL   H218 9542   6.259   7.660   3.079  0.3141 -1.0910  0.0345
   43MOL   H219 9543   6.240   7.648   3.242 -1.2352  2.3259  0.1927
   43MOL   H220 9544   6.298   0.091   3.160 -0.2306  0.0427 -0.0537
   43MOL   H221 9545   6.155   0.153   3.243 -1.2664 -0.4982 -0.1320
   43MOL   H222 9546   6.215   0.236   3.106  0.6891 -0.4146 -1.3710
   44MOL     C1 9547   6.864   6.697   3.871  0.1099  0.3363 -0.2556
   44MOL     C2 9548   6.729   6.695   3.947  0.1854  0.3019 -0.2461
   44MOL     O3 9549   6.719   6.750   4.058  0.0669  0.1730 -0.0229
   44MOL     C4 9550   6.609   6.610   3.897  0.3845  0.0887 -0.0549
   44MOL     C5 9551   6.950   6.830   3.876 -0.4553 -0.0706 -0.0903
   44MOL     H6 9552   6.922   6.621   3.923  0.2886  1.3009  0.9881
   44MOL     H7 9553   6.648   6.534   3.830 -0.0012  0.4590 -0.6996
   44MOL     H8 9554   6.564   6.565   3.986  0.0769 -0.5755 -0.5412
   44MOL     H9 9555   6.533   6.674   3.854 -0.6165 -0.7537  0.4508
   44MOL    H10 9556   6.902   6.906   3.815  3.0329  0.3945 -2.3661
   44MOL    H11 9557   7.047   6.813   3.829  0.6686  2.1605  1.3224
   44MOL    H12 9558   6.847   6.671   3.767  0.1455  1.1969 -0.4854
   44MOL    C13 9559   6.979   6.889   4.013  0.1273  0.1808  1.0945
   44MOL    C14 9560   7.021   7.043   4.004  0.1403  0.4494  0.3483
   44MOL    O15 9561   7.128   7.079   3.948 -0.4935  0.3075 -0.4079
   44MOL    C16 9562   6.947   7.147   4.083 -0.8269 -0.2353  0.5967
   44MOL    C17 9563   7.088   6.811   4.093 -0.0004  0.6983 -0.6279
   44MOL    H18 9564   6.892   6.900   4.078  1.3156  1.7923  2.4568
   44MOL    H19 9565   7.009   7.199   4.157 -0.3498  0.6302 -0.4016
   44MOL    H20 9566   6.897   7.225   4.026 -0.4966 -1.3464 -1.2514
   44MOL    H21 9567   6.870   7.091   4.137 -0.4161 -0.4744  0.9387
   44MOL    H22 9568   7.173   6.819   4.027 -0.0959  0.1199 -0.8209
   44MOL    H23 9569   7.067   6.706   4.076 -0.1062  0.8286 -1.3172
   44MOL    C24 9570   7.109   6.842   4.243 -0.2700  0.2689  0.9732
   44MOL    C25 9571   7.248   6.797   4.283  0.3376  0.3512  0.1000
   44MOL    O26 9572   7.298   6.702   4.230 -0.0727 -0.3409 -0.5314
   44MOL    C27 9573   7.321   6.871   4.399  0.5307  0.8515  1.3943
   44MOL    C28 9574   6.994   6.793   4.332 -0.4343 -0.4666 -0.0739
   44MOL    H29 9575   7.112   6.951   4.253 -1.1035  0.4884 -1.0302
   44MOL    H30 9576   7.325   6.977   4.377 -2.5920  0.5543 -0.9909
   44MOL    H31 9577   7.252   6.867   4.484 -1.2917  0.7865 -0.0454
   44MOL    H32 9578   7.418   6.830   4.427  1.3294  0.1158 -2.2008
   44MOL    H33 9579   7.047   6.740   4.411 -0.4745  1.0555  0.9850
   44MOL    H34 9580   6.941   6.718   4.273 -2.3852  0.5292  0.3661
   44MOL    C35 9581   6.893   6.902   4.381 -0.3256 -0.3117 -0.2844
   44MOL    C36 9582   6.962   7.007   4.474 -0.4080  0.3174 -0.3867
   44MOL    O37 9583   7.056   6.977   4.551 -0.2957  0.2229 -0.0399
   44MOL    C38 9584   6.910   7.145   4.482 -0.3643  0.0583  0.5128
   44MOL    C39 9585   6.782   6.824   4.455  0.6944  0.3991 -0.2664
   44MOL    H40 9586   6.848   6.961   4.301  0.6598 -0.7728 -1.1830
   44MOL    H41 9587   6.992   7.193   4.535 -0.4187  0.3535  0.3359
   44MOL    H42 9588   6.883   7.197   4.390  2.0923 -1.8195 -1.3217
   44MOL    H43 9589   6.823   7.149   4.548 -0.8220  0.9433 -0.1255
   44MOL    H44 9590   6.818   6.791   4.553  1.2666 -1.9447 -1.2379
   44MOL    H45 9591   6.758   6.732   4.403 -0.5264  1.4177 -1.5274
   44MOL    C46 9592   6.658   6.911   4.478  0.7584 -0.3688 -0.7190
   44MOL    C47 9593   6.589   6.866   4.609  0.1733 -0.1917  0.0621
   44MOL    O48 9594   6.526   6.946   4.678 -0.6481  0.1951 -0.2843
   44MOL    C49 9595   6.603   6.724   4.660 -0.4905 -0.4363  0.0605
   44MOL    C50 9596   6.559   6.886   4.361 -0.3527 -0.3708  0.5681
   44MOL    H51 9597   6.677   7.018   4.486 -1.4257  0.0479 -0.8084
   44MOL    H52 9598   6.657   6.660   4.591 -1.3085  0.7655 -1.7455
   44MOL    H53 9599   6.672   6.732   4.744 -0.4433 -1.4811  0.1261
   44MOL    H54 9600   6.511   6.681   4.699 -0.7924 -0.9115 -1.1416
   44MOL    H55 9601   6.481   6.812   4.380 -0.7761 -0.4603 -1.4958
   44MOL    H56 9602   6.605   6.838   4.275  0.6521  1.3470  0.1239
   44MOL    C57 9603   6.487   7.018   4.304 -0.0166  0.1088 -0.8278
   44MOL    C58 9604   6.589   7.099   4.233 -0.1754  0.1221  0.5386
   44MOL    O59 9605   6.655   7.183   4.292  0.0401 -0.1196 -0.2672
   44MOL    C60 9606   6.613   7.085   4.086  0.5689  0.2451 -0.0280
   44MOL    C61 9607   6.409   7.095   4.412  0.3550 -1.0914  0.7578
   44MOL    H62 9608   6.416   6.985   4.227 -0.6285 -1.4745  0.3982
   44MOL    H63 9609   6.685   7.160   4.056  0.5901  0.8018  1.3665
   44MOL    H64 9610   6.661   6.992   4.056  2.0439 -0.0357  2.9549
   44MOL    H65 9611   6.523   7.105   4.027  0.4904  1.0504  0.3616
   44MOL    H66 9612   6.484   7.142   4.475  2.6074 -1.0307 -1.8526
   44MOL    H67 9613   6.360   7.023   4.478  0.9615 -0.0191  2.3950
   44MOL    C68 9614   6.316   7.207   4.358  0.2641  0.6346 -0.3608
   44MOL    C69 9615   6.275   7.296   4.478  0.2194  0.4477 -0.1157
   44MOL    O70 9616   6.316   7.414   4.481 -0.8031 -0.0176 -0.3518
   44MOL    C71 9617   6.174   7.241   4.581  0.1755 -0.0347  0.1753
   44MOL    C72 9618   6.195   7.148   4.279 -0.3074  0.6221  0.2184
   44MOL    H73 9619   6.380   7.259   4.286  1.5053  0.4508  0.5987
   44MOL    H74 9620   6.192   7.135   4.599 -0.9624 -0.0409  1.3810
   44MOL    H75 9621   6.179   7.280   4.683 -0.9607  0.2180  0.1371
   44MOL    H76 9622   6.075   7.247   4.535  0.2750 -0.4784 -0.1054
   44MOL    H77 9623   6.118   7.106   4.344 -2.0607  0.7040 -1.7901
   44MOL    H78 9624   6.234   7.062   4.225  0.0099 -0.4359  2.0856
   44MOL    C79 9625   6.130   7.247   4.175  0.2212  0.0163  0.6849
   44MOL    C80 9626   6.231   7.255   4.054  0.2747 -0.0065  0.1338
   44MOL    O81 9627   6.346   7.295   4.063  0.6257 -0.4916 -0.1226
   44MOL    C82 9628   6.181   7.190   3.926 -0.0727 -0.0563  0.5589
   44MOL    C83 9629   6.069   7.385   4.229  0.0942 -0.2264 -0.2840
   44MOL    H84 9630   6.044   7.195   4.132  0.0450  0.6434  0.2757
   44MOL    H85 9631   6.250   7.165   3.845 -0.9892  1.3542 -0.6772
   44MOL    H86 9632   6.129   7.098   3.955  1.4330 -0.5946  1.6403
   44MOL    H87 9633   6.118   7.264   3.877  0.1113 -0.7963 -0.8277
   44MOL    H88 9634   6.157   7.443   4.259  0.1127 -1.0882  1.3856
   44MOL    H89 9635   6.016   7.374   4.324  0.0272  0.1160 -0.2808
   44MOL    C90 9636   5.980   7.473   4.141 -0.2637  0.4500 -0.0553
   44MOL    C91 9637   5.853   7.395   4.092 -0.3821 -0.5266 -0.2572
   44MOL    O92 9638   5.857   7.298   4.015 -0.3348 -0.0038  0.3731
   44MOL    C93 9639   5.727   7.439   4.167  0.1519 -0.4093  0.4165
   44MOL    C94 9640   6.053   7.542   4.017 -0.0222  1.1454  0.2678
   44MOL    H95 9641   5.947   7.559   4.200  0.6212  0.0940  0.9709
   44MOL    H96 9642   5.644   7.487   4.114 -0.4649 -1.2328  0.6299
   44MOL    H97 9643   5.677   7.354   4.215  1.3857 -2.3154 -1.6309
   44MOL    H98 9644   5.757   7.495   4.256 -1.7970 -0.2497  1.0180
   44MOL    H99 9645   5.991   7.610   3.959 -3.4548 -1.2722  0.9371
   44MOL   H100 9646   6.068   7.466   3.940  0.6366 -0.2047  1.6932
   44MOL   C101 9647   6.194   7.609   4.047  0.7054 -0.4307 -0.0373
   44MOL   C102 9648   6.204   7.696   4.170  0.2487 -0.6571 -0.0803
   44MOL   O103 9649   6.109   7.766   4.201  0.3085 -0.0287 -0.0184
   44MOL   C104 9650   6.336   7.690   4.252 -0.5067  0.1247 -0.2814
   44MOL   C105 9651   6.244   7.683   3.923  0.1413 -0.4436  0.1987
   44MOL   H106 9652   6.269   7.538   4.081  1.5066  0.8528  0.8874
   44MOL   H107 9653   6.332   7.745   4.346 -3.1661 -1.3503  0.5180
   44MOL   H108 9654   6.372   7.588   4.263  0.4944  0.0555 -3.7131
   44MOL   H109 9655   6.417   7.738   4.197  0.5130  0.3854  1.3968
   44MOL   H110 9656   6.284   7.780   3.952 -1.3886  0.2178  0.1313
   44MOL   H111 9657   6.159   7.697   3.857  2.2078 -0.4723 -2.5448
   44MOL   C112 9658   6.360   7.596   3.854  0.7736 -0.3539 -0.0289
   44MOL   C113 9659   6.478   7.691   3.820  0.9982  0.0620 -0.5133
   44MOL   O114 9660   6.490   7.750   3.715 -0.2658  0.1511 -0.6153
   44MOL   C115 9661   6.566   7.723   3.941 -0.0751  0.7254 -0.0796
   44MOL   C116 9662   6.301   7.510   3.741 -0.6958 -0.5604  0.1539
   44MOL   H117 9663   6.395   7.521   3.926  0.3210  1.0252  1.6518
   44MOL   H118 9664   6.535   7.804   4.007 -0.2121 -1.5652  2.8117
   44MOL   H119 9665   6.557   7.639   4.011  2.1848 -0.0055 -0.6394
   44MOL   H120 9666   6.669   7.729   3.907 -0.5847  2.3245 -1.4107
   44MOL   H121 9667   6.235   7.567   3.676 -0.4588 -2.9621 -2.2791
   44MOL   H122 9668   6.233   7.440   3.791 -0.3285 -1.5480 -0.7221
   44MOL   C123 9669   6.403   7.421   3.651  0.0824 -0.5254 -0.1762
   44MOL   C124 9670   6.336   7.369   3.533  0.2671  0.3981 -1.0787
   44MOL   O125 9671   6.315   7.248   3.511  0.6058  0.0370 -0.3587
   44MOL   C126 9672   6.295   7.464   3.426 -0.2366  0.0990  0.4355
   44MOL   C127 9673   6.493   7.313   3.722 -0.5669  0.3598 -0.4249
   44MOL   H128 9674   6.474   7.487   3.602 -0.3008 -0.5908 -0.8327
   44MOL   H129 9675   6.288   7.567   3.460 -0.8265 -0.0708  0.8404
   44MOL   H130 9676   6.366   7.458   3.344  0.1292 -3.2207  0.8943
   44MOL   H131 9677   6.195   7.432   3.396 -0.3202 -1.2886  2.1037
   44MOL   H132 9678   6.432   7.223   3.725  1.3473 -1.0287 -2.5051
   44MOL   H133 9679   6.493   7.347   3.826  1.7472  0.5624 -0.4622
   44MOL   C134 9680   6.639   7.295   3.667 -0.5502 -0.2650 -0.4443
   44MOL   C135 9681   6.672   7.142   3.686  0.7723  0.5458  0.1680
   44MOL   O136 9682   6.746   7.101   3.774  0.1231  0.2558 -0.2535
   44MOL   C137 9683   6.617   7.043   3.577 -0.3960  0.6724  1.1134
   44MOL   C138 9684   6.731   7.393   3.743  0.2075 -0.6673  0.2160
   44MOL   H139 9685   6.637   7.319   3.561 -2.2979  0.2158 -0.3195
   44MOL   H140 9686   6.510   7.034   3.596 -0.8008  3.0455  0.1463
   44MOL   H141 9687   6.639   7.082   3.477 -1.0587  2.0498  1.4907
   44MOL   H142 9688   6.662   6.947   3.600  0.2747  0.8744  0.6547
   44MOL   H143 9689   6.721   7.366   3.849  0.2007  1.3012  0.7228
   44MOL   H144 9690   6.683   7.490   3.734  0.1018 -0.8160 -0.7807
   44MOL   C145 9691   6.875   7.404   3.701  0.0360 -0.1577 -0.3807
   44MOL   C146 9692   6.952   7.459   3.817 -0.4502 -0.3628 -0.4101
   44MOL   O147 9693   6.908   7.559   3.881  0.0651 -0.5122 -0.0332
   44MOL   C148 9694   7.062   7.374   3.872  0.4959  0.0297  0.0740
   44MOL   C149 9695   6.882   7.489   3.575  0.4322  0.4762  0.0388
   44MOL   H150 9696   6.905   7.302   3.677  0.3678 -0.3126  0.6403
   44MOL   H151 9697   7.060   7.274   3.828 -1.8089  0.1331 -0.1229
   44MOL   H152 9698   7.156   7.424   3.849 -0.9931  1.9435 -2.1462
   44MOL   H153 9699   7.034   7.367   3.977  1.3674 -0.2555  0.2844
   44MOL   H154 9700   6.862   7.592   3.605 -0.6371  0.9060 -2.0654
   44MOL   H155 9701   6.804   7.469   3.502  0.5085 -0.3019  0.1577
   44MOL   C156 9702   7.013   7.480   3.499 -0.5373 -0.1117  0.6995
   44MOL   C157 9703   7.030   7.344   3.433  0.4752 -0.1660  1.0859
   44MOL   O158 9704   7.071   7.250   3.500 -0.0323 -0.1768 -0.6347
   44MOL   C159 9705   6.979   7.323   3.290  0.1399 -0.1889  0.1100
   44MOL   C160 9706   7.147   7.522   3.566 -0.9498  0.4016 -0.1891
   44MOL   H161 9707   7.005   7.543   3.410  1.7314 -0.4423  0.2319
   44MOL   H162 9708   6.907   7.242   3.281 -1.2618  1.2018 -1.6954
   44MOL   H163 9709   6.917   7.406   3.257 -1.3546 -1.6598 -0.8762
   44MOL   H164 9710   7.060   7.300   3.221 -0.4207 -1.9266  0.0184
   44MOL   H165 9711   7.232   7.516   3.498  0.1070  0.1473  1.1313
   44MOL   H166 9712   7.178   7.444   3.636  1.1976  2.6441  1.4735
   44MOL   C167 9713   7.147   7.659   3.627 -0.0542 -0.1232  0.2134
   44MOL   C168 9714   7.093   7.765   3.528  0.4182 -0.1067 -0.4261
   44MOL   O169 9715   7.151   7.778   3.418  0.8083  0.1881 -0.0484
   44MOL   C170 9716   6.997   0.025   3.583 -0.5396 -0.2133 -0.2584
   44MOL   C171 9717   7.294   7.695   3.668  0.5130  0.1156 -0.4883
   44MOL   H172 9718   7.083   7.655   3.714  0.8649 -2.6089  0.8193
   44MOL   H173 9719   6.985   0.013   3.691  0.4737 -0.2485 -0.1425
   44MOL   H174 9720   7.039   0.123   3.559 -1.7061  0.5782  0.9037
   44MOL   H175 9721   6.902   0.041   3.533 -2.0738 -0.8873  2.3633
   44MOL   H176 9722   7.306   7.803   3.675  2.4912 -0.2826  3.6573
   44MOL   H177 9723   7.349   7.667   3.578 -0.6448 -0.1571 -1.1270
   44MOL   C178 9724   7.349   7.635   3.802 -0.1427  0.2832  0.5409
   44MOL   C179 9725   7.288   7.706   3.926 -0.2199 -0.1059  0.3021
   44MOL   O180 9726   7.234   7.818   3.921 -0.6998  0.4453  0.0309
   44MOL   C181 9727   7.281   7.633   4.058  0.1146 -0.1917  0.0100
   44MOL   C182 9728   7.498   7.631   3.805  0.3246 -0.2604 -0.6094
   44MOL   H183 9729   7.320   7.532   3.823  0.4746  0.2652  1.2992
   44MOL   H184 9730   7.278   7.701   4.143  0.5866  0.6797 -0.6766
   44MOL   H185 9731   7.193   7.568   4.066 -0.4800  0.4180 -1.4205
   44MOL   H186 9732   7.371   7.572   4.069  1.2060  1.3778 -0.1525
   44MOL   H187 9733   7.531   7.603   3.905  1.0867  1.4905 -0.3576
   44MOL   H188 9734   7.542   7.729   3.791  0.4063 -0.4221 -1.5226
   44MOL   C189 9735   7.555   7.525   3.703  0.4142 -0.1344 -0.2729
   44MOL   C190 9736   7.508   7.383   3.736  1.0298  0.0837  0.0583
   44MOL   O191 9737   7.498   7.353   3.856  0.1154 -0.0259 -0.6342
   44MOL   C192 9738   7.472   7.292   3.620  0.9568 -0.0846 -0.9016
   44MOL   C193 9739   7.710   7.525   3.708 -0.7568  0.2827  0.6522
   44MOL   H194 9740   7.522   7.564   3.607  0.0072  0.5726  0.1467
   44MOL   H195 9741   7.519   7.194   3.630  1.2905  0.1277 -0.3633
   44MOL   H196 9742   7.364   7.298   3.612  0.8420 -2.4175 -1.4191
   44MOL   H197 9743   7.525   7.324   3.530  2.2617 -1.1397 -0.5298
   44MOL   H198 9744   7.749   7.447   3.774  2.1609  1.6954  0.7105
   44MOL   H199 9745   7.759   7.604   3.766  1.0243 -0.5634  0.3177
   44MOL   C200 9746   7.774   7.489   3.565 -0.3716  0.5194 -0.4269
   44MOL   C201 9747   0.075   7.433   3.571 -0.3964 -0.1061  0.1090
   44MOL   O202 9748   0.150   7.475   3.659 -0.3183  0.3721 -0.0169
   44MOL   C203 9749   0.120   7.318   3.480  0.2660 -0.4422 -0.0702
   44MOL   C204 9750   7.773   7.611   3.465  0.5345 -0.4125 -0.2101
   44MOL   H205 9751   7.716   7.407   3.521  0.3419 -0.3332  0.2102
   44MOL   H206 9752   0.060   7.229   3.503  2.4345 -1.9654 -0.2035
   44MOL   H207 9753   0.097   7.336   3.375 -1.1661  3.7396  0.8543
   44MOL   H208 9754   0.225   7.294   3.492  0.6587 -0.0366 -2.4281
   44MOL   H209 9755   0.019   7.670   3.492  0.7852  0.4271 -2.7350
   44MOL   H210 9756   7.686   7.676   3.476  1.3978  0.5200  1.3405
   44MOL   C211 9757   7.783   7.584   3.316 -0.3808  0.2186 -0.7318
   44MOL   C212 9758   7.827   7.705   3.233  0.0259  0.2964  0.1094
   44MOL   O213 9759   7.743   7.767   3.166  0.1898 -0.0824  0.0915
   44MOL   C214 9760   0.128   7.742   3.229  0.0338  0.5649  0.1452
   44MOL   C215 9761   7.659   7.512   3.258 -0.5751 -0.3109  0.5821
   44MOL   H216 9762   0.028   7.518   3.309  0.1019  0.3521  3.1953
   44MOL   H217 9763   0.170   7.698   3.138  0.0274  0.9726 -0.0570
   44MOL   H218 9764   0.136   0.007   3.205  0.0734  0.2769 -1.1478
   44MOL   H219 9765   0.174   7.718   3.325  0.1721  1.6302  0.3562
   44MOL   H220 9766   7.689   7.494   3.154  1.6967 -0.6267  1.2636
   44MOL   H221 9767   7.576   7.583   3.257 -1.5610 -1.4367 -2.1737
   44MOL   H222 9768   7.627   7.421   3.307  1.7938 -0.9004  1.0817
   45MOL     C1 9769   5.285   1.591   4.584  0.4456  0.1632  0.1654
   45MOL     C2 9770   5.404   1.660   4.528 -0.1865 -0.2676 -0.1786
   45MOL     O3 9771   5.454   1.628   4.423 -0.4372 -0.2617  0.1751
   45MOL     C4 9772   5.464   1.782   4.597  0.3481 -0.2320 -0.2681
   45MOL     C5 9773   5.257   1.465   4.511  0.2823  0.4389  0.2659
   45MOL     H6 9774   5.317   1.556   4.682  0.0434 -0.2399  0.1575
   45MOL     H7 9775   5.561   1.802   4.551  0.6119  1.4524  0.9744
   45MOL     H8 9776   5.395   1.866   4.595  0.1943 -0.3468  0.1416
   45MOL     H9 9777   5.487   1.748   4.698  0.7035  0.7456 -0.0146
   45MOL    H10 9778   5.184   1.406   4.567 -0.3525  1.1632  0.2131
   45MOL    H11 9779   5.349   1.408   4.510  0.9683  1.5195 -0.1402
   45MOL    H12 9780   5.196   1.655   4.585 -0.9144 -1.6512  2.7827
   45MOL    C13 9781   5.199   1.460   4.370  0.2689  0.4574  0.6963
   45MOL    C14 9782   5.065   1.539   4.360  0.8202  0.4777 -0.8693
   45MOL    O15 9783   4.976   1.523   4.441 -0.1317 -0.0459  0.2118
   45MOL    C16 9784   5.037   1.637   4.251  0.1403  0.9505  0.1011
   45MOL    C17 9785   5.187   1.314   4.322  0.0874 -0.2867 -0.5111
   45MOL    H18 9786   5.273   1.510   4.307 -0.0639 -1.2402 -1.0689
   45MOL    H19 9787   5.117   1.646   4.177 -0.7796  0.3899 -0.9867
   45MOL    H20 9788   4.952   1.606   4.191  0.8777 -0.7907 -0.0801
   45MOL    H21 9789   5.024   1.738   4.289  0.6523  1.0530  0.0127
   45MOL    H22 9790   5.106   1.265   4.376 -2.8809  2.5919 -2.1902
   45MOL    H23 9791   5.269   1.255   4.363 -1.9961 -1.9807  1.3972
   45MOL    C24 9792   5.181   1.291   4.175  0.7251 -0.3185  0.1444
   45MOL    C25 9793   5.293   1.358   4.105 -0.2036 -0.4384  1.2150
   45MOL    O26 9794   5.269   1.457   4.028 -0.2047  0.4243  0.1605
   45MOL    C27 9795   5.429   1.300   4.113  0.3782 -0.4484  0.2752
   45MOL    C28 9796   5.044   1.304   4.108  0.0166  0.0741 -0.1388
   45MOL    H29 9797   5.201   1.184   4.165 -1.6980 -0.9276  1.3201
   45MOL    H30 9798   5.497   1.341   4.188 -1.6242 -0.2278  2.0250
   45MOL    H31 9799   5.418   1.196   4.146  0.0661  0.0765  1.8870
   45MOL    H32 9800   5.493   1.302   4.025  0.7436 -0.5047  0.5382
   45MOL    H33 9801   5.033   1.413   4.102  2.6661  0.4186  0.2723
   45MOL    H34 9802   4.962   1.282   4.177 -0.2713  0.7073 -0.2713
   45MOL    C35 9803   5.030   1.223   3.976  0.0100  0.0515  0.2889
   45MOL    C36 9804   4.981   1.308   3.849  0.6256  0.0467 -0.7036
   45MOL    O37 9805   5.051   1.337   3.755 -0.8905  0.3771 -0.2007
   45MOL    C38 9806   4.845   1.377   3.858 -0.5660 -0.1223  0.1769
   45MOL    C39 9807   4.950   1.105   4.010  0.1214 -0.0880  0.3183
   45MOL    H40 9808   5.132   1.192   3.952  0.3148 -0.1776  1.8221
   45MOL    H41 9809   4.773   1.311   3.908 -1.8830  1.7985  0.8747
   45MOL    H42 9810   4.855   1.468   3.916 -0.0314  0.4628 -0.8374
   45MOL    H43 9811   4.815   1.406   3.758  1.2946  1.6140  0.1009
   45MOL    H44 9812   4.846   1.133   4.030 -0.7958 -2.6453 -0.5759
   45MOL    H45 9813   4.988   1.070   4.106  0.5827  0.5197  0.3578
   45MOL    C46 9814   4.940   1.001   3.898  0.8955  0.5956  0.4596
   45MOL    C47 9815   4.804   0.928   3.882  1.0996 -0.2584  0.3214
   45MOL    O48 9816   4.786   0.821   3.930  0.2246 -0.4207 -0.1982
   45MOL    C49 9817   4.693   1.001   3.808  0.1932  0.5027 -0.1408
   45MOL    C50 9818   5.059   0.893   3.909 -0.4501 -0.2717 -0.1005
   45MOL    H51 9819   4.961   1.053   3.805  0.6072 -0.6048 -0.2910
   45MOL    H52 9820   4.704   1.109   3.817 -0.9039  0.4295  2.3524
   45MOL    H53 9821   4.714   0.975   3.704 -0.1455  2.0646 -0.6064
   45MOL    H54 9822   4.596   0.968   3.844  0.1210 -1.2252 -1.8455
   45MOL    H55 9823   5.044   0.826   3.825  3.0237 -0.2300 -0.8006
   45MOL    H56 9824   5.045   0.836   4.001 -2.2177  2.3907  1.3747
   45MOL    C57 9825   5.207   0.932   3.895  0.1732  0.3231  0.4719
   45MOL    C58 9826   5.235   0.971   3.747 -1.1641 -0.1486  0.4425
   45MOL    O59 9827   5.243   0.885   3.663 -0.5033  0.4975  0.7032
   45MOL    C60 9828   5.259   1.126   3.721 -0.7342  0.1064  0.3419
   45MOL    C61 9829   5.300   0.817   3.939 -0.5744  0.0998  0.5544
   45MOL    H62 9830   5.226   1.015   3.963  0.1627  0.6528  0.0712
   45MOL    H63 9831   5.255   1.187   3.812  2.0567  1.2277 -0.2283
   45MOL    H64 9832   5.351   1.140   3.664  0.3385 -0.1531  1.9852
   45MOL    H65 9833   5.176   1.164   3.660 -0.1905 -0.9261 -1.0660
   45MOL    H66 9834   5.265   0.723   3.895  1.7116 -1.2624  1.5951
   45MOL    H67 9835   5.278   0.802   4.044  0.5852 -0.4806  0.7199
   45MOL    C68 9836   5.453   0.831   3.901  0.3566  0.2835  0.4426
   45MOL    C69 9837   5.520   0.701   3.945  0.0259 -0.0056 -0.5302
   45MOL    O70 9838   5.562   0.688   4.062  0.3211 -0.2234 -0.1996
   45MOL    C71 9839   5.530   0.590   3.851 -0.3260 -0.4955  0.6224
   45MOL    C72 9840   5.507   0.949   3.977  0.7867 -0.4402  0.1474
   45MOL    H73 9841   5.457   0.847   3.794 -1.2343  2.4057  0.6604
   45MOL    H74 9842   5.432   0.580   3.806  0.3122 -0.3068 -0.8422
   45MOL    H75 9843   5.604   0.612   3.775 -0.7448  0.2739  0.4325
   45MOL    H76 9844   5.560   0.491   3.883 -2.2123 -1.1059  0.5637
   45MOL    H77 9845   5.488   0.936   4.083  2.0690  0.1054  0.4471
   45MOL    H78 9846   5.451   1.036   3.942 -0.3397 -0.2963  2.2284
   45MOL    C79 9847   5.661   0.969   3.948  0.7780  0.0765 -0.0421
   45MOL    C80 9848   5.726   1.026   4.074 -0.0696  0.5705 -0.3261
   45MOL    O81 9849   5.768   1.140   4.083 -0.4544  0.0642 -0.1335
   45MOL    C82 9850   5.734   0.926   4.189 -0.5999  0.3492 -0.9766
   45MOL    C83 9851   5.690   1.043   3.821 -0.3215  0.2447  0.0811
   45MOL    H84 9852   5.711   0.873   3.939 -2.2099 -1.3493 -2.8395
   45MOL    H85 9853   5.807   0.965   4.259 -1.7989  1.0880 -0.1069
   45MOL    H86 9854   5.643   0.911   4.247  0.1249  1.7547  0.5634
   45MOL    H87 9855   5.768   0.828   4.154 -1.0644 -0.2848  0.3091
   45MOL    H88 9856   5.626   1.131   3.817 -2.7109 -1.4728 -0.4152
   45MOL    H89 9857   5.662   0.981   3.735  0.6100 -0.5433  0.3329
   45MOL    C90 9858   5.831   1.066   3.777 -0.6908  0.7737 -0.4484
   45MOL    C91 9859   5.840   1.206   3.720  0.1148 -0.4677 -0.4382
   45MOL    O92 9860   5.849   1.223   3.601 -0.0884 -0.6874 -0.0280
   45MOL    C93 9861   5.844   1.324   3.825  0.2222  0.2284  0.0405
   45MOL    C94 9862   5.898   0.955   3.684 -0.1774  0.0669 -0.0668
   45MOL    H95 9863   5.893   1.069   3.866  0.6171 -1.7675 -1.2144
   45MOL    H96 9864   5.894   1.293   3.917  0.5910  0.1020 -0.2041
   45MOL    H97 9865   5.897   1.408   3.781  0.2441  0.1453 -0.0918
   45MOL    H98 9866   5.748   1.356   3.867  1.1805  1.0418  1.6575
   45MOL    H99 9867   5.836   0.960   3.595  0.4052  0.9445 -0.4279
   45MOL   H100 9868   5.877   0.861   3.735  2.2340 -0.0987  0.7254
   45MOL   C101 9869   6.043   0.975   3.640  0.1532  0.2721  0.1406
   45MOL   C102 9870   6.075   0.952   3.487  1.2529 -0.0037  0.3600
   45MOL   O103 9871   6.013   0.862   3.434  0.7673  0.2319  0.6799
   45MOL   C104 9872   6.174   1.036   3.419 -0.1848 -0.8499 -0.0680
   45MOL   C105 9873   6.135   0.883   3.724 -0.3730  0.1783 -0.7007
   45MOL   H106 9874   6.069   1.080   3.655  0.7133  0.1225  0.2310
   45MOL   H107 9875   6.142   1.140   3.408 -3.4931 -1.8567 -0.3589
   45MOL   H108 9876   6.266   1.019   3.475  0.4119  3.5509  0.4602
   45MOL   H109 9877   6.188   0.997   3.318  0.9123 -0.0731 -0.2318
   45MOL   H110 9878   6.242   0.900   3.718 -0.1209 -1.2019 -0.1525
   45MOL   H111 9879   6.115   0.785   3.681 -0.0158  0.5256 -1.6854
   45MOL   C112 9880   6.110   0.895   3.883 -0.2858  0.2353 -0.0387
   45MOL   C113 9881   6.166   1.022   3.935 -0.6068 -0.2174  0.0446
   45MOL   O114 9882   6.210   1.113   3.863 -0.1774 -0.6167  0.3629
   45MOL   C115 9883   6.139   1.054   4.083  0.4154 -0.3552 -0.2378
   45MOL   C116 9884   6.167   0.762   3.948 -0.0550  0.3399  0.5572
   45MOL   H117 9885   6.003   0.904   3.896 -0.2684  1.8842 -0.8377
   45MOL   H118 9886   6.229   1.016   4.132  0.1092 -1.4564 -0.5225
   45MOL   H119 9887   6.133   1.162   4.093 -0.4761 -0.5243  1.0528
   45MOL   H120 9888   6.052   1.001   4.120  0.4532 -0.5243 -0.3852
   45MOL   H121 9889   6.147   0.774   4.054 -0.8861  1.1573  0.3178
   45MOL   H122 9890   6.276   0.762   3.941 -0.0675 -0.0739  0.3539
   45MOL   C123 9891   6.105   0.619   3.907  0.6618  0.1447  0.7491
   45MOL   C124 9892   5.950   0.613   3.925 -0.4163 -0.3254  0.0420
   45MOL   O125 9893   5.886   0.707   3.978  0.1847 -0.4929 -0.3495
   45MOL   C126 9894   5.873   0.484   3.879 -0.3854 -0.1772  0.3607
   45MOL   C127 9895   6.167   0.509   3.998  0.0713 -0.0813  0.0296
   45MOL   H128 9896   6.121   0.595   3.802 -2.0471  1.9398 -0.1647
   45MOL   H129 9897   5.942   0.410   3.839 -1.0137  0.7337 -2.5197
   45MOL   H130 9898   5.829   0.430   3.963 -2.1213  0.8225  0.1058
   45MOL   H131 9899   5.799   0.509   3.803 -1.0677  2.8080  1.9427
   45MOL   H132 9900   6.099   0.460   4.067  0.4115 -1.8683 -0.8557
   45MOL   H133 9901   6.218   0.575   4.068 -1.8033  1.8909 -0.4149
   45MOL   C134 9902   6.255   0.409   3.915  0.1020 -0.0880 -0.2302
   45MOL   C135 9903   6.179   0.281   3.884 -0.2552 -0.4089 -0.3398
   45MOL   O136 9904   6.122   0.264   3.784  0.5266 -0.3770 -0.4933
   45MOL   C137 9905   6.173   0.178   3.994  0.1521  0.4760  0.7347
   45MOL   C138 9906   6.391   0.382   3.983 -0.2735 -0.1142  0.1524
   45MOL   H139 9907   6.280   0.453   3.819 -0.7593  1.0058  0.0428
   45MOL   H140 9908   6.272   0.140   4.018  0.1146  0.5334  0.9864
   45MOL   H141 9909   6.146   0.242   4.079  1.0471 -0.1432  1.4987
   45MOL   H142 9910   6.103   0.098   3.971  0.7544 -0.8776  3.3366
   45MOL   H143 9911   6.434   0.297   3.931  1.1887  2.2390 -2.5963
   45MOL   H144 9912   6.371   0.345   4.083  1.4188  0.2878  0.6697
   45MOL   C145 9913   6.489   0.508   3.990 -0.3991 -0.2460 -0.4787
   45MOL   C146 9914   6.560   0.544   3.859 -0.2474  0.6166  1.0681
   45MOL   O147 9915   6.587   0.455   3.774 -0.4875  0.7651 -0.3993
   45MOL   C148 9916   6.611   0.689   3.843  0.5545 -0.0425 -0.2038
   45MOL   C149 9917   6.594   0.509   4.109 -0.1250  0.0174  0.0300
   45MOL   H150 9918   6.432   0.601   4.000 -0.2009 -0.2571  0.7822
   45MOL   H151 9919   6.581   0.732   3.747  0.2911 -0.2125 -0.2001
   45MOL   H152 9920   6.575   0.754   3.922 -1.6531  0.6568 -1.7188
   45MOL   H153 9921   6.718   0.707   3.829  0.4458  0.2633 -0.6595
   45MOL   H154 9922   6.650   0.603   4.105 -0.7028  0.3710  0.2688
   45MOL   H155 9923   6.660   0.423   4.102 -2.0068 -1.2763 -2.5584
   45MOL   C156 9924   6.543   0.514   4.252  0.3250  0.0115 -0.0015
   45MOL   C157 9925   6.461   0.642   4.280  0.2871  0.1224  0.0917
   45MOL   O158 9926   6.448   0.730   4.197 -0.5937  0.0885 -0.2629
   45MOL   C159 9927   6.410   0.665   4.425  0.5982  0.4355  0.0897
   45MOL   C160 9928   6.650   0.490   4.361  0.0324 -0.2223 -0.1738
   45MOL   H161 9929   6.472   0.431   4.255  0.1309  0.1165 -1.4865
   45MOL   H162 9930   6.312   0.712   4.422  0.6237  0.8373  3.2946
   45MOL   H163 9931   6.390   0.568   4.470  1.0664  1.1087  1.7921
   45MOL   H164 9932   6.482   0.715   4.489 -0.4919  1.9406  0.1801
   45MOL   H165 9933   6.611   0.515   4.460 -3.1417 -3.1020 -0.6135
   45MOL   H166 9934   6.725   0.564   4.334  1.3037 -1.9857 -1.6373
   45MOL   C167 9935   6.721   0.351   4.360 -0.0215  0.1689 -0.3521
   45MOL   C168 9936   6.624   0.232   4.382  0.1442  0.2318 -0.3892
   45MOL   O169 9937   6.573   0.219   4.493 -0.0666  0.1177  0.5828
   45MOL   C170 9938   6.609   0.134   4.266  0.1918 -0.3552  0.9417
   45MOL   C171 9939   6.835   0.345   4.459 -0.2377 -0.0159 -0.5289
   45MOL   H172 9940   6.767   0.341   4.262 -0.8380 -1.6681 -0.5538
   45MOL   H173 9941   6.590   0.163   4.163 -3.3569 -1.6530  1.1717
   45MOL   H174 9942   6.702   0.076   4.273  1.5020  1.5666 -0.3013
   45MOL   H175 9943   6.526   0.065   4.285  1.2734 -2.2118 -0.7976
   45MOL   H176 9944   6.800   0.359   4.561 -1.4664  1.1251 -1.0896
   45MOL   H177 9945   6.897   0.432   4.436  1.9586 -1.0486  1.2409
   45MOL   C178 9946   6.921   0.222   4.450  0.3473 -0.0309 -0.2450
   45MOL   C179 9947   6.989   0.203   4.591 -0.2647 -0.6676  0.7067
   45MOL   O180 9948   7.103   0.248   4.618 -0.0208 -0.2569  0.8446
   45MOL   C181 9949   6.907   0.123   4.697 -0.4670 -0.2222  0.4258
   45MOL   C182 9950   7.027   0.232   4.331  0.3514 -0.0503  0.1622
   45MOL   H183 9951   6.867   0.129   4.435 -1.0720  0.7259  0.0860
   45MOL   H184 9952   6.807   0.106   4.659 -0.5376  1.1564 -0.0376
   45MOL   H185 9953   6.952   0.025   4.714 -0.7341 -0.4502 -0.1825
   45MOL   H186 9954   6.914   0.179   4.790 -1.5208  1.1869 -0.3235
   45MOL   H187 9955   7.117   0.180   4.362  1.5264  2.2711  0.7133
   45MOL   H188 9956   7.070   0.331   4.328  0.2360  0.0256  0.8043
   45MOL   C189 9957   6.980   0.189   4.187 -0.3867 -0.3065  0.4086
   45MOL   C190 9958   6.957   0.034   4.178  0.6585  0.1241 -0.2174
   45MOL   O191 9959   7.007   7.791   4.255 -0.1370 -0.0462  0.4978
   45MOL   C192 9960   6.867   7.835   4.066 -0.1252  0.0562  0.2625
   45MOL   C193 9961   7.077   0.231   4.069 -0.9770 -0.3252 -0.0570
   45MOL   H194 9962   6.881   0.225   4.160 -0.5019 -0.4227  0.6797
   45MOL   H195 9963   6.804   7.747   4.079  0.9165 -0.2749  3.2121
   45MOL   H196 9964   6.808   0.079   4.031 -0.3481 -0.5656 -0.9176
   45MOL   H197 9965   6.904   7.818   3.965  0.3495 -1.9161  0.7690
   45MOL   H198 9966   7.026   0.203   3.977 -0.3303  1.9590 -1.1670
   45MOL   H199 9967   7.169   0.174   4.077 -2.2486 -2.1867  1.7361
   45MOL   C200 9968   7.095   0.387   4.054 -0.7518  0.5331 -0.3675
   45MOL   C201 9969   6.963   0.453   4.004 -0.0374 -0.4921 -0.8378
   45MOL   O202 9970   6.875   0.386   3.950  0.3110  0.6667 -0.3658
   45MOL   C203 9971   6.937   0.601   4.029 -0.0893  0.0616  0.7646
   45MOL   C204 9972   7.212   0.425   3.960 -0.3806 -0.3712  0.0536
   45MOL   H205 9973   7.112   0.432   4.151  0.6174  1.4911 -1.0454
   45MOL   H206 9974   6.863   0.610   4.108 -1.1210 -0.4841 -0.1268
   45MOL   H207 9975   7.026   0.634   4.082  0.4501  1.1528 -0.7917
   45MOL   H208 9976   6.919   0.657   3.938  1.6863  0.9354  0.9310
   45MOL   H209 9977   7.297   0.462   4.019 -1.2555  0.3224  0.8943
   45MOL   H210 9978   7.204   0.524   3.917  0.8342 -0.6596 -0.8628
   45MOL   C211 9979   7.246   0.323   3.846 -0.3927 -0.3233 -0.3809
   45MOL   C212 9980   7.401   0.325   3.821  0.3215 -0.2174  0.3457
   45MOL   O213 9981   7.464   0.420   3.781  0.2888  0.2929 -0.0990
   45MOL   C214 9982   7.480   0.214   3.887  0.2256  0.4311 -0.0533
   45MOL   C215 9983   7.176   0.367   3.714  0.8080  0.3743 -0.6926
   45MOL   H216 9984   7.208   0.224   3.873 -3.1280  0.4001 -1.4366
   45MOL   H217 9985   7.419   0.149   3.949 -0.9437  1.6011  0.0180
   45MOL   H218 9986   7.525   0.166   3.800 -1.5933 -0.6431 -0.4331
   45MOL   H219 9987   7.565   0.264   3.933  1.9340 -0.3088 -2.2684
   45MOL   H220 9988   7.078   0.318   3.718  0.9965 -0.0681 -1.3001
   45MOL   H221 9989   7.233   0.335   3.627  3.6208 -0.9363  1.5463
   45MOL   H222 9990   7.164   0.475   3.711  0.4242  0.3155 -1.3595
   46MOL     C1 9991   2.810   0.392   4.047 -0.1681 -0.4969  0.5563
   46MOL     C2 9992   2.820   0.459   4.190 -0.0019  0.2620 -0.9958
   46MOL     O3 9993   2.755   0.411   4.287 -0.3318 -0.9194  0.0458
   46MOL     C4 9994   2.916   0.571   4.216 -0.0863 -0.6117 -0.2589
   46MOL     C5 9995   2.782   0.243   4.044 -0.2853  0.2189 -0.0524
   46MOL     H6 9996   2.744   0.449   3.983  2.0954 -0.1801 -1.5753
   46MOL     H7 9997   2.946   0.557   4.320 -0.3857 -1.2189 -0.2521
   46MOL     H8 9998   2.992   0.566   4.137  1.8828 -0.3799  1.5635
   46MOL     H9 9999   2.862   0.664   4.207  0.5086 -0.1559  0.8150
   46MOL    H1010000   2.852   0.205   4.119 -0.6029 -0.4621 -0.1016
   46MOL    H1110001   2.817   0.194   3.953  0.7732  1.4029 -0.2900
   46MOL    H1210002   2.911   0.405   4.009 -1.2794  0.6141 -2.1178
   46MOL    C1310003   2.637   0.210   4.077  0.5934  0.7548  0.0416
   46MOL    C1410004   2.633   0.072   4.145  0.2144 -0.6854  0.5132
   46MOL    O1510005   2.576   7.815   4.099 -0.1166  0.2976 -0.1182
   46MOL    C1610006   2.705   0.066   4.277  0.2483 -0.1187 -0.1300
   46MOL    C1710007   2.557   0.215   3.942 -1.0239  0.1476 -0.2693
   46MOL    H1810008   2.603   0.288   4.145 -0.3067  1.1021 -0.7994
   46MOL    H1910009   2.779   7.829   4.269 -0.6531 -1.3519  3.2340
   46MOL    H2010010   2.760   0.153   4.314  1.4662 -1.1679  0.5440
   46MOL    H2110011   2.639   0.035   4.358 -0.1615 -2.9964 -1.5112
   46MOL    H2210012   2.573   0.117   3.896 -0.5713 -0.0228  0.2376
   46MOL    H2310013   2.595   0.287   3.869  1.2603 -0.4645  0.2495
   46MOL    C2410014   2.401   0.237   3.956  0.3932 -0.2392 -0.2967
   46MOL    C2510015   2.319   0.173   3.842 -0.2789 -0.3308  0.1758
   46MOL    O2610016   2.309   0.221   3.728 -0.2759  0.2821 -0.1886
   46MOL    C2710017   2.240   0.047   3.878 -0.0423 -0.0915 -0.9776
   46MOL    C2810018   2.357   0.386   3.976 -0.1916 -0.4499 -0.2444
   46MOL    H2910019   2.361   0.180   4.040  2.4803 -0.7087  0.4085
   46MOL    H3010020   2.232   7.813   3.800  1.5850  0.0596 -1.3068
   46MOL    H3110021   2.275   0.008   3.974  2.6921  2.4862 -0.8562
   46MOL    H3210022   2.137   0.079   3.896  0.1013  0.5253 -1.2607
   46MOL    H3310023   2.257   0.404   3.937 -0.2257 -0.9707 -0.3970
   46MOL    H3410024   2.418   0.440   3.903  0.2680 -0.6917 -0.0398
   46MOL    C3510025   2.380   0.444   4.114  0.1217 -0.7444  0.2263
   46MOL    C3610026   2.281   0.384   4.210  0.3516 -0.2594 -0.1253
   46MOL    O3710027   2.160   0.397   4.179  0.6027  0.0627  0.0745
   46MOL    C3810028   2.333   0.296   4.331 -0.0097  0.0772 -0.7229
   46MOL    C3910029   2.401   0.600   4.107  0.3530 -0.9202 -0.2615
   46MOL    H4010030   2.476   0.412   4.154  0.7774  2.2432  1.2087
   46MOL    H4110031   2.373   0.205   4.288  1.5305  0.3794  0.0402
   46MOL    H4210032   2.401   0.350   4.397 -0.2085 -0.2783 -0.2284
   46MOL    H4310033   2.242   0.260   4.379  0.0499  0.4022 -0.3605
   46MOL    H4410034   2.331   0.639   4.033  1.8083  1.0480 -0.6486
   46MOL    H4510035   2.505   0.618   4.079  1.1408 -1.2430  2.2753
   46MOL    C4610036   2.380   0.674   4.234 -1.2005  1.1087  0.0240
   46MOL    C4710037   2.349   0.826   4.218  0.5863  0.2383 -0.2613
   46MOL    O4810038   2.424   0.884   4.137 -0.8696  0.1873  1.0934
   46MOL    C4910039   2.250   0.894   4.308  0.0107  0.1862  0.0963
   46MOL    C5010040   2.498   0.642   4.331  1.0922  0.0723 -0.9781
   46MOL    H5110041   2.298   0.633   4.293  0.7363 -2.0642  0.6131
   46MOL    H5210042   2.192   0.813   4.350  1.6638 -0.6767  0.7856
   46MOL    H5310043   2.294   0.955   4.387  2.6087  2.0073 -2.6182
   46MOL    H5410044   2.186   0.952   4.242 -2.5760 -1.5635  1.0358
   46MOL    H5510045   2.580   0.689   4.276  2.1868  0.9269  1.3443
   46MOL    H5610046   2.533   0.538   4.331  1.3581  0.1577 -1.5411
   46MOL    C5710047   2.478   0.702   4.475 -0.0972  0.2798 -0.1322
   46MOL    C5810048   2.612   0.759   4.525 -0.3071 -0.0654  0.1042
   46MOL    O5910049   2.615   0.877   4.557 -0.5575 -0.0845 -0.5854
   46MOL    C6010050   2.720   0.664   4.562  0.6146 -0.1218 -0.0443
   46MOL    C6110051   2.418   0.599   4.577  0.6106 -0.0217  1.0094
   46MOL    H6210052   2.419   0.794   4.476  0.5024  0.6620 -0.1598
   46MOL    H6310053   2.706   0.565   4.521  0.7791 -0.2331  0.1619
   46MOL    H6410054   2.815   0.709   4.533  0.1917  1.2222  0.6017
   46MOL    H6510055   2.712   0.655   4.671  0.5602  0.8095  0.0391
   46MOL    H6610056   2.466   0.501   4.575  0.1587 -0.2524  1.3097
   46MOL    H6710057   2.315   0.586   4.542  0.5441 -1.2173  1.6250
   46MOL    C6810058   2.398   0.651   4.723  0.2055  0.2946 -0.8085
   46MOL    C6910059   2.472   0.565   4.827 -0.1388  0.5196  0.6716
   46MOL    O7010060   2.424   0.459   4.871  0.7569 -0.2516  0.4046
   46MOL    C7110061   2.583   0.640   4.901  0.1757  0.4209  0.1336
   46MOL    C7210062   2.247   0.650   4.761  0.8417 -0.0401 -0.0635
   46MOL    H7310063   2.432   0.754   4.737 -1.7077  0.7715  0.4118
   46MOL    H7410064   2.581   0.747   4.885 -0.3738  0.0681 -2.4219
   46MOL    H7510065   2.567   0.620   5.007 -0.2313 -1.4204 -0.2422
   46MOL    H7610066   2.685   0.606   4.881 -0.2033 -2.2679  2.3951
   46MOL    H7710067   2.250   0.650   4.870  2.7727  2.1740 -0.0824
   46MOL    H7810068   2.205   0.551   4.742 -1.6007  0.5102  2.1785
   46MOL    C7910069   2.165   0.770   4.708 -0.0204 -0.4631 -0.3302
   46MOL    C8010070   2.209   0.911   4.768  0.8959  0.1443 -0.2702
   46MOL    O8110071   2.269   0.913   4.879  0.1259 -0.3119 -0.3463
   46MOL    C8210072   2.169   1.036   4.686 -0.5301 -0.0931  0.7495
   46MOL    C8310073   2.014   0.749   4.726  0.6995  0.0251 -0.4908
   46MOL    H8410074   2.183   0.767   4.600 -0.4331  1.6716 -0.4895
   46MOL    H8510075   2.110   1.104   4.748  0.2773  1.1524  0.1763
   46MOL    H8610076   2.255   1.092   4.650 -1.5403  0.4864 -0.7794
   46MOL    H8710077   2.108   1.001   4.603 -0.8576 -0.8649  1.3094
   46MOL    H8810078   1.964   0.844   4.709 -1.8792 -1.2360 -0.2291
   46MOL    H8910079   1.983   0.737   4.830  0.9732  0.0217 -0.4097
   46MOL    C9010080   1.952   0.636   4.638  0.0375  0.8212 -0.4557
   46MOL    C9110081   1.925   0.676   4.497 -0.2933 -0.0805  0.0128
   46MOL    O9210082   1.903   0.797   4.476 -0.3210 -0.5487 -0.3648
   46MOL    C9310083   1.939   0.567   4.388  1.1181 -0.8106  0.4864
   46MOL    C9410084   1.822   0.572   4.700 -0.2895  0.1095  0.3548
   46MOL    H9510085   2.024   0.556   4.625  0.8174  1.4435 -0.0127
   46MOL    H9610086   1.920   0.467   4.427 -0.6025 -0.9914 -0.7513
   46MOL    H9710087   1.868   0.587   4.308  0.6493 -0.4711  0.9838
   46MOL    H9810088   2.040   0.568   4.348  0.9876 -0.2463  0.1531
   46MOL    H9910089   1.772   0.521   4.618  0.8702  1.4756 -1.2155
   46MOL   H10010090   1.747   0.649   4.720 -0.9313 -0.9544  2.2231
   46MOL   C10110091   1.844   0.468   4.810  0.1700 -0.2080 -0.3413
   46MOL   C10210092   1.947   0.361   4.792 -0.2348 -0.5568 -0.0064
   46MOL   O10310093   1.949   0.294   4.686 -0.8707  0.5316 -0.4026
   46MOL   C10410094   2.041   0.333   4.910 -0.1583  0.3456 -0.2573
   46MOL   C10510095   1.710   0.406   4.865 -0.1865  0.2416  0.1786
   46MOL   H10610096   1.887   0.528   4.890 -0.5189 -1.4986  1.0321
   46MOL   H10710097   2.127   0.276   4.875 -0.6407  0.0234 -0.9237
   46MOL   H10810098   2.084   0.430   4.935 -1.2963  0.3956  1.5512
   46MOL   H10910099   2.000   0.286   4.999 -1.0425 -0.5598 -1.1390
   46MOL   H11010100   1.679   0.326   4.798  4.0908 -0.7306 -0.7606
   46MOL   H11110101   1.627   0.476   4.854  0.4941  0.8871 -0.9579
   46MOL   C11210102   1.712   0.344   5.009  0.2210  0.3128  0.1465
   46MOL   C11310103   1.584   0.262   5.037 -0.1567  0.5917  0.0479
   46MOL   O11410104   1.495   0.303   5.110 -0.1226 -0.2060 -0.6532
   46MOL   C11510105   1.565   0.119   4.969 -0.0908 -0.5208 -0.0030
   46MOL   C11610106   1.736   0.452   5.117  0.7266  0.1648  0.2829
   46MOL   H11710107   1.788   0.266   5.018  1.2348  1.2604  0.0399
   46MOL   H11810108   1.626   0.100   4.881 -0.9547 -0.9500 -0.5200
   46MOL   H11910109   1.608   0.036   5.024 -2.1162 -2.1243 -0.7581
   46MOL   H12010110   1.459   0.099   4.953 -0.5562  3.5217 -2.9563
   46MOL   H12110111   1.664   0.533   5.122  1.1247  0.5420  0.0219
   46MOL   H12210112   1.827   0.504   5.087  1.1308 -1.0559 -0.6729
   46MOL   C12310113   1.750   0.405   5.266 -0.0124 -0.0363 -0.4824
   46MOL   C12410114   1.760   0.526   5.366 -0.5734 -0.4190  0.0098
   46MOL   O12510115   1.865   0.590   5.377  0.1067 -0.7151  0.0744
   46MOL   C12610116   1.647   0.557   5.458 -0.1141  0.6667 -0.7579
   46MOL   C12710117   1.876   0.322   5.285 -0.3810  0.3237  0.3228
   46MOL   H12810118   1.664   0.345   5.294  0.9094 -0.6946  1.0210
   46MOL   H12910119   1.592   0.637   5.410 -1.0269 -0.6125 -1.8599
   46MOL   H13010120   1.588   0.465   5.465  0.8046  0.2213  1.9641
   46MOL   H13110121   1.674   0.581   5.561 -1.6782 -1.1919  0.1465
   46MOL   H13210122   1.966   0.379   5.260 -0.8771  0.6437 -0.7763
   46MOL   H13310123   1.894   0.251   5.204 -2.4128  0.7244 -0.4945
   46MOL   C13410124   1.901   0.254   5.429 -0.6327 -0.2586  0.1991
   46MOL   C13510125   2.048   0.226   5.445  0.3505  0.0180 -0.0354
   46MOL   O13610126   2.088   0.115   5.407  0.3011  0.2829 -0.3038
   46MOL   C13710127   2.146   0.340   5.478 -0.3014  0.4186  0.3430
   46MOL   C13810128   1.806   0.135   5.461 -0.0681  0.4907  0.9439
   46MOL   H13910129   1.891   0.337   5.499 -0.9342  0.3377 -0.5589
   46MOL   H14010130   2.146   0.361   5.585 -1.6545  1.1265  0.2106
   46MOL   H14110131   2.248   0.303   5.468  0.0280  1.9162 -2.2266
   46MOL   H14210132   2.128   0.429   5.417  0.8926  0.2896 -0.2152
   46MOL   H14310133   1.807   0.068   5.375  3.2020  0.2330  1.1026
   46MOL   H14410134   1.702   0.166   5.455 -0.0439  0.2756 -0.7552
   46MOL   C14510135   1.841   0.045   5.592  0.5548 -0.1389  0.2417
   46MOL   C14610136   1.778   7.751   5.591  0.2361  0.4676 -0.3227
   46MOL   O14710137   1.707   7.705   5.500 -0.1241 -0.0446 -0.1387
   46MOL   C14810138   1.815   7.661   5.703 -0.4830 -0.1949 -0.4992
   46MOL   C14910139   1.811   0.127   5.724  0.9280 -0.1864 -0.1563
   46MOL   H15010140   1.946   0.019   5.585  1.9540  3.3398  5.4134
   46MOL   H15110141   1.833   7.563   5.660 -0.9419 -0.5271  0.0590
   46MOL   H15210142   1.902   7.706   5.751 -1.0781  0.8500 -0.3804
   46MOL   H15310143   1.736   7.674   5.778  1.0157 -1.4961  1.3411
   46MOL   H15410144   1.755   0.069   5.796 -0.4722 -0.2800 -1.2975
   46MOL   H15510145   1.744   0.210   5.699  1.1993  0.2280  0.4835
   46MOL   C15610146   1.944   0.182   5.785 -0.1229 -0.4194 -0.0308
   46MOL   C15710147   2.031   0.071   5.839 -0.6200 -0.3123  0.1913
   46MOL   O15810148   1.992   7.838   5.931 -0.1959 -0.6188 -0.5686
   46MOL   C15910149   2.166   0.048   5.769 -0.4781 -0.3516  0.2193
   46MOL   C16010150   1.913   0.290   5.897 -0.1052  0.3294 -0.1014
   46MOL   H16110151   1.998   0.243   5.712 -2.1021  1.9648  0.4265
   46MOL   H16210152   2.175   7.782   5.772 -2.7349 -0.5166  2.2138
   46MOL   H16310153   2.181   0.088   5.668  0.2553  0.1668  0.5269
   46MOL   H16410154   2.251   0.075   5.832 -1.3110 -0.3186  1.3331
   46MOL   H16510155   1.847   0.247   5.972  0.8145  2.1639  1.7723
   46MOL   H16610156   1.853   0.371   5.857  0.8812  2.0919  1.9190
   46MOL   C16710157   2.036   0.360   5.979  0.1171  0.3284 -0.4543
   46MOL   C16810158   1.985   0.440   6.099  0.1814 -0.1366  0.5582
   46MOL   O16910159   1.879   0.503   6.095  0.5908  0.1398 -0.5275
   46MOL   C17010160   2.047   0.409   6.238 -0.0361 -0.5473 -0.0113
   46MOL   C17110161   2.133   0.451   5.889  0.2803  0.2059 -0.7487
   46MOL   H17210162   2.096   0.275   6.013 -0.8097  0.0800  0.5619
   46MOL   H17310163   2.153   0.429   6.249 -0.1988  0.1563  0.3386
   46MOL   H17410164   2.013   0.480   6.313 -0.9696 -1.7694  0.7417
   46MOL   H17510165   2.035   0.304   6.265  0.1578 -0.3245  0.9514
   46MOL   H17610166   2.146   0.405   5.791  1.4015  1.0280 -0.9962
   46MOL   H17710167   2.232   0.447   5.935 -0.8999  3.0820  2.2171
   46MOL   C17810168   2.094   0.611   5.872  0.3319 -0.1251  0.2067
   46MOL   C17910169   1.976   0.624   5.773  0.2242 -0.3971  0.4758
   46MOL   O18010170   1.951   0.540   5.686 -0.1684 -0.0751 -0.1977
   46MOL   C18110171   1.887   0.749   5.780 -0.2925  0.0914 -0.0813
   46MOL   C18210172   2.211   0.695   5.823  0.5256  0.4173  0.6575
   46MOL   H18310173   2.067   0.649   5.970 -0.0408  0.0338  0.0451
   46MOL   H18410174   1.868   0.788   5.880 -0.0859  3.1339 -1.1733
   46MOL   H18510175   1.937   0.837   5.740 -1.7884  0.9139 -0.1852
   46MOL   H18610176   1.794   0.735   5.724  0.0975  2.9516 -1.4802
   46MOL   H18710177   2.288   0.688   5.899  2.6123 -1.8623 -1.6065
   46MOL   H18810178   2.173   0.797   5.835 -0.4142  0.2275 -0.5218
   46MOL   C18910179   2.267   0.681   5.684 -0.2468  0.1988 -0.0573
   46MOL   C19010180   2.404   0.609   5.688  0.3168  0.9256  0.0123
   46MOL   O19110181   2.502   0.671   5.726 -0.0971 -0.2924 -0.2185
   46MOL   C19210182   2.422   0.469   5.633 -0.4145  0.2229  0.1520
   46MOL   C19310183   2.285   0.828   5.616  0.7823 -0.5497 -0.4999
   46MOL   H19410184   2.196   0.625   5.623 -1.0960  0.6054  0.5424
   46MOL   H19510185   2.528   0.445   5.631  0.2026  2.8935 -1.4820
   46MOL   H19610186   2.362   0.396   5.688  1.1528 -0.3518  1.1451
   46MOL   H19710187   2.398   0.460   5.528 -1.4725  0.3482  0.3790
   46MOL   H19810188   2.369   0.877   5.666  0.2333  1.6819 -1.6762
   46MOL   H19910189   2.200   0.894   5.636  1.7877  0.0698  1.9123
   46MOL   C20010190   2.320   0.823   5.462  0.0729 -0.5342  0.3909
   46MOL   C20110191   2.417   0.944   5.434 -0.3728  0.3684  0.0105
   46MOL   O20210192   2.370   1.036   5.365 -0.3141 -0.6085  0.0732
   46MOL   C20310193   2.556   0.946   5.490 -0.1439 -0.4617 -0.2196
   46MOL   C20410194   2.202   0.801   5.367  0.1764  0.6157 -0.3094
   46MOL   H20510195   2.384   0.737   5.444 -0.0940 -0.5051 -0.3740
   46MOL   H20610196   2.618   0.893   5.417 -1.0939 -2.2030  0.2043
   46MOL   H20710197   2.601   1.044   5.507 -0.9766  0.1822 -1.5891
   46MOL   H20810198   2.574   0.878   5.573  1.5586 -0.0827 -0.2618
   46MOL   H20910199   2.133   0.881   5.393  0.4442  1.5705 -2.3984
   46MOL   H21010200   2.153   0.708   5.398  0.9587  0.1715 -0.3912
   46MOL   C21110201   2.239   0.792   5.217 -0.4914 -0.5749 -0.2073
   46MOL   C21210202   2.116   0.803   5.129  0.4413  0.4745 -0.2055
   46MOL   O21310203   2.064   0.699   5.096 -1.0498  0.3943 -0.4660
   46MOL   C21410204   2.062   0.942   5.106 -0.1586 -0.0497  0.0982
   46MOL   C21510205   2.333   0.671   5.190 -0.2025 -0.1412 -0.0406
   46MOL   H21610206   2.282   0.885   5.181 -0.1887  0.1488  1.9711
   46MOL   H21710207   2.047   0.949   4.999  0.7935 -1.8342 -0.1788
   46MOL   H21810208   1.968   0.963   5.157  1.2503  0.7423  2.4805
   46MOL   H21910209   2.132   1.018   5.140 -0.2625 -0.4791  1.3174
   46MOL   H22010210   2.436   0.705   5.202 -0.6015  0.5220  1.6645
   46MOL   H22110211   2.327   0.642   5.085 -1.6829 -0.0132 -0.0046
   46MOL   H22210212   2.304   0.585   5.249  1.0581 -0.6929 -0.2165
   47MOL     C110213   1.780   1.179   0.768  0.6098 -0.0227 -0.1704
   47MOL     C210214   1.753   1.167   0.920 -0.1722  0.0943 -0.0071
   47MOL     O310215   1.707   1.260   0.986 -0.6321  0.3506  0.2487
   47MOL     C410216   1.766   1.024   0.977  0.0072  0.0414  0.2788
   47MOL     C510217   1.738   1.311   0.700  0.1244 -0.0474 -0.6206
   47MOL     H610218   1.882   1.153   0.739  0.3389 -1.9802  0.5517
   47MOL     H710219   1.667   0.991   1.009 -0.4488  1.6557  0.5834
   47MOL     H810220   1.800   0.958   0.897 -0.7783  1.4602 -1.2692
   47MOL     H910221   1.830   1.022   1.065  1.0088  0.2398 -0.4358
   47MOL    H1010222   1.673   1.364   0.769  1.8438  0.5126  0.6153
   47MOL    H1110223   1.684   1.294   0.607  1.7271 -1.2520 -1.3535
   47MOL    H1210224   1.731   1.091   0.727  1.5445 -0.8136  0.3867
   47MOL    C1310225   1.848   1.407   0.651 -0.0746 -0.3846 -0.0632
   47MOL    C1410226   1.901   1.363   0.511  0.1692 -0.3124  0.3861
   47MOL    O1510227   1.981   1.274   0.503  0.1059 -0.3351 -0.5416
   47MOL    C1610228   1.838   1.435   0.393 -0.1276  0.2279 -0.4134
   47MOL    C1710229   1.964   1.434   0.754  0.8731 -0.1672  0.4329
   47MOL    H1810230   1.796   1.502   0.637  2.5342  1.0613 -0.1856
   47MOL    H1910231   1.929   1.475   0.349 -1.2991  1.1809 -2.0348
   47MOL    H2010232   1.797   1.357   0.329  3.0050 -4.0645  2.5466
   47MOL    H2110233   1.756   1.506   0.409 -0.8392 -0.4263 -1.1310
   47MOL    H2210234   2.043   1.495   0.709 -1.6602  2.7475 -0.2557
   47MOL    H2310235   2.005   1.337   0.784  0.9616  0.0058  0.8711
   47MOL    C2410236   1.923   1.518   0.877 -0.2929  0.4072  0.5069
   47MOL    C2510237   1.879   1.656   0.842 -0.2386  0.1214 -0.7923
   47MOL    O2610238   1.936   1.722   0.754  0.0378 -0.4697  0.6943
   47MOL    C2710239   1.774   1.717   0.929 -0.2390 -0.2923  0.3583
   47MOL    C2810240   2.028   1.524   0.990 -0.1611  0.7393 -0.2048
   47MOL    H2910241   1.839   1.457   0.910  0.1845 -0.4747  0.1211
   47MOL    H3010242   1.755   1.810   0.876  2.4348  0.1823  0.1565
   47MOL    H3110243   1.682   1.659   0.933 -0.8189  0.6290  0.6528
   47MOL    H3210244   1.807   1.742   1.030 -1.3864 -0.2999  0.7430
   47MOL    H3310245   2.020   1.613   1.052  2.0160 -1.0870  2.7871
   47MOL    H3410246   2.121   1.532   0.934  0.2820 -1.3673  0.2218
   47MOL    C3510247   2.032   1.397   1.084  0.1036  0.1063 -0.0343
   47MOL    C3610248   1.956   1.398   1.214  0.0227 -0.3647  0.2205
   47MOL    O3710249   1.917   1.503   1.261  0.4716 -0.0029 -0.4484
   47MOL    C3810250   1.913   1.267   1.274 -0.2630  0.0008  0.5113
   47MOL    C3910251   2.181   1.355   1.111 -0.0119  0.1375 -0.4431
   47MOL    H4010252   1.977   1.317   1.035  0.1554  0.2736 -0.3748
   47MOL    H4110253   1.840   1.294   1.350 -1.0537  0.0528 -0.2596
   47MOL    H4210254   1.875   1.189   1.209 -1.2321  2.6451 -2.2230
   47MOL    H4310255   1.994   1.215   1.324  2.2591  0.5553 -2.7766
   47MOL    H4410256   2.191   1.313   1.211  0.5789 -2.2066 -1.4505
   47MOL    H4510257   2.255   1.434   1.114  0.7321 -0.6316  2.6172
   47MOL    C4610258   2.225   1.241   1.009  0.4629 -0.3909 -0.0695
   47MOL    C4710259   2.151   1.108   1.035  0.6129 -0.5687 -0.0761
   47MOL    O4810260   2.126   1.069   1.148  0.1214  0.6284  0.5469
   47MOL    C4910261   2.138   1.021   0.914  0.0254  0.3230 -0.1157
   47MOL    C5010262   2.382   1.221   0.990  0.7253  0.2705 -0.4928
   47MOL    H5110263   2.187   1.273   0.912 -1.3338 -0.0448  0.7367
   47MOL    H5210264   2.043   0.968   0.909  0.2013 -0.1626  1.6504
   47MOL    H5310265   2.131   1.086   0.826  2.2252 -0.6785 -1.0554
   47MOL    H5410266   2.203   0.934   0.902 -1.4656 -0.7457 -0.6854
   47MOL    H5510267   2.402   1.114   1.002 -1.3413  0.1097  1.9125
   47MOL    H5610268   2.418   1.262   1.084 -1.1550 -0.2762  0.4931
   47MOL    C5710269   2.451   1.285   0.872 -0.1464  0.1535 -1.1406
   47MOL    C5810270   2.419   1.436   0.866  0.7356  0.5524 -0.2088
   47MOL    O5910271   2.343   1.483   0.787 -0.5069  0.3207  0.1318
   47MOL    C6010272   2.503   1.533   0.952  0.1531  1.3080  0.0701
   47MOL    C6110273   2.411   1.217   0.738  0.5707  0.1083  0.2965
   47MOL    H6210274   2.559   1.278   0.886 -0.2157  0.4581 -0.4659
   47MOL    H6310275   2.543   1.612   0.888 -0.6688  2.4978  1.0037
   47MOL    H6410276   2.442   1.568   1.035  0.7072 -2.6246  2.2482
   47MOL    H6510277   2.574   1.468   1.004 -0.9629 -0.2679 -0.3405
   47MOL    H6610278   2.303   1.223   0.727  0.4915 -0.9204  0.4030
   47MOL    H6710279   2.425   1.109   0.752  0.3684 -0.2791 -2.3693
   47MOL    C6810280   2.479   1.273   0.610  0.0669 -0.0118  0.4767
   47MOL    C6910281   2.421   1.200   0.494  0.2180  0.1898 -0.3389
   47MOL    O7010282   2.437   1.086   0.464 -0.6536 -0.3577  0.5716
   47MOL    C7110283   2.330   1.291   0.408 -0.4129  0.2049  0.0843
   47MOL    C7210284   2.636   1.266   0.612  0.1207 -0.0804 -0.4854
   47MOL    H7310285   2.444   1.375   0.593 -0.2439 -0.3764 -1.1219
   47MOL    H7410286   2.381   1.375   0.360  2.5707 -1.5771  0.0111
   47MOL    H7510287   2.276   1.235   0.333  0.8011 -0.2716 -0.4525
   47MOL    H7610288   2.262   1.334   0.482 -0.4095  0.8693 -0.2970
   47MOL    H7710289   2.676   1.173   0.573  0.5201  0.1060 -0.5238
   47MOL    H7810290   2.668   1.249   0.715  0.0002  0.0255 -0.4304
   47MOL    C7910291   2.715   1.375   0.535  0.4119 -0.0587 -0.4312
   47MOL    C8010292   2.838   1.328   0.459  0.0938  0.7621  0.5788
   47MOL    O8110293   2.954   1.345   0.497  0.4048  0.1163 -0.1162
   47MOL    C8210294   2.802   1.265   0.332 -0.0947 -0.4174  0.1141
   47MOL    C8310295   2.729   1.487   0.636 -0.3387  0.4201 -0.0006
   47MOL    H8410296   2.646   1.413   0.460  0.2329 -0.0235 -0.2493
   47MOL    H8510297   2.712   1.207   0.350 -0.0854 -1.1588 -2.0724
   47MOL    H8610298   2.780   1.330   0.246  0.5295 -0.5800 -0.1718
   47MOL    H8710299   2.883   1.198   0.302  0.5425  0.9491 -1.3320
   47MOL    H8810300   2.783   1.458   0.726  1.5731 -0.9238 -1.5346
   47MOL    H8910301   2.630   1.514   0.672 -0.6590  1.1250 -1.3718
   47MOL    C9010302   2.818   1.609   0.605  0.3882  0.3354 -0.3493
   47MOL    C9110303   2.823   1.700   0.730 -0.1213 -0.1023  0.4939
   47MOL    O9210304   2.721   1.730   0.794 -0.2375  0.7705  0.4844
   47MOL    C9310305   2.951   1.757   0.764 -0.9486 -0.6573 -0.0368
   47MOL    C9410306   2.762   1.696   0.490 -0.5742 -0.4127 -0.4167
   47MOL    H9510307   2.919   1.577   0.580 -0.4283 -2.0380 -0.7109
   47MOL    H9610308   2.983   1.722   0.862  0.1874  0.0775 -0.1366
   47MOL    H9710309   3.036   1.738   0.698  0.5630  4.1929  0.3052
   47MOL    H9810310   2.935   1.865   0.774 -0.0210 -0.5845  0.6227
   47MOL    H9910311   2.703   1.777   0.534 -1.4495 -0.9456 -0.5846
   47MOL   H10010312   2.691   1.630   0.441  0.3380 -0.6871 -1.3800
   47MOL   C10110313   2.870   1.745   0.388 -0.3252  0.5093  0.3926
   47MOL   C10210314   2.801   1.840   0.288 -0.6094 -0.4343  0.1214
   47MOL   O10310315   2.707   1.792   0.219  0.7993  0.4624  0.4013
   47MOL   C10410316   2.860   1.980   0.269 -0.0217  0.2564 -0.2994
   47MOL   C10510317   2.952   1.639   0.318  0.4846 -1.0777 -0.0465
   47MOL   H10610318   2.946   1.798   0.445  1.1267  0.3071 -1.3151
   47MOL   H10710319   2.799   2.061   0.310 -0.7138 -0.6835  0.5595
   47MOL   H10810320   2.952   1.980   0.327  0.1092 -2.3788 -0.4512
   47MOL   H10910321   2.878   2.003   0.164 -3.0808 -0.4983 -1.0406
   47MOL   H11010322   2.869   1.584   0.271 -1.5238 -1.0052  3.2390
   47MOL   H11110323   2.998   1.560   0.377 -0.3982 -1.9877 -0.5306
   47MOL   C11210324   3.061   1.671   0.210 -0.3269 -0.8561 -0.0220
   47MOL   C11310325   2.998   1.674   0.069 -0.1208  0.5080 -0.3488
   47MOL   O11410326   2.956   1.573   0.011 -0.0655  0.0879  0.0279
   47MOL   C11510327   2.997   1.798   7.831  0.0636  0.3985  0.3273
   47MOL   C11610328   3.177   1.562   0.213  0.0972 -0.0742  0.0568
   47MOL   H11710329   3.090   1.774   0.229 -0.3984 -1.3321  2.8821
   47MOL   H11810330   2.970   1.781   7.726 -0.0199  1.5792  0.1501
   47MOL   H11910331   2.924   1.865   0.035 -2.5541 -2.3042  0.2395
   47MOL   H12010332   3.090   1.854   7.827 -1.2676  2.6285 -0.1394
   47MOL   H12110333   3.225   1.575   0.116 -0.9464  0.0441 -0.4538
   47MOL   H12210334   3.136   1.461   0.219 -1.3316  0.5796  1.8625
   47MOL   C12310335   3.281   1.580   0.331  0.4490  0.8381  1.3264
   47MOL   C12410336   3.354   1.713   0.317 -0.1741  0.0797  0.2514
   47MOL   O12510337   3.429   1.729   0.219  0.4104 -0.2698 -0.7473
   47MOL   C12610338   3.321   1.831   0.406 -0.1273 -0.6595  0.3317
   47MOL   C12710339   3.382   1.460   0.341 -0.0082  0.1157 -0.1820
   47MOL   H12810340   3.208   1.584   0.412  0.3508 -0.3738  1.2999
   47MOL   H12910341   3.297   1.923   0.353 -2.7573 -0.8564  1.1063
   47MOL   H13010342   3.238   1.827   0.476 -2.0133 -0.6196 -1.8394
   47MOL   H13110343   3.399   1.855   0.478 -0.5169  1.5022  0.0536
   47MOL   H13210344   3.437   1.449   0.247 -0.4130 -0.6112 -0.3406
   47MOL   H13310345   3.316   1.373   0.350  0.9708 -0.8506 -2.0321
   47MOL   C13410346   3.468   1.474   0.474  0.2529  0.1997  0.8683
   47MOL   C13510347   3.622   1.510   0.443 -0.0107  0.1952  0.2506
   47MOL   O13610348   3.681   1.408   0.407  0.2510  0.0640 -0.2060
   47MOL   C13710349   3.687   1.650   0.452 -0.3411 -0.4172 -0.1268
   47MOL   C13810350   3.454   1.340   0.559 -0.3726 -0.8868 -0.4891
   47MOL   H13910351   3.431   1.560   0.529 -1.6597 -0.4246  0.6020
   47MOL   H14010352   3.778   1.650   0.513  0.8734  0.5571 -1.9201
   47MOL   H14110353   3.707   1.677   0.349  0.2972  0.1151  0.1356
   47MOL   H14210354   3.618   1.725   0.489  1.7675  2.5340 -2.0369
   47MOL   H14310355   3.541   1.330   0.623  2.9294  0.2794 -4.5274
   47MOL   H14410356   3.467   1.254   0.493 -2.2346 -2.2153  0.8175
   47MOL   C14510357   3.321   1.327   0.637  0.3710 -0.8380 -0.1084
   47MOL   C14610358   3.324   1.425   0.752 -0.8163 -0.6208 -0.1223
   47MOL   O14710359   3.375   1.405   0.863 -0.3068  0.0072  0.0888
   47MOL   C14810360   3.268   1.558   0.726  0.1119 -0.1695  0.1755
   47MOL   C14910361   3.294   1.179   0.673  0.4660 -0.4111  0.1588
   47MOL   H15010362   3.237   1.355   0.573 -0.4717 -2.9180  0.0400
   47MOL   H15110363   3.204   1.571   0.639 -1.3373  0.1088  1.2643
   47MOL   H15210364   3.206   1.588   0.811  2.4671 -1.5999  2.4920
   47MOL   H15310365   3.352   1.626   0.712  1.1308 -1.2918  0.7059
   47MOL   H15410366   3.355   1.171   0.763  2.0544 -2.4517 -1.0525
   47MOL   H15510367   3.364   1.116   0.618 -1.4485 -0.6826 -2.0115
   47MOL   C15610368   3.143   1.133   0.687 -0.1881 -0.4179  1.5753
   47MOL   C15710369   3.070   1.183   0.808 -0.1982  0.0345 -0.3286
   47MOL   O15810370   2.960   1.237   0.802 -0.1487 -0.1307 -0.0748
   47MOL   C15910371   3.140   1.179   0.946  0.1630 -0.4010 -0.2500
   47MOL   C16010372   3.139   0.977   0.684  0.2699 -0.2593 -0.4083
   47MOL   H16110373   3.079   1.168   0.606  2.5560 -0.1347 -0.5307
   47MOL   H16210374   3.152   1.276   0.995 -1.0281  0.1370 -1.0100
   47MOL   H16310375   3.090   1.110   1.014 -1.0596  0.8823  0.1761
   47MOL   H16410376   3.243   1.146   0.936  0.2387 -0.2081 -0.1145
   47MOL   H16510377   3.200   0.938   0.766  0.8871  2.0822  0.3003
   47MOL   H16610378   3.190   0.944   0.594  0.0400 -0.4168 -0.4816
   47MOL   C16710379   3.002   0.906   0.692  0.1927 -0.2771 -0.3200
   47MOL   C16810380   3.041   0.759   0.711  0.0703 -0.0348 -0.1030
   47MOL   O16910381   3.036   0.675   0.624 -0.0603  0.1875 -0.3498
   47MOL   C17010382   3.084   0.721   0.856  0.3369  0.1127  0.0337
   47MOL   C17110383   2.912   0.920   0.563  0.1457  0.3760  0.9349
   47MOL   H17210384   2.965   0.931   0.791  2.2556  1.0070  0.1650
   47MOL   H17310385   3.170   0.777   0.891  0.3927  0.8118 -1.1923
   47MOL   H17410386   2.997   0.731   0.920 -0.2021 -3.2751 -0.0487
   47MOL   H17510387   3.121   0.619   0.839  1.5025  0.7057 -1.1327
   47MOL   H17610388   2.994   0.934   0.492  0.5754 -1.1364  1.1204
   47MOL   H17710389   2.865   1.018   0.566  0.8154  0.7691 -0.7415
   47MOL   C17810390   2.792   0.820   0.532  0.2492  0.7843 -0.1387
   47MOL   C17910391   2.739   0.853   0.394  0.5676 -0.3745  0.2949
   47MOL   O18010392   2.765   0.962   0.335 -0.6225 -0.3920 -0.0535
   47MOL   C18110393   2.649   0.753   0.334 -0.4756  0.3088  0.1483
   47MOL   C18210394   2.682   0.835   0.649  0.0349  0.3554  0.2967
   47MOL   H18310395   2.829   0.718   0.524 -0.2257  0.4705  1.5838
   47MOL   H18410396   2.658   0.759   0.225 -0.7350 -0.2801  0.0936
   47MOL   H18510397   2.674   0.655   0.375  1.9293  0.5125 -0.7482
   47MOL   H18610398   2.543   0.768   0.355 -0.5800 -0.0863 -0.0893
   47MOL   H18710399   2.632   0.931   0.638 -0.8359  0.1701  2.4113
   47MOL   H18810400   2.730   0.837   0.746 -2.2033  2.8950  1.4047
   47MOL   C18910401   2.583   0.723   0.666  0.1535 -0.3389  1.0357
   47MOL   C19010402   2.468   0.768   0.751  0.0589  0.2879 -0.1267
   47MOL   O19110403   2.479   0.779   0.880 -1.2032 -0.1044 -0.0029
   47MOL   C19210404   2.333   0.781   0.678  0.6329 -0.4274  0.7109
   47MOL   C19310405   2.644   0.589   0.710 -0.5394  0.2415 -0.7952
   47MOL   H19410406   2.537   0.713   0.568  1.0272 -1.3211  0.7148
   47MOL   H19510407   2.326   0.709   0.597  0.3513  1.3858 -0.8976
   47MOL   H19610408   2.241   0.772   0.736 -0.2248 -0.5680 -0.6678
   47MOL   H19710409   2.337   0.882   0.638 -1.2771 -0.0529  1.4343
   47MOL   H19810410   2.676   0.603   0.813 -1.0421  3.1293 -0.9799
   47MOL   H19910411   2.743   0.586   0.664 -0.5440 -0.1443 -0.7777
   47MOL   C20010412   2.564   0.462   0.675  0.1182 -0.0870  1.2041
   47MOL   C20110413   2.598   0.352   0.778  0.4332  0.4419  0.1150
   47MOL   O20210414   2.700   0.288   0.771 -0.4300 -0.0091 -0.8282
   47MOL   C20310415   2.502   0.348   0.890  0.1334  0.3120  0.2053
   47MOL   C20410416   2.606   0.410   0.534 -0.0327 -0.4727 -0.2263
   47MOL   H20510417   2.458   0.484   0.669 -0.2371 -2.2977 -1.2809
   47MOL   H20610418   2.454   0.253   0.913 -0.4461  1.0822  2.2524
   47MOL   H20710419   2.557   0.384   0.976  1.6206 -1.2583 -0.0650
   47MOL   H20810420   2.422   0.420   0.870  1.7231  1.8126 -0.8984
   47MOL   H20910421   2.714   0.395   0.532  0.3834  1.5980  2.6291
   47MOL   H21010422   2.586   0.487   0.460  1.3466 -0.4169 -0.5526
   47MOL   C21110423   2.520   0.286   0.488 -0.0159 -0.1899  0.6153
   47MOL   C21210424   2.571   0.238   0.357 -0.3541  0.5014  0.3655
   47MOL   O21310425   2.661   0.292   0.295 -0.0300 -0.1993 -0.0712
   47MOL   C21410426   2.497   0.115   0.299  0.2808 -0.7089  0.0359
   47MOL   C21510427   2.373   0.329   0.480 -0.1606  0.0913 -0.5539
   47MOL   H21610428   2.530   0.204   0.560 -0.4147 -0.9783 -0.2104
   47MOL   H21710429   2.450   0.151   0.207 -0.6586 -0.1051  0.7486
   47MOL   H21810430   2.575   0.040   0.287  0.0161 -1.3963  2.4904
   47MOL   H21910431   2.421   0.085   0.370 -0.2406 -0.6565 -0.5007
   47MOL   H22010432   2.356   0.424   0.429  2.1718  1.3490  0.9538
   47MOL   H22110433   2.323   0.328   0.577  0.0035  2.0725 -0.4301
   47MOL   H22210434   2.309   0.266   0.417 -0.9727 -0.5412  0.8677
   48MOL     C110435   5.565   7.226   4.599  0.4776  0.4569  0.2564
   48MOL     C210436   5.579   7.074   4.594  0.6771 -0.1266 -0.5553
   48MOL     O310437   5.521   6.996   4.671  0.0927  0.2625 -0.5996
   48MOL     C410438   5.666   7.018   4.484  0.0098  0.1970  0.2008
   48MOL     C510439   5.463   7.270   4.706  0.5244 -0.4325 -0.3932
   48MOL     H610440   5.663   7.260   4.631  0.4008 -0.8230  1.9865
   48MOL     H710441   5.630   6.919   4.460 -0.4582  0.5864 -0.7138
   48MOL     H810442   5.656   7.084   4.397 -0.5318  1.0237  0.8772
   48MOL     H910443   5.771   7.011   4.515 -0.4433 -2.5935  1.1690
   48MOL    H1010444   5.501   7.359   4.755 -1.3091 -1.5132  3.1788
   48MOL    H1110445   5.459   7.206   4.794 -2.0851 -1.6505 -1.3073
   48MOL    H1210446   5.533   7.261   4.501  0.2623 -1.0899 -0.2506
   48MOL    C1310447   5.318   7.295   4.659  0.2609 -0.1933 -0.5392
   48MOL    C1410448   5.227   7.178   4.660 -0.2188  0.0101  0.3059
   48MOL    O1510449   5.156   7.141   4.565 -0.4669  0.4517  0.5496
   48MOL    C1610450   5.198   7.106   4.788  0.5812  0.6556  0.5684
   48MOL    C1710451   5.295   7.377   4.534  0.0341 -0.3084  0.2214
   48MOL    H1810452   5.279   7.346   4.747 -1.5591 -0.6623 -1.0633
   48MOL    H1910453   5.223   7.003   4.759 -1.7065  0.3859 -0.5241
   48MOL    H2010454   5.270   7.133   4.865 -0.7054  0.9885  1.6756
   48MOL    H2110455   5.095   7.119   4.821  0.5706  1.1631  0.3348
   48MOL    H2210456   5.189   7.380   4.507  0.4611 -2.5799 -1.9512
   48MOL    H2310457   5.339   7.320   4.453  1.1977  1.8106 -0.6660
   48MOL    C2410458   5.359   7.519   4.532  0.2346  0.1014 -0.2276
   48MOL    C2510459   5.240   7.608   4.540 -0.0024  0.1830  0.3024
   48MOL    O2610460   5.179   7.656   4.441 -0.1186 -0.0200 -0.0135
   48MOL    C2710461   5.186   7.640   4.675 -0.1635 -0.0541  0.1122
   48MOL    C2810462   5.439   7.542   4.409  0.2465 -0.3995  0.2314
   48MOL    H2910463   5.421   7.522   4.622  0.0747 -1.5079 -0.0441
   48MOL    H3010464   5.086   7.597   4.684  0.4143 -0.8523  2.8281
   48MOL    H3110465   5.243   7.600   4.758 -0.5180  1.2350  0.9857
   48MOL    H3210466   5.176   7.749   4.679  3.6276  0.3605 -0.1760
   48MOL    H3310467   5.369   7.526   4.327  0.3111  1.1793 -0.1521
   48MOL    H3410468   5.530   7.482   4.404 -0.3725 -1.5076  1.8998
   48MOL    C3510469   5.484   7.698   4.391  0.1270  0.3572 -0.7914
   48MOL    C3610470   5.508   7.726   4.238 -0.1955 -0.2863 -0.3323
   48MOL    O3710471   5.621   7.730   4.185  0.4801  0.3692 -0.2154
   48MOL    C3810472   5.383   7.758   4.156 -0.6077 -0.1318 -0.1428
   48MOL    C3910473   5.621   7.722   4.469  0.8193  0.0831  0.1557
   48MOL    H4010474   5.403   7.763   4.424  0.9058  0.9519 -0.0515
   48MOL    H4110475   5.384   0.024   4.145  2.0421 -0.0563  0.3698
   48MOL    H4210476   5.382   7.718   4.055  1.0153  0.6599 -0.4920
   48MOL    H4310477   5.298   7.718   4.212 -0.8967  1.0318  0.2504
   48MOL    H4410478   5.686   7.796   4.422  2.4113 -0.8100  0.8940
   48MOL    H4510479   5.679   7.630   4.471  1.1338  0.2993  1.2438
   48MOL    C4610480   5.588   7.766   4.613 -0.1879  0.0861  0.2295
   48MOL    C4710481   5.534   0.068   4.613  0.5380  0.5840 -0.1939
   48MOL    O4810482   5.612   0.157   4.589 -0.4807 -0.2870 -0.2001
   48MOL    C4910483   5.399   0.086   4.675 -0.8380  0.1081  0.0360
   48MOL    C5010484   5.714   7.762   4.711 -0.1413 -0.5166 -0.3964
   48MOL    H5110485   5.509   7.696   4.642 -1.0973  1.5687  1.3900
   48MOL    H5210486   5.403   0.192   4.702 -0.3359  0.9916 -3.2318
   48MOL    H5310487   5.321   0.062   4.602 -1.4452 -0.9090  1.0105
   48MOL    H5410488   5.404   0.023   4.764 -1.8448 -1.3933 -0.9452
   48MOL    H5510489   5.693   7.840   4.784 -1.1770  0.1075 -1.3338
   48MOL    H5610490   5.803   7.798   4.661  0.7255 -2.3970 -0.2454
   48MOL    C5710491   5.728   7.629   4.788  0.4196  0.2328  0.7933
   48MOL    C5810492   5.624   7.620   4.903 -0.1723 -1.7809 -0.7227
   48MOL    O5910493   5.508   7.599   4.879  0.1805  0.0518 -0.0339
   48MOL    C6010494   5.661   7.644   5.049  0.0215  0.8476 -0.5133
   48MOL    C6110495   5.878   7.609   4.831  0.8859  0.8457 -0.1607
   48MOL    H6210496   5.702   7.543   4.725  2.5530  1.5404 -1.9717
   48MOL    H6310497   5.622   7.555   5.097  3.1090  0.3389  1.1660
   48MOL    H6410498   5.767   7.652   5.077 -0.5003  2.1145  1.2096
   48MOL    H6510499   5.611   7.733   5.088 -0.2320 -0.6643  2.7305
   48MOL    H6610500   5.890   7.516   4.886 -0.2110  1.3298  0.9380
   48MOL    H6710501   5.895   7.691   4.901 -0.7931  1.0531  0.0356
   48MOL    C6810502   5.991   7.634   4.730 -0.1174  0.9087 -0.5283
   48MOL    C6910503   5.958   7.582   4.588 -0.3813 -0.2625  0.9239
   48MOL    O7010504   5.904   7.480   4.578  0.1611  0.6875  0.5606
   48MOL    C7110505   6.027   7.647   4.469 -0.9175 -0.5965  0.2859
   48MOL    C7210506   6.125   7.572   4.777  0.3161  0.2229 -0.1851
   48MOL    H7310507   6.004   7.741   4.715 -0.7787  1.0487 -0.0796
   48MOL    H7410508   6.125   7.603   4.446 -0.8146  0.3126 -1.0375
   48MOL    H7510509   5.964   7.630   4.382 -1.2505 -0.2977  0.4709
   48MOL    H7610510   6.045   7.754   4.482 -0.7382 -0.8103  1.9839
   48MOL    H7710511   6.191   7.563   4.691  0.7121 -0.3726  0.1765
   48MOL    H7810512   6.109   7.470   4.812 -0.8191  0.1193 -0.9426
   48MOL    C7910513   6.203   7.648   4.881 -0.2818 -0.1350  0.2609
   48MOL    C8010514   6.301   7.745   4.818  0.1413 -0.5992 -0.8882
   48MOL    O8110515   6.291   0.022   4.838 -0.5613 -0.2771 -0.5357
   48MOL    C8210516   6.408   7.696   4.724 -1.6100 -0.2063 -0.2013
   48MOL    C8310517   6.270   7.554   4.989  0.1902 -0.2790  0.1110
   48MOL    H8410518   6.139   7.712   4.942  1.0285  0.0497  1.4403
   48MOL    H8510519   6.442   7.594   4.741 -0.0424  0.2450 -0.6429
   48MOL    H8610520   6.375   7.703   4.621  1.6029 -1.1339 -1.3419
   48MOL    H8710521   6.500   7.754   4.720 -0.6092 -1.7883 -0.5598
   48MOL    H8810522   6.377   7.542   4.972  0.6551  1.8554  1.2859
   48MOL    H8910523   6.243   7.449   4.996 -0.7383 -0.0426  0.0417
   48MOL    C9010524   6.269   7.599   5.140 -0.0400  0.5373 -0.1991
   48MOL    C9110525   6.122   7.585   5.189  0.5309  0.0438  0.0670
   48MOL    O9210526   6.037   7.669   5.172  0.1428  0.2697 -0.4202
   48MOL    C9310527   6.071   7.457   5.252 -0.1112  0.1698  0.1491
   48MOL    C9410528   6.326   7.744   5.164  0.4495 -0.0260  0.5255
   48MOL    H9510529   6.328   7.530   5.199  0.4524  2.1192  1.1788
   48MOL    H9610530   6.150   7.403   5.304 -1.5659 -3.9297 -1.7001
   48MOL    H9710531   5.987   7.481   5.316 -0.4779  1.4681 -0.8022
   48MOL    H9810532   6.037   7.375   5.188  0.8157 -0.0076 -0.1315
   48MOL    H9910533   6.285   7.779   5.258  1.2111 -0.8628  1.1779
   48MOL   H10010534   6.276   7.815   5.099  1.3746  1.0189  0.9453
   48MOL   C10110535   6.474   7.760   5.158 -0.0113  0.3181 -0.4763
   48MOL   C10210536   6.550   7.653   5.239 -0.2817  0.5548 -0.2758
   48MOL   O10310537   6.515   7.635   5.353 -0.3056  0.3088  0.2150
   48MOL   C10410538   6.670   7.575   5.189 -0.3539  0.6561 -0.1690
   48MOL   C10510539   6.517   0.066   5.203  0.7157 -0.0081  0.3008
   48MOL   H10610540   6.504   7.743   5.055 -0.2610 -1.6452 -0.2530
   48MOL   H10710541   6.766   7.625   5.195  0.3485 -0.7759  0.9758
   48MOL   H10810542   6.690   7.480   5.238  2.1719  0.2940 -1.8414
   48MOL   H10910543   6.642   7.543   5.088  0.3061 -3.0978  0.7681
   48MOL   H11010544   6.614   0.051   5.250  1.2453  1.6540 -0.2331
   48MOL   H11110545   6.450   0.099   5.283  0.4877 -0.0048  0.1101
   48MOL   C11210546   6.518   0.180   5.093 -0.4221 -0.0730 -0.2266
   48MOL   C11310547   6.618   0.140   4.983  0.3639 -0.0170  0.1093
   48MOL   O11410548   6.714   0.065   5.003  0.4399  0.0985 -0.2366
   48MOL   C11510549   6.587   0.195   4.845  0.3010  0.1909  0.4022
   48MOL   C11610550   6.539   0.328   5.144  0.0142 -0.0308  0.5915
   48MOL   H11710551   6.420   0.189   5.046 -1.5808 -0.1962  2.1021
   48MOL   H11810552   6.484   0.229   4.846  1.0540  2.5085  1.9169
   48MOL   H11910553   6.637   0.288   4.820 -1.6793  1.1825  0.0162
   48MOL   H12010554   6.600   0.113   4.774  0.2434  0.7146 -0.2183
   48MOL   H12110555   6.645   0.356   5.140 -0.4839  1.7188 -1.0147
   48MOL   H12210556   6.512   0.341   5.249 -0.0906 -0.6953  0.6467
   48MOL   C12310557   6.475   0.443   5.053  0.1474  0.3822  0.0036
   48MOL   C12410558   6.555   0.575   5.059 -0.1508 -0.1807 -0.6809
   48MOL   O12510559   6.662   0.588   5.128 -0.1983 -0.1856 -0.0205
   48MOL   C12610560   6.512   0.683   4.961  0.1560 -0.1748  0.3586
   48MOL   C12710561   6.328   0.465   5.101 -0.5647 -0.7026 -0.2644
   48MOL   H12810562   6.477   0.411   4.949  1.2828 -0.4707  0.2845
   48MOL   H12910563   6.572   0.774   4.961  1.6396 -1.0742 -2.5968
   48MOL   H13010564   6.525   0.653   4.857  2.7306 -1.3277  0.9615
   48MOL   H13110565   6.412   0.722   4.977 -0.1250 -1.7487  2.7833
   48MOL   H13210566   6.327   0.558   5.158  0.3914  0.2699 -1.7752
   48MOL   H13310567   6.296   0.397   5.180  0.3579  2.7167  3.2299
   48MOL   C13410568   6.224   0.471   4.985  0.1608 -0.8341 -0.3487
   48MOL   C13510569   6.094   0.545   5.023  0.1723  0.1985  0.1810
   48MOL   O13610570   5.990   0.487   5.047  0.0142 -0.0601 -0.2330
   48MOL   C13710571   6.091   0.694   5.007  0.3846  0.0783  0.1837
   48MOL   C13810572   6.198   0.332   4.924 -0.0787 -0.8179  0.0985
   48MOL   H13910573   6.263   0.541   4.911 -1.3985  0.4142 -0.0207
   48MOL   H14010574   5.996   0.734   4.974 -0.1971 -1.1097  0.4083
   48MOL   H14110575   6.127   0.742   5.098 -2.2510 -1.0770  1.8870
   48MOL   H14210576   6.165   0.718   4.930  0.4173  1.1044  0.5265
   48MOL   H14310577   6.159   0.261   4.997  0.3495 -3.5573 -2.2509
   48MOL   H14410578   6.292   0.291   4.890 -0.8437 -2.7805  0.3016
   48MOL   C14510579   6.105   0.338   4.801  0.2085 -0.0333 -0.2613
   48MOL   C14610580   6.024   0.207   4.790  0.1465 -0.4147 -0.1800
   48MOL   O14710581   6.055   0.127   4.705  0.4299  0.0513 -0.2325
   48MOL   C14810582   5.915   0.177   4.891 -0.4070 -0.4980 -0.8298
   48MOL   C14910583   6.184   0.369   4.670  0.1738 -0.1175 -0.0686
   48MOL   H15010584   6.025   0.410   4.813  0.1360 -0.4337  1.7111
   48MOL   H15110585   5.822   0.203   4.842 -1.3694 -1.9662  0.1694
   48MOL   H15210586   5.896   0.073   4.918 -0.1296 -0.3979 -0.2278
   48MOL   H15310587   5.933   0.242   4.977 -1.1541  0.7573 -1.6030
   48MOL   H15410588   6.257   0.290   4.652  1.1807  0.8331 -0.1973
   48MOL   H15510589   6.252   0.453   4.683 -0.7124  0.6546 -0.3611
   48MOL   C15610590   6.094   0.405   4.546  0.5549  0.7451  0.0322
   48MOL   C15710591   6.158   0.350   4.412 -0.2355 -0.7079  0.7039
   48MOL   O15810592   6.200   0.429   4.324 -0.3078  0.4753  0.2457
   48MOL   C15910593   6.172   0.199   4.403 -0.7064  0.3387  0.6426
   48MOL   C16010594   6.065   0.561   4.553 -0.4531  1.0761  0.5883
   48MOL   H16110595   6.000   0.352   4.558  1.2098 -0.5345 -0.4525
   48MOL   H16210596   6.097   0.132   4.360  0.3877 -1.4626  1.4607
   48MOL   H16310597   6.262   0.174   4.348 -0.2060  1.6137  0.8772
   48MOL   H16410598   6.173   0.156   4.504  1.7996 -0.2099  0.4113
   48MOL   H16510599   6.161   0.608   4.537 -0.9087  2.2008  1.0797
   48MOL   H16610600   6.045   0.588   4.657 -4.5520 -0.9574  0.4493
   48MOL   C16710601   5.938   0.606   4.475  0.8080 -0.3852 -0.2590
   48MOL   C16810602   5.944   0.758   4.453 -0.0602  0.4617  0.3372
   48MOL   O16910603   5.869   0.840   4.508 -0.0660 -0.0037  0.1252
   48MOL   C17010604   6.035   0.808   4.343 -0.9715 -0.2807 -0.2675
   48MOL   C17110605   5.802   0.553   4.533 -0.0347  0.8288 -0.6405
   48MOL   H17210606   5.950   0.567   4.374  1.7698 -0.9710  0.0821
   48MOL   H17310607   6.139   0.813   4.374 -1.6163 -0.0519  1.9601
   48MOL   H17410608   6.033   0.735   4.262  0.0250 -1.0770  0.4123
   48MOL   H17510609   6.013   0.906   4.300 -1.3387 -0.5771 -0.7701
   48MOL   H17610610   5.785   0.598   4.631  1.4044  0.5767 -0.2668
   48MOL   H17710611   5.807   0.447   4.558 -1.4304  0.7400 -0.6747
   48MOL   C17810612   5.685   0.603   4.443 -0.2352  0.3873  0.4289
   48MOL   C17910613   5.555   0.596   4.523 -0.4970 -0.6175  0.0864
   48MOL   O18010614   5.458   0.666   4.507 -0.1599 -0.1150 -0.8876
   48MOL   C18110615   5.537   0.482   4.625 -0.2183  0.0360 -0.1716
   48MOL   C18210616   5.674   0.545   4.300  0.4120 -0.6146  0.2518
   48MOL   H18310617   5.703   0.710   4.428 -0.2070  0.1104 -1.6827
   48MOL   H18410618   5.549   0.529   4.723  0.7718 -0.9756  0.2042
   48MOL   H18510619   5.436   0.442   4.620 -0.9813  1.6257  1.8529
   48MOL   H18610620   5.611   0.408   4.593  2.3637  3.0338 -1.3974
   48MOL   H18710621   5.764   0.580   4.250 -0.0107  2.0707  1.2816
   48MOL   H18810622   5.585   0.586   4.252 -0.2119 -2.4893 -0.2352
   48MOL   C18910623   5.662   0.388   4.285 -0.4295  0.5096 -0.1738
   48MOL   C19010624   5.804   0.323   4.271 -0.8610 -0.9020 -0.3946
   48MOL   O19110625   5.889   0.361   4.196  0.1670  0.5412  0.2221
   48MOL   C19210626   5.824   0.197   4.349 -0.4745  0.0502 -0.8973
   48MOL   C19310627   5.578   0.361   4.159  0.1758 -0.9247  0.2260
   48MOL   H19410628   5.621   0.343   4.375  1.4982  1.3836  1.1602
   48MOL   H19510629   5.726   0.158   4.376  0.8686 -1.4888  2.0562
   48MOL   H19610630   5.885   0.116   4.309  1.6846  1.5416 -0.7078
   48MOL   H19710631   5.873   0.220   4.444 -1.1762  2.8872 -1.2004
   48MOL   H19810632   5.606   0.264   4.117  2.5067  0.2345 -0.9838
   48MOL   H19910633   5.619   0.420   4.077 -1.0537  0.3153  0.4905
   48MOL   C20010634   5.425   0.375   4.168 -0.4148  0.5637 -0.1585
   48MOL   C20110635   5.370   0.314   4.297 -0.1252  0.7867  0.5750
   48MOL   O20210636   5.412   0.203   4.338 -0.0855  0.1942  0.8258
   48MOL   C20310637   5.264   0.390   4.370 -0.1774  0.0358 -0.6634
   48MOL   C20410638   5.351   0.323   4.037 -0.0992 -0.2399 -0.2776
   48MOL   H20510639   5.402   0.482   4.164  1.0412  0.8593 -1.1066
   48MOL   H20610640   5.289   0.497   4.370  2.1487 -0.4151 -4.3542
   48MOL   H20710641   5.167   0.361   4.331 -0.1331  1.1485 -1.6353
   48MOL   H20810642   5.268   0.345   4.469 -2.9406  2.3827  0.5923
   48MOL   H20910643   5.397   0.228   4.011 -0.7948 -1.2322  1.9934
   48MOL   H21010644   5.370   0.389   3.952 -0.4448 -0.2459 -0.3604
   48MOL   C21110645   5.192   0.309   4.034  0.1073  0.0302 -0.4478
   48MOL   C21210646   5.131   0.226   3.917  0.5305 -0.1028 -0.1568
   48MOL   O21310647   5.090   0.289   3.816 -0.1216  0.4608 -0.5593
   48MOL   C21410648   5.138   0.073   3.926 -0.2148  0.2385 -0.3797
   48MOL   C21510649   5.145   0.453   4.041 -0.4332 -0.1690 -0.4373
   48MOL   H21610650   5.171   0.247   4.121 -1.2109 -0.6196 -1.2066
   48MOL   H21710651   5.110   0.029   3.831 -0.0944  1.7089 -1.1112
   48MOL   H21810652   5.239   0.053   3.962 -0.6542  0.5828  1.0986
   48MOL   H21910653   5.073   0.032   4.003  1.7374 -1.1134  0.6070
   48MOL   H22010654   5.194   0.512   3.963  3.3276 -0.9439  1.2251
   48MOL   H22110655   5.172   0.505   4.133 -0.7157 -0.3982 -0.2255
   48MOL   H22210656   5.038   0.461   4.027 -0.5315 -0.6886 -0.0169
   49MOL     C110657   1.207   4.597   1.212 -0.1360  0.5747  0.1541
   49MOL     C210658   1.144   4.647   1.338  0.4388  0.1300 -0.4834
   49MOL     O310659   1.136   4.768   1.358 -0.1976 -0.2445 -0.5314
   49MOL     C410660   1.131   4.544   1.450  0.2325  1.0452  0.1305
   49MOL     C510661   1.360   4.617   1.194 -1.1657  0.1845  0.1198
   49MOL     H610662   1.197   4.488   1.206  0.5013  0.5814 -1.3081
   49MOL     H710663   1.234   4.537   1.484  0.1357 -0.1375  0.2154
   49MOL     H810664   1.063   4.581   1.527  1.8484  0.7527  1.7070
   49MOL     H910665   1.096   4.449   1.410 -1.4207  1.1490  1.2515
   49MOL    H1010666   1.393   4.573   1.100 -1.1439 -1.1650  0.7447
   49MOL    H1110667   1.406   4.556   1.271  0.6383 -1.0027 -1.8397
   49MOL    H1210668   1.157   4.633   1.122  3.3546  3.0243 -0.9059
   49MOL    C1310669   1.407   4.767   1.197 -0.6907  0.3414  0.3248
   49MOL    C1410670   1.348   4.852   1.082 -0.0331  0.2981  0.5930
   49MOL    O1510671   1.390   4.828   0.967 -0.0442 -0.2971 -0.0514
   49MOL    C1610672   1.244   4.952   1.120 -0.6604  0.4540  0.1554
   49MOL    C1710673   1.563   4.769   1.195  0.3648  0.1844  0.4787
   49MOL    H1810674   1.370   4.807   1.291 -1.2314  0.6625 -0.0286
   49MOL    H1910675   1.303   5.042   1.106  0.4149 -0.2029  0.3491
   49MOL    H2010676   1.163   4.947   1.048 -1.0715  2.8532  0.4316
   49MOL    H2110677   1.214   4.939   1.224  0.5546 -0.7674  0.3807
   49MOL    H2210678   1.589   4.756   1.090  1.1234  0.5766  0.6142
   49MOL    H2310679   1.601   4.671   1.226  0.2679  0.2400  0.7724
   49MOL    C2410680   1.641   4.878   1.275  0.3056 -0.4172 -0.0168
   49MOL    C2510681   1.613   4.872   1.425 -0.0320 -0.5229 -0.6348
   49MOL    O2610682   1.534   4.947   1.478  0.7601 -0.0153  0.0677
   49MOL    C2710683   1.686   4.772   1.506  0.0659  0.9224 -0.1023
   49MOL    C2810684   1.630   5.023   1.218  0.6357 -0.0879 -0.3081
   49MOL    H2910685   1.746   4.851   1.270  0.5340  0.2159  1.1028
   49MOL    H3010686   1.791   4.776   1.477 -0.0920 -0.1137 -0.8480
   49MOL    H3110687   1.678   4.800   1.611 -3.3341 -1.2848  0.3034
   49MOL    H3210688   1.650   4.669   1.497 -0.9585  1.2622  0.0809
   49MOL    H3310689   1.659   5.099   1.290 -1.3552  0.7746 -0.3808
   49MOL    H3410690   1.523   5.046   1.219  0.3674 -1.3279 -0.2030
   49MOL    C3510691   1.692   5.046   1.081  0.1612 -0.2373 -0.0505
   49MOL    C3610692   1.845   5.024   1.082 -0.2349  0.1674 -0.3176
   49MOL    O3710693   1.927   5.111   1.115  0.2140  0.4396 -0.3839
   49MOL    C3810694   1.893   4.887   1.028 -0.1417  0.4141 -0.5760
   49MOL    C3910695   1.652   5.185   1.018 -0.0431 -0.8257  0.1402
   49MOL    H4010696   1.652   4.968   1.016  1.6075 -0.7890 -0.2914
   49MOL    H4110697   1.810   4.840   0.975 -0.2205  0.1090 -0.1867
   49MOL    H4210698   1.980   4.893   0.961  0.5522  0.3467  0.3100
   49MOL    H4310699   1.926   4.820   1.108  1.7449 -0.6807 -2.2093
   49MOL    H4410700   1.716   5.256   1.071 -0.4997  0.0351 -0.4514
   49MOL    H4510701   1.551   5.219   1.038  0.3900  1.0219 -0.6817
   49MOL    C4610702   1.674   5.199   0.861 -0.2633 -0.0506 -0.0797
   49MOL    C4710703   1.680   5.343   0.811  0.4825 -0.1543 -0.4962
   49MOL    O4810704   1.705   5.362   0.695 -0.5865  0.3973  0.0727
   49MOL    C4910705   1.631   5.459   0.901  0.3277 -0.1292 -0.0141
   49MOL    C5010706   1.572   5.125   0.776  0.0862 -0.5350  0.8169
   49MOL    H5110707   1.768   5.157   0.826  0.1963 -0.7106  1.8728
   49MOL    H5210708   1.700   5.465   0.985 -1.9007 -0.5181  1.8990
   49MOL    H5310709   1.628   5.551   0.843 -1.2366 -0.1869 -0.0511
   49MOL    H5410710   1.528   5.442   0.933  0.0857  1.6931  0.2304
   49MOL    H5510711   1.504   5.197   0.731 -1.2865 -0.6112  2.7118
   49MOL    H5610712   1.510   5.062   0.840  1.3585 -0.3986  2.2096
   49MOL    C5710713   1.633   5.036   0.662 -0.2545 -0.7134 -0.0580
   49MOL    C5810714   1.554   5.018   0.535 -0.3432 -0.2713 -0.2544
   49MOL    O5910715   1.597   5.034   0.417 -0.2237 -0.2644  0.1176
   49MOL    C6010716   1.410   4.965   0.548 -0.1672  0.2700  0.5490
   49MOL    C6110717   1.708   4.911   0.718  0.2179  0.0053  0.2869
   49MOL    H6210718   1.709   5.099   0.616 -0.8206  0.9073  1.1785
   49MOL    H6310719   1.424   4.857   0.552  1.9328  0.4614 -0.8663
   49MOL    H6410720   1.355   4.990   0.639 -0.5853 -0.3635  0.4770
   49MOL    H6510721   1.357   4.982   0.454 -0.7496 -1.5409  0.5238
   49MOL    H6610722   1.639   4.859   0.784  0.6070  0.3367  0.9685
   49MOL    H6710723   1.788   4.940   0.787  0.5294  1.4692 -0.6747
   49MOL    C6810724   1.773   4.810   0.618 -0.3211  0.2051 -0.3856
   49MOL    C6910725   1.813   4.672   0.689 -0.3260  0.5179  0.4395
   49MOL    O7010726   1.803   4.659   0.809  0.4544  0.7215 -0.0264
   49MOL    C7110727   1.868   4.553   0.610  0.4295 -0.0024  0.2842
   49MOL    C7210728   1.898   4.863   0.536  0.5236 -0.2616  0.0375
   49MOL    H7310729   1.694   4.779   0.551  0.0668 -0.0497 -0.7276
   49MOL    H7410730   1.791   4.477   0.620  0.6163  0.0169  1.9844
   49MOL    H7510731   1.871   4.583   0.505  0.1169  1.0303  0.5667
   49MOL    H7610732   1.966   4.520   0.645  1.3796  0.7661 -1.5475
   49MOL    H7710733   1.866   4.953   0.483  0.7983  0.8078  1.6616
   49MOL    H7810734   1.914   4.797   0.451 -2.1341 -1.1074  0.1593
   49MOL    C7910735   2.040   4.894   0.611  0.1309  0.7748  0.2675
   49MOL    C8010736   2.039   5.030   0.686  0.6789  0.2370  0.1272
   49MOL    O8110737   2.073   5.033   0.808  0.1535 -0.5409  0.1574
   49MOL    C8210738   2.008   5.160   0.608  0.5298  0.5904 -0.2494
   49MOL    C8310739   2.153   4.903   0.506 -0.2774  0.5305 -0.0344
   49MOL    H8410740   2.059   4.815   0.684  1.3427  0.5714 -0.2503
   49MOL    H8510741   1.907   5.199   0.627  0.3443  0.9282 -1.8923
   49MOL    H8610742   2.074   5.240   0.640  0.2013  0.3074  1.1714
   49MOL    H8710743   2.010   5.143   0.501 -0.0294  1.4429 -0.4017
   49MOL    H8810744   2.122   4.978   0.434 -1.3642  1.4777  1.3754
   49MOL    H8910745   2.158   4.808   0.452 -1.2733  0.0402  0.7098
   49MOL    C9010746   2.301   4.936   0.552  0.1918  0.3586  0.2840
   49MOL    C9110747   2.383   4.974   0.432  0.2296 -0.0863  0.5719
   49MOL    O9210748   2.336   4.985   0.318 -0.1163  0.1854 -0.2099
   49MOL    C9310749   2.534   4.994   0.434  0.3911  0.2272  0.2206
   49MOL    C9410750   2.357   4.822   0.643 -0.2096  0.9577 -0.9747
   49MOL    H9510751   2.288   5.026   0.612  0.9689  0.1120  0.8233
   49MOL    H9610752   2.581   5.090   0.456  1.2498 -0.3463  0.8903
   49MOL    H9710753   2.592   4.928   0.498 -0.3535 -1.9873 -1.3184
   49MOL    H9810754   2.579   4.975   0.337  2.0284  0.3361  0.9445
   49MOL    H9910755   2.444   4.777   0.596  0.3025  0.6414  0.2626
   49MOL   H10010756   2.272   4.753   0.649  1.3625 -0.9599 -0.2815
   49MOL   C10110757   2.401   4.859   0.790  0.5222 -0.4541 -0.4433
   49MOL   C10210758   2.538   4.921   0.806 -0.4505  0.1960  0.2649
   49MOL   O10310759   2.640   4.858   0.791  0.3514 -0.5154  0.5575
   49MOL   C10410760   2.542   5.067   0.853  0.1322 -1.4675 -0.1795
   49MOL   C10510761   2.375   4.748   0.890  0.0781  0.0065  0.0096
   49MOL   H10610762   2.334   4.933   0.834  0.5049  0.8637 -2.6259
   49MOL   H10710763   2.637   5.086   0.904  0.0652 -1.8201  0.0797
   49MOL   H10810764   2.547   5.122   0.759  1.8520 -1.5655 -0.1710
   49MOL   H10910765   2.460   5.094   0.919 -1.0974 -0.2977 -2.1537
   49MOL   H11010766   2.431   4.656   0.873  1.2861  0.7054  0.1541
   49MOL   H11110767   2.270   4.719   0.886 -0.0709  0.4928  0.3111
   49MOL   C11210768   2.397   4.795   1.041  0.1995  0.1733  0.5347
   49MOL   C11310769   2.462   4.670   1.116 -0.3990  0.8459  0.3000
   49MOL   O11410770   2.392   4.583   1.171  0.5791 -0.8265 -1.2136
   49MOL   C11510771   2.609   4.669   1.134 -0.6662 -0.2309 -0.1859
   49MOL   C11610772   2.260   4.833   1.106 -0.3062  0.0596  0.3034
   49MOL   H11710773   2.478   4.867   1.050  0.5164  0.0886 -1.3543
   49MOL   H11810774   2.649   4.730   1.215  0.4047 -0.4700 -0.5302
   49MOL   H11910775   2.640   4.568   1.162  2.4745  0.3812 -1.2573
   49MOL   H12010776   2.660   4.703   1.044  0.1132  0.6095  0.5620
   49MOL   H12110777   2.204   4.742   1.126  1.2516 -0.5667  1.9966
   49MOL   H12210778   2.199   4.879   1.028 -2.2019 -1.4309  0.8809
   49MOL   C12310779   2.261   4.936   1.223  0.2862 -0.2536  0.1136
   49MOL   C12410780   2.338   5.060   1.178  0.5998  0.3365  0.2814
   49MOL   O12510781   2.454   5.080   1.204 -0.0475 -0.3977  0.2608
   49MOL   C12610782   2.269   5.167   1.089  0.6634  0.5046 -0.0971
   49MOL   C12710783   2.310   4.887   1.361  0.4450 -0.9205  0.4600
   49MOL   H12810784   2.159   4.973   1.229 -0.7095 -3.0513  1.6964
   49MOL   H12910785   2.334   5.241   1.042  1.1007 -1.7798 -3.2883
   49MOL   H13010786   2.228   5.107   1.007 -0.8967  0.0986  0.9603
   49MOL   H13110787   2.181   5.214   1.134  0.6176  0.3497 -0.0226
   49MOL   H13210788   2.369   4.965   1.409 -1.2666  0.1030  0.9554
   49MOL   H13310789   2.374   4.799   1.347  0.2382 -0.7367 -1.8606
   49MOL   C13410790   2.206   4.850   1.466  0.1572  0.3429  0.2362
   49MOL   C13510791   2.129   4.726   1.419 -0.1342 -0.2170  0.1437
   49MOL   O13610792   2.031   4.742   1.352 -0.0931 -0.3015  0.3954
   49MOL   C13710793   2.203   4.594   1.442 -0.1012 -0.0481 -0.3019
   49MOL   C13810794   2.114   4.966   1.520 -0.1201 -0.3581  0.1941
   49MOL   H13910795   2.261   4.812   1.552 -0.7401  2.0828  1.6264
   49MOL   H14010796   2.226   4.550   1.345 -2.3429  0.3333 -1.0328
   49MOL   H14110797   2.298   4.615   1.492  0.0501  3.0125 -1.7848
   49MOL   H14210798   2.149   4.519   1.499 -0.8263 -0.4109 -1.4624
   49MOL   H14310799   2.019   4.926   1.554 -0.6460  0.6456 -0.0590
   49MOL   H14410800   2.082   5.022   1.432  1.2275 -0.2696 -0.2479
   49MOL   C14510801   2.189   5.060   1.616 -0.1599 -0.1157  0.1036
   49MOL   C14610802   2.259   4.992   1.730 -0.0439 -0.0407 -0.2563
   49MOL   O14710803   2.236   4.876   1.765 -0.4738 -0.0997  0.0020
   49MOL   C14810804   2.361   5.072   1.808  0.7057 -0.4806 -0.5109
   49MOL   C14910805   2.100   5.183   1.665  0.1461 -0.2516  0.4091
   49MOL   H15010806   2.273   5.087   1.553 -0.7518  1.8254  0.0822
   49MOL   H15110807   2.426   5.130   1.743  2.3604 -1.8161 -0.0958
   49MOL   H15210808   2.310   5.136   1.880 -0.6055  0.3785 -2.1565
   49MOL   H15310809   2.422   5.009   1.873  1.5406 -0.5291 -1.3251
   49MOL   H15410810   2.103   5.189   1.773 -1.4006 -0.0579  0.4634
   49MOL   H15510811   1.996   5.153   1.650  0.1024 -0.3222  0.8555
   49MOL   C15610812   2.140   5.321   1.605 -0.0715 -0.7973 -0.6165
   49MOL   C15710813   2.156   5.312   1.457 -0.1827  0.1765  1.2699
   49MOL   O15810814   2.266   5.280   1.400  0.5391 -0.0307 -0.0745
   49MOL   C15910815   2.030   5.314   1.375  0.1376  0.0118  0.2474
   49MOL   C16010816   2.266   5.374   1.677 -0.1519 -0.7691  0.3544
   49MOL   H16110817   2.055   5.389   1.613  0.6349  0.2685 -1.9491
   49MOL   H16210818   2.011   5.212   1.344 -1.8590  0.5022 -0.2233
   49MOL   H16310819   1.948   5.358   1.432  0.9333  2.2747 -0.2635
   49MOL   H16410820   2.047   5.381   1.291 -0.8260  1.2480  1.0120
   49MOL   H16510821   2.348   5.311   1.640 -0.4562  0.0594 -1.8345
   49MOL   H16610822   2.271   5.340   1.780  1.3067  1.1791  0.9483
   49MOL   C16710823   2.309   5.527   1.658 -0.7399 -0.1553  0.3444
   49MOL   C16810824   2.198   5.635   1.675  0.3534 -0.3483  0.5257
   49MOL   O16910825   2.101   5.643   1.606  0.2449  0.3531 -0.2918
   49MOL   C17010826   2.220   5.728   1.788  0.0565 -0.1339  0.3078
   49MOL   C17110827   2.388   5.543   1.518 -0.2063 -0.2914 -0.1358
   49MOL   H17210828   2.375   5.539   1.744  0.1077  1.4292 -0.5038
   49MOL   H17310829   2.164   5.686   1.872 -1.4277  0.2123 -0.4905
   49MOL   H17410830   2.326   5.731   1.812  0.4238 -2.6682 -0.8216
   49MOL   H17510831   2.176   5.825   1.766 -1.1934 -0.9846 -0.9888
   49MOL   H17610832   2.311   5.532   1.442  0.0932 -0.9150 -0.3576
   49MOL   H17710833   2.446   5.451   1.509  0.8152  0.1894  1.3113
   49MOL   C17810834   2.474   5.663   1.497 -0.4341  1.0850  0.5088
   49MOL   C17910835   2.577   5.674   1.608  0.3667  0.6368 -0.3480
   49MOL   O18010836   2.559   5.755   1.698  0.4992  0.5877 -0.1860
   49MOL   C18110837   2.691   5.584   1.609  0.1039  0.8728  0.1813
   49MOL   C18210838   2.389   5.787   1.466 -0.1142  0.0693 -0.2583
   49MOL   H18310839   2.532   5.646   1.407 -1.0515 -1.1220  0.4802
   49MOL   H18410840   2.790   5.630   1.615  0.5627 -0.2371  1.2447
   49MOL   H18510841   2.683   5.524   1.700 -2.8951  0.3773 -0.3607
   49MOL   H18610842   2.685   5.519   1.522  1.8880 -0.9983  1.4113
   49MOL   H18710843   2.373   5.838   1.561  1.2810 -1.3780  0.7722
   49MOL   H18810844   2.290   5.746   1.447 -1.0349  1.2662  1.8258
   49MOL   C18910845   2.430   5.893   1.369  0.1277 -0.3307  0.0759
   49MOL   C19010846   2.354   6.025   1.395  0.2263  0.1935 -0.4919
   49MOL   O19110847   2.254   6.034   1.468 -0.1569  0.0246  0.2677
   49MOL   C19210848   2.405   6.153   1.320 -0.6497 -0.5184 -0.6241
   49MOL   C19310849   2.414   5.866   1.215  0.2243  0.6981 -1.0680
   49MOL   H19410850   2.533   5.919   1.392 -0.3929 -0.5546  2.8350
   49MOL   H19510851   2.512   6.170   1.335 -0.4405 -2.0608 -0.2638
   49MOL   H19610852   2.379   6.155   1.215 -1.7854  0.4687 -0.3362
   49MOL   H19710853   2.361   6.240   1.368 -0.5314 -0.9520  0.2882
   49MOL   H19810854   2.478   5.781   1.193  1.7728  0.9386  2.1413
   49MOL   H19910855   2.448   5.947   1.150  1.3702 -1.1155 -2.7725
   49MOL   C20010856   2.260   5.838   1.179 -0.2716 -0.4456  0.1021
   49MOL   C20110857   2.214   5.696   1.202 -0.7047  0.4047 -0.2539
   49MOL   O20210858   2.279   5.602   1.166  0.0132 -0.2557  0.4728
   49MOL   C20310859   2.070   5.676   1.233 -0.3666 -0.3779 -0.0079
   49MOL   C20410860   2.228   5.880   1.039  0.1692  0.4960  0.0141
   49MOL   H20510861   2.194   5.892   1.247  0.0142 -0.7417  0.6195
   49MOL   H20610862   2.048   5.599   1.307  1.2961 -1.1074 -0.2486
   49MOL   H20710863   2.042   5.768   1.285 -2.6559 -0.8043 -0.4476
   49MOL   H20810864   2.009   5.653   1.146 -0.5758  0.7866 -0.1829
   49MOL   H20910865   2.158   5.818   0.983 -0.5986  1.0280  0.3789
   49MOL   H21010866   2.321   5.878   0.981  0.3482  2.2059  0.2142
   49MOL   C21110867   2.199   6.025   1.000  0.3038  1.0683 -0.3630
   49MOL   C21210868   2.080   6.074   1.084  0.4397  0.4404 -0.4756
   49MOL   O21310869   1.990   6.001   1.118 -0.3928  0.1309  0.0621
   49MOL   C21410870   2.089   6.207   1.145  0.4973 -0.5350 -0.1632
   49MOL   C21510871   2.174   6.050   0.848 -0.5149 -0.5762 -0.5406
   49MOL   H21610872   2.281   6.089   1.030  0.6409  0.4236  0.0974
   49MOL   H21710873   2.106   6.189   1.251  0.2119 -1.0244 -0.1988
   49MOL   H21810874   2.159   6.270   1.091  1.2474 -1.8563 -0.7559
   49MOL   H21910875   1.991   6.254   1.139  1.3070  1.2280 -0.0939
   49MOL   H22010876   2.249   6.000   0.788  0.5752 -0.1494  0.4479
   49MOL   H22110877   2.188   6.157   0.837 -0.5455 -0.4104  0.8748
   49MOL   H22210878   2.080   6.003   0.817 -0.7050 -1.0795  0.7269
   50MOL     C110879   0.135   1.911   0.369  0.4572 -0.4690  0.3100
   50MOL     C210880   0.232   2.030   0.379  0.4805 -0.7304 -0.1471
   50MOL     O310881   0.252   2.085   0.488  0.8998  0.2288  0.7149
   50MOL     C410882   0.298   2.074   0.249 -0.3873  0.7056  0.2914
   50MOL     C510883   0.090   1.858   0.511 -0.4602 -0.5279  0.2777
   50MOL     H610884   0.054   1.942   0.304  0.0917 -1.2481  0.3942
   50MOL     H710885   0.289   2.181   0.235 -1.1388  0.5160 -0.7913
   50MOL     H810886   0.396   2.031   0.227 -1.3046 -1.9161  1.1657
   50MOL     H910887   0.229   2.039   0.171 -0.3597  0.9465  0.1575
   50MOL    H1010888   0.031   1.932   0.565 -0.3203 -0.4284  0.2928
   50MOL    H1110889   0.184   1.829   0.557 -0.1414  0.8343  0.5196
   50MOL    H1210890   0.184   1.829   0.316  0.8493  1.2778 -2.1082
   50MOL    C1310891   0.007   1.733   0.499  0.2928 -0.4750  0.5788
   50MOL    C1410892   0.081   1.608   0.453  1.3302 -0.5545  0.0620
   50MOL    O1510893   0.091   1.589   0.331  0.3163 -0.6111 -0.1055
   50MOL    C1610894   0.135   1.519   0.562  0.5992  0.7936  0.4138
   50MOL    C1710895   7.710   1.760   0.449  0.5761 -0.0389 -0.0260
   50MOL    H1810896   0.001   1.707   0.605  1.8117  1.4293  1.1580
   50MOL    H1910897   0.052   1.472   0.615  2.4699 -0.6346  2.1394
   50MOL    H2010898   0.214   1.459   0.517  2.9496  3.1510  1.2422
   50MOL    H2110899   0.182   1.584   0.636 -1.3994  0.3936  2.0647
   50MOL    H2210900   7.703   1.779   0.342  1.1377  2.1878  0.2950
   50MOL    H2310901   7.675   1.850   0.500 -1.0002  0.2736 -1.6441
   50MOL    C2410902   7.603   1.648   0.463  0.4987 -0.6729  0.2470
   50MOL    C2510903   7.605   1.596   0.607 -0.1730  0.1768  0.3377
   50MOL    O2610904   7.643   1.484   0.631 -0.0582 -0.1583  0.0168
   50MOL    C2710905   7.577   1.687   0.726  0.0560  0.5335 -0.0129
   50MOL    C2810906   7.595   1.537   0.359  0.0360  0.8042 -0.6035
   50MOL    H2910907   7.510   1.704   0.461 -0.4898 -2.3042 -0.2768
   50MOL    H3010908   7.594   1.635   0.820 -1.5613  1.2497  0.7070
   50MOL    H3110909   7.638   1.777   0.722  1.2772 -0.1936  1.8028
   50MOL    H3210910   7.472   1.718   0.726 -0.3864 -0.9143 -1.6629
   50MOL    H3310911   7.676   1.465   0.373 -1.2775 -0.4424  0.8762
   50MOL    H3410912   7.613   1.575   0.259 -0.1966 -1.5486 -1.5782
   50MOL    C3510913   7.458   1.469   0.368  0.8666 -0.6654 -0.3002
   50MOL    C3610914   7.476   1.328   0.317 -0.2164  0.5107  0.1084
   50MOL    O3710915   7.569   1.297   0.243  0.3268 -0.3246  0.5254
   50MOL    C3810916   7.378   1.227   0.367  0.2258  0.2153 -0.1397
   50MOL    C3910917   7.347   1.551   0.288 -0.2952  0.3798  0.2806
   50MOL    H4010918   7.435   1.477   0.474  1.2550  0.7180 -0.3086
   50MOL    H4110919   7.431   1.132   0.376 -0.2239  0.0576  0.8940
   50MOL    H4210920   7.330   1.261   0.459 -1.8079 -0.3054 -1.0052
   50MOL    H4310921   7.299   1.213   0.293  0.8164 -1.5882 -0.4639
   50MOL    H4410922   7.354   1.522   0.183  1.5153  1.2342  0.1544
   50MOL    H4510923   7.380   1.654   0.297 -2.2509  1.0589 -0.1232
   50MOL    C4610924   7.198   1.528   0.330 -1.0015  0.6059  0.0186
   50MOL    C4710925   7.122   1.445   0.226 -0.8266  0.7234  0.0606
   50MOL    O4810926   7.137   1.450   0.102  0.3940 -0.7400  0.2428
   50MOL    C4910927   7.021   1.354   0.289  0.2522 -0.8329 -0.5053
   50MOL    C5010928   7.131   1.663   0.356 -0.3955  0.5480  0.7254
   50MOL    H5110929   7.199   1.465   0.419 -0.7837 -1.7237 -1.5899
   50MOL    H5210930   7.080   1.297   0.362 -1.1988 -1.4641  0.1916
   50MOL    H5310931   6.946   1.422   0.329  0.9432 -0.8531  0.8776
   50MOL    H5410932   6.970   1.296   0.212 -0.5530  1.9280 -2.1188
   50MOL    H5510933   7.026   1.635   0.358 -0.2364  0.0469  2.0947
   50MOL    H5610934   7.131   1.731   0.270  3.0421  0.9734  0.9913
   50MOL    C5710935   7.174   1.745   0.479 -0.1721 -0.4151  0.2648
   50MOL    C5810936   7.110   1.680   0.607  0.0395  0.0800 -0.1996
   50MOL    O5910937   7.036   1.583   0.605  0.0451 -0.1631 -0.0994
   50MOL    C6010938   7.147   1.736   0.748 -0.3473  0.8345 -0.2307
   50MOL    C6110939   7.144   1.899   0.476 -1.0699 -0.0271  0.3375
   50MOL    H6210940   7.279   1.715   0.489 -0.0704  0.6405  2.7227
   50MOL    H6310941   7.220   1.816   0.741  1.3496 -0.8401 -2.1545
   50MOL    H6410942   7.056   1.784   0.785  0.2653  1.8338  0.0231
   50MOL    H6510943   7.168   1.657   0.819 -1.8795 -0.5024 -1.2303
   50MOL    H6610944   7.164   1.941   0.575 -0.7320  2.2398 -0.6439
   50MOL    H6710945   7.038   1.915   0.457 -1.0416 -0.8575 -0.5191
   50MOL    C6810946   7.229   1.976   0.368  0.1472  0.2880 -0.2926
   50MOL    C6910947   7.381   1.983   0.389 -0.3586  0.6010  0.5404
   50MOL    O7010948   7.431   1.956   0.497 -0.1397  0.1527 -0.1848
   50MOL    C7110949   7.465   1.987   0.263  0.0518 -0.2622  0.5283
   50MOL    C7210950   7.166   2.112   0.338  0.1262 -0.0509 -0.7485
   50MOL    H7310951   7.231   1.917   0.276  1.3118 -3.2036  1.8733
   50MOL    H7410952   7.406   1.998   0.171 -0.8540  0.4852  1.1817
   50MOL    H7510953   7.533   2.071   0.275 -0.1673  0.1926 -1.1960
   50MOL    H7610954   7.517   1.892   0.268 -0.5153 -0.5410  1.1980
   50MOL    H7710955   7.062   2.100   0.311 -0.7508  2.3931  1.3800
   50MOL    H7810956   7.209   2.144   0.243  0.8644 -1.6272 -0.9621
   50MOL    C7910957   7.183   2.216   0.452 -0.1597 -0.6460  0.3018
   50MOL    C8010958   7.056   2.237   0.533  0.3673 -0.5496 -0.4715
   50MOL    O8110959   6.945   2.201   0.498  0.1930 -0.2626 -0.0552
   50MOL    C8210960   7.069   2.305   0.675  0.4339 -0.4356 -0.1662
   50MOL    C8310961   7.241   2.350   0.398 -0.2765  0.3007  0.0003
   50MOL    H8410962   7.246   2.171   0.528 -0.1798 -1.6065 -0.2395
   50MOL    H8510963   7.024   2.404   0.681 -1.5126 -1.3331  0.0610
   50MOL    H8610964   7.024   2.243   0.751 -0.4605 -1.4992 -1.5363
   50MOL    H8710965   7.175   2.323   0.694  0.4969  0.3786 -1.2039
   50MOL    H8810966   7.339   2.325   0.357 -0.8979 -2.9718  0.4103
   50MOL    H8910967   7.251   2.426   0.475  0.7178  1.4048 -1.1767
   50MOL    C9010968   7.162   2.418   0.278 -0.3631  0.4128 -0.8268
   50MOL    C9110969   7.264   2.452   0.170  0.3210 -0.5075 -0.0264
   50MOL    O9210970   7.325   2.561   0.172 -0.4419 -0.0385  0.0729
   50MOL    C9310971   7.277   2.358   0.046  0.1013  0.1097  0.4616
   50MOL    C9410972   7.072   2.527   0.334 -0.1271  0.7170 -0.1659
   50MOL    H9510973   7.102   2.332   0.247 -0.7321  0.3010  0.2045
   50MOL    H9610974   7.180   2.338   7.841 -0.9352  0.2691  2.4764
   50MOL    H9710975   7.338   2.412   7.815  0.7462 -2.2190 -0.7868
   50MOL    H9810976   7.332   2.266   0.069 -0.9399 -1.1090 -1.6826
   50MOL    H9910977   7.126   2.614   0.369  1.2648 -0.4570  0.6707
   50MOL   H10010978   7.034   2.491   0.430  0.4275  3.3170  1.0746
   50MOL   C10110979   6.947   2.561   0.251  0.6342 -0.1361  0.3860
   50MOL   C10210980   6.984   2.623   0.112 -0.3442  0.4180 -0.0721
   50MOL   O10310981   6.957   2.564   0.009  0.2088 -0.0982  0.7202
   50MOL   C10410982   7.058   2.755   0.100 -0.3218  0.0154 -0.0875
   50MOL   C10510983   6.838   2.643   0.324  0.5917 -0.3152  0.5062
   50MOL   H10610984   6.901   2.465   0.229  0.3225  0.5596 -2.1756
   50MOL   H10710985   7.005   2.813   0.024 -0.4689  0.5165  0.3858
   50MOL   H10810986   7.065   2.821   0.187  1.4542  0.7621 -0.7794
   50MOL   H10910987   7.164   2.746   0.079 -0.4082  0.4459 -0.7453
   50MOL   H11010988   6.854   2.750   0.312 -0.9684 -0.3641 -2.2677
   50MOL   H11110989   6.842   2.627   0.432 -1.9648 -1.6861  0.4446
   50MOL   C11210990   6.686   2.612   0.302  0.0351 -0.6805 -0.2306
   50MOL   C11310991   6.666   2.465   0.346  0.6468 -0.3566  0.1276
   50MOL   O11410992   6.632   2.375   0.271 -0.4637 -0.4052 -0.2246
   50MOL   C11510993   6.689   2.429   0.493 -0.1668  0.1807  0.0017
   50MOL   C11610994   6.649   2.654   0.157 -0.2668  0.3432 -0.4233
   50MOL   H11710995   6.630   2.666   0.379 -0.3210 -3.0786  1.2367
   50MOL   H11810996   6.781   2.370   0.493  0.9436  1.8685 -0.5294
   50MOL   H11910997   6.699   2.520   0.552  2.9144 -0.1520  0.1121
   50MOL   H12010998   6.613   2.361   0.531  0.1318 -0.9149 -1.3077
   50MOL   H12110999   6.699   2.587   0.087 -1.5087 -2.6019  1.4209
   50MOL   H12211000   6.684   2.756   0.138  0.5155  0.3498  0.9684
   50MOL   C12311001   6.488   2.635   0.125 -0.8536  0.1855 -0.1445
   50MOL   C12411002   6.458   2.658   7.815  0.5221  1.0358 -0.6781
   50MOL   O12511003   6.525   2.741   7.754  0.1750 -0.3869  0.5557
   50MOL   C12611004   6.351   2.581   7.743  0.5187  0.5147 -0.2641
   50MOL   C12711005   6.397   2.727   0.213  0.5279 -0.2460  0.3883
   50MOL   H12811006   6.463   2.530   0.143 -0.6644 -0.3832 -2.8948
   50MOL   H12911007   6.365   2.562   7.637 -1.1412 -0.4789 -0.3165
   50MOL   H13011008   6.351   2.480   7.783 -1.0408  1.4864  2.2962
   50MOL   H13111009   6.261   2.638   7.765  0.6928  0.6898 -0.0053
   50MOL   H13211010   6.343   2.799   0.150 -0.2613 -1.3428 -0.2025
   50MOL   H13311011   6.457   2.795   0.273 -0.7340  0.2588  1.1119
   50MOL   C13411012   6.304   2.655   0.303 -0.0038  0.1092 -0.3043
   50MOL   C13511013   6.197   2.566   0.236  0.0219 -0.2587 -0.7554
   50MOL   O13611014   6.092   2.614   0.191  0.2078 -0.1508 -0.5243
   50MOL   C13711015   6.218   2.415   0.227 -0.3909 -0.1622 -0.1627
   50MOL   C13811016   6.236   2.747   0.404 -0.9460  0.4547  0.0638
   50MOL   H13911017   6.371   2.590   0.359  0.3760  2.8509  2.6137
   50MOL   H14011018   6.283   2.408   0.140  0.5152 -0.9281  0.5718
   50MOL   H14111019   6.274   2.363   0.304 -0.6443  1.0203  0.8425
   50MOL   H14211020   6.124   2.362   0.209  1.1590 -2.6200 -1.2964
   50MOL   H14311021   6.203   2.831   0.343  0.1891 -0.3651 -1.7090
   50MOL   H14411022   6.309   2.790   0.473  0.0023  0.6682 -1.0574
   50MOL   C14511023   6.121   2.690   0.489  0.1104  0.2138  0.1944
   50MOL   C14611024   6.026   2.802   0.550  0.8584  0.1282  0.2560
   50MOL   O14711025   5.976   2.783   0.661 -0.2751 -0.9654 -0.2626
   50MOL   C14811026   5.996   2.929   0.471 -0.3403 -0.3402 -0.1217
   50MOL   C14911027   6.165   2.583   0.595  0.0177 -0.0049  0.3448
   50MOL   H15011028   6.044   2.643   0.428 -0.4799  2.3651 -0.7775
   50MOL   H15111029   5.969   2.916   0.366 -2.5400 -0.6403  0.4582
   50MOL   H15211030   5.912   2.979   0.518 -0.2264 -0.7850  0.5544
   50MOL   H15311031   6.067   3.009   0.488  0.3941 -1.2503  1.1948
   50MOL   H15411032   6.214   2.502   0.540  0.2555  1.2802 -1.4072
   50MOL   H15511033   6.084   2.523   0.636 -0.4387 -0.8149 -1.6752
   50MOL   C15611034   6.251   2.623   0.721  0.5326  0.1091 -0.0410
   50MOL   C15711035   6.401   2.632   0.688 -0.2600  0.0061  0.0052
   50MOL   O15811036   6.447   2.579   0.591 -0.0118 -0.2394  0.1504
   50MOL   C15911037   6.487   2.722   0.774  0.3326  0.8579 -0.6203
   50MOL   C16011038   6.232   2.519   0.835 -0.0505 -0.3310  0.1377
   50MOL   H16111039   6.227   2.726   0.744 -1.6426  0.2306 -2.5610
   50MOL   H16211040   6.571   2.768   0.722  1.2056  0.9046  0.7894
   50MOL   H16311041   6.430   2.809   0.805 -0.3846  0.3665 -0.5500
   50MOL   H16411042   6.519   2.673   0.867  2.4256  2.5073 -0.4373
   50MOL   H16511043   6.320   2.531   0.899 -0.6447  1.9776  0.5616
   50MOL   H16611044   6.235   2.419   0.790  0.4444 -1.0234  1.6824
   50MOL   C16711045   6.101   2.529   0.922 -0.0431 -0.2210  0.3707
   50MOL   C16811046   6.137   2.603   1.051  0.7526  0.1842  0.2811
   50MOL   O16911047   6.195   2.545   1.149 -0.0521 -0.4545  0.3739
   50MOL   C17011048   6.096   2.757   1.061  0.1264 -0.1515  0.2747
   50MOL   C17111049   6.039   2.386   0.950  0.7363  0.6361  0.1800
   50MOL   H17211050   6.027   2.596   0.877 -0.4184 -1.4770 -0.9045
   50MOL   H17311051   6.041   2.803   0.979 -0.8338 -0.4864  0.7186
   50MOL   H17411052   6.045   2.764   1.157  0.6624  2.9866  0.3893
   50MOL   H17511053   6.193   2.807   1.069 -0.4426  1.3245 -1.7323
   50MOL   H17611054   6.096   2.317   1.013 -1.0940 -0.4833  0.6518
   50MOL   H17711055   6.048   2.339   0.853  0.1396  0.8784  0.0077
   50MOL   C17811056   5.892   2.390   1.006 -0.3630 -0.4219  0.4422
   50MOL   C17911057   5.885   2.319   1.141 -0.3410  0.2815 -0.0756
   50MOL   O18011058   5.849   2.201   1.156  0.2069  0.4198 -0.4673
   50MOL   C18111059   5.910   2.404   1.263 -0.2022 -0.0976  0.2127
   50MOL   C18211060   5.795   2.337   0.890 -0.2657  0.4221  0.4351
   50MOL   H18311061   5.867   2.492   1.033 -1.9071 -1.0501  1.4379
   50MOL   H18411062   5.892   2.354   1.358  0.9061  0.2338  0.6074
   50MOL   H18511063   6.011   2.445   1.256 -0.1257 -0.6170 -1.9496
   50MOL   H18611064   5.848   2.493   1.273  1.1595  1.0920 -1.6469
   50MOL   H18711065   5.709   2.285   0.933  0.0145 -0.5459 -0.1592
   50MOL   H18811066   5.853   2.260   0.839  0.4627  1.0205  0.3474
   50MOL   C18911067   5.744   2.447   0.793  0.8895  0.2249 -0.3812
   50MOL   C19011068   5.666   2.554   0.873 -0.0172 -0.1733  0.9404
   50MOL   O19111069   5.550   2.533   0.900 -0.1754  0.3278 -0.1592
   50MOL   C19211070   5.737   2.689   0.881  0.8208 -0.5275 -0.0014
   50MOL   C19311071   5.656   2.385   0.684  0.5959  0.0049 -0.5961
   50MOL   H19411072   5.835   2.495   0.758  2.8612 -2.6975  0.5708
   50MOL   H19511073   5.838   2.687   0.840  0.3213 -2.4666 -1.2192
   50MOL   H19611074   5.673   2.766   0.839  0.7175 -1.5228 -1.7184
   50MOL   H19711075   5.751   2.707   0.988  1.7853 -5.5316  0.8423
   50MOL   H19811076   5.565   2.358   0.737  0.6290  1.3706  0.1778
   50MOL   H19911077   5.692   2.286   0.657  0.3446  0.1870 -1.6154
   50MOL   C20011078   5.629   2.454   0.548 -0.0617 -0.2357 -0.0461
   50MOL   C20111079   5.759   2.504   0.479  0.0539  0.1713  0.2840
   50MOL   O20211080   5.787   2.623   0.463 -0.3101 -0.6673  0.6034
   50MOL   C20311081   5.871   2.390   0.456 -0.2965  0.7935  0.8744
   50MOL   C20411082   5.533   2.573   0.562 -0.0588  0.2058 -0.0455
   50MOL   H20511083   5.571   2.380   0.493 -1.0240  2.0361 -2.1715
   50MOL   H20611084   5.864   2.323   0.542 -1.4160 -0.5856 -0.2441
   50MOL   H20711085   5.844   2.337   0.364 -0.9001  0.8154  1.0333
   50MOL   H20811086   5.973   2.417   0.432 -0.5679 -0.8858 -2.5979
   50MOL   H20911087   5.538   2.652   0.487  0.1541 -0.1087 -0.3574
   50MOL   H21011088   5.565   2.623   0.654 -3.6869  0.2450  1.2929
   50MOL   C21111089   5.383   2.528   0.587  0.1307  0.4382 -0.6699
   50MOL   C21211090   5.303   2.484   0.461 -0.1554 -0.6573 -0.8706
   50MOL   O21311091   5.287   2.555   0.364  0.0497  0.0067  0.6194
   50MOL   C21411092   5.240   2.348   0.458 -0.2085  0.2477 -0.3848
   50MOL   C21511093   5.307   2.641   0.665 -0.3164 -0.1265 -0.4202
   50MOL   H21611094   5.386   2.438   0.648 -1.3608  1.4002  0.8667
   50MOL   H21711095   5.175   2.338   0.371 -0.9947 -1.2808  0.3447
   50MOL   H21811096   5.322   2.277   0.440 -1.6592 -0.7157 -3.4359
   50MOL   H21911097   5.177   2.329   0.545  0.8688 -0.8216  0.1915
   50MOL   H22011098   5.323   2.737   0.615 -2.7863  0.6187  0.1594
   50MOL   H22111099   5.350   2.651   0.765 -0.0531 -1.8470 -0.3610
   50MOL   H22211100   5.198   2.647   0.661 -0.2171  1.3099 -1.7832
   51MOL     C111101   6.242   3.604   6.683  0.4395  0.7101 -0.1434
   51MOL     C211102   6.313   3.721   6.740 -0.5809 -0.5604 -0.3776
   51MOL     O311103   6.340   3.720   6.859 -0.0159  0.5906  0.4187
   51MOL     C411104   6.332   3.842   6.653 -0.5099 -0.6868 -0.4557
   51MOL     C511105   6.243   3.468   6.753  0.3138  0.4452  0.0158
   51MOL     H611106   6.142   3.644   6.670  0.1254  0.0194  0.1019
   51MOL     H711107   6.273   3.930   6.679 -0.1420 -1.1874  2.1902
   51MOL     H811108   6.439   3.863   6.656 -0.6505  0.1309 -0.7932
   51MOL     H911109   6.299   3.809   6.555 -4.5098  2.1830 -0.2027
   51MOL    H1011110   6.210   3.389   6.687 -0.1081  0.6485 -0.0189
   51MOL    H1111111   6.164   3.463   6.828  0.0982  1.5991 -0.1241
   51MOL    H1211112   6.291   3.595   6.586 -1.7383 -1.6905 -1.0734
   51MOL    C1311113   6.377   3.431   6.819 -0.1827  0.8592 -0.6562
   51MOL    C1411114   6.485   3.407   6.717  0.0293 -0.1797  0.3217
   51MOL    O1511115   6.479   3.319   6.625 -0.8850  0.3761 -0.2523
   51MOL    C1611116   6.606   3.503   6.728  0.3477 -0.3911  0.2303
   51MOL    C1711117   6.349   3.299   6.900 -0.6766  0.5683 -0.1787
   51MOL    H1811118   6.412   3.507   6.890  1.1101 -0.1228 -0.2349
   51MOL    H1911119   6.588   3.603   6.768 -1.3163 -0.8298  0.6402
   51MOL    H2011120   6.687   3.467   6.791  2.0797  0.8947 -1.1819
   51MOL    H2111121   6.652   3.517   6.630  1.9206  0.7961  1.1199
   51MOL    H2211122   6.296   3.227   6.837  0.5071 -1.4250  1.0124
   51MOL    H2311123   6.273   3.327   6.972  0.3235  1.7265  0.4436
   51MOL    C2411124   6.469   3.236   6.972 -1.1370  0.4880  0.1559
   51MOL    C2511125   6.424   3.097   7.011  0.2521 -0.3575  0.3638
   51MOL    O2611126   6.478   3.002   6.954 -0.2677 -0.2179  0.4953
   51MOL    C2711127   6.307   3.083   7.115  0.1099 -0.7371  0.7301
   51MOL    C2811128   6.523   3.323   7.093 -0.4176  0.4502  0.0827
   51MOL    H2911129   6.548   3.215   6.900 -1.1701  0.1385  0.2210
   51MOL    H3011130   6.285   3.177   7.165 -0.5490  0.1088 -1.0804
   51MOL    H3111131   6.223   3.050   7.052  0.8531 -0.1793 -0.5736
   51MOL    H3211132   6.331   3.007   7.189  0.8328 -1.1365  0.1038
   51MOL    H3311133   6.447   3.341   7.169  0.7943  2.8366  0.7783
   51MOL    H3411134   6.540   3.422   7.052  2.0430  0.7775  1.7483
   51MOL    C3511135   6.656   3.272   7.166  0.0918 -0.4225 -0.1776
   51MOL    C3611136   6.640   3.315   7.314  0.1662  0.1843 -0.4073
   51MOL    O3711137   6.634   3.432   7.344  0.7056  0.1296 -0.7284
   51MOL    C3811138   6.637   3.210   7.425 -0.3834  0.0366  0.4811
   51MOL    C3911139   6.782   3.318   7.098 -0.7493  0.0698  0.1795
   51MOL    H4011140   6.661   3.163   7.157 -0.2865 -0.4966  0.5018
   51MOL    H4111141   6.738   3.196   7.463 -0.2495  0.2932  0.2269
   51MOL    H4211142   6.575   3.242   7.509  0.4069  2.7756  0.0976
   51MOL    H4311143   6.611   3.115   7.378  0.4439  0.7753 -1.5413
   51MOL    H4411144   6.853   3.360   7.170  1.2511 -1.3899 -0.8868
   51MOL    H4511145   6.763   3.400   7.029  1.4508 -1.7074 -2.6449
   51MOL    C4611146   6.854   3.207   7.013  0.5059 -0.0534 -0.0898
   51MOL    C4711147   6.905   3.091   7.097  0.6396  0.6567 -0.1722
   51MOL    O4811148   6.951   3.097   7.209  0.7978  0.2256  0.0543
   51MOL    C4911149   6.902   2.959   7.017 -0.5723 -0.2139 -0.6966
   51MOL    C5011150   6.964   3.262   6.921 -0.7101  0.7237 -0.7353
   51MOL    H5111151   6.779   3.157   6.951  0.3654  0.3556 -0.2538
   51MOL    H5211152   6.831   2.884   7.053  0.2728 -1.1107 -0.8927
   51MOL    H5311153   6.884   2.975   6.911  1.1036 -1.1451 -1.1393
   51MOL    H5411154   6.994   2.900   7.022  1.1748  2.5660  1.3805
   51MOL    H5511155   6.911   3.323   6.848  1.4100  1.9151 -1.3231
   51MOL    H5611156   6.997   3.176   6.863 -0.9674  0.8270 -1.0396
   51MOL    C5711157   7.093   3.332   6.981  0.0128  0.3114 -0.6358
   51MOL    C5811158   7.060   3.471   7.030  0.4200  0.3937 -0.6659
   51MOL    O5911159   7.021   3.555   6.952 -0.1553 -0.1336 -0.4149
   51MOL    C6011160   7.056   3.499   7.185  0.0778 -0.2940 -0.5716
   51MOL    C6111161   7.205   3.343   6.876  0.0035  0.0125 -0.0060
   51MOL    H6211162   7.123   3.267   7.063 -1.5032  1.1024  0.5594
   51MOL    H6311163   7.138   3.564   7.217 -0.6246 -0.1411  0.9570
   51MOL    H6411164   6.957   3.530   7.218  0.6014  0.6539  0.1527
   51MOL    H6511165   7.077   3.409   7.242  2.1212  0.8933  0.6204
   51MOL    H6611166   7.189   3.425   6.806 -1.8420  0.5426  0.9944
   51MOL    H6711167   7.209   3.253   6.816 -0.3609  0.0947 -0.1520
   51MOL    C6811168   7.338   3.378   6.949 -0.2407 -0.0188 -0.6521
   51MOL    C6911169   7.431   3.448   6.849  0.4914  0.7241  0.0306
   51MOL    O7011170   7.522   3.388   6.797  0.9598 -0.2485 -0.5090
   51MOL    C7111171   7.393   3.586   6.789 -0.6016 -0.1614 -0.2529
   51MOL    C7211172   7.406   3.250   7.022  0.8657  0.6673  0.3890
   51MOL    H7311173   7.320   3.447   7.031 -3.3241  0.5399 -1.7278
   51MOL    H7411174   7.477   3.649   6.763  0.3190 -1.4223 -0.4025
   51MOL    H7511175   7.336   3.580   6.696  0.4013  0.7618 -0.9240
   51MOL    H7611176   7.335   3.649   6.856 -3.6575 -0.4318 -2.4969
   51MOL    H7711177   7.430   3.191   6.933 -3.2229  0.6168 -0.7621
   51MOL    H7811178   7.333   3.192   7.078  0.6654  1.1378  0.6188
   51MOL    C7911179   7.526   3.276   7.123  0.3559  0.3604 -0.7291
   51MOL    C8011180   7.637   3.174   7.105 -0.7239  0.5749  0.6097
   51MOL    O8111181   7.620   3.059   7.068 -0.7825  0.5580 -0.1752
   51MOL    C8211182   7.771   3.238   7.130 -0.2066 -0.9923  0.9373
   51MOL    C8311183   7.471   3.287   7.264  0.4956  0.2832  0.0573
   51MOL    H8411184   7.566   3.373   7.093 -0.2640  0.7353 -0.3594
   51MOL    H8511185   7.841   3.188   7.062 -0.8656  1.3450 -1.5067
   51MOL    H8611186   7.774   3.344   7.108 -0.0095 -0.9280  1.2648
   51MOL    H8711187   7.814   3.227   7.230  0.5888 -0.4135  0.6627
   51MOL    H8811188   7.390   3.360   7.269 -2.0465 -2.4688  1.2768
   51MOL    H8911189   7.546   3.328   7.332 -2.2277  2.0511  2.1280
   51MOL    C9011190   7.418   3.157   7.333 -0.0470  0.0933 -0.8371
   51MOL    C9111191   7.275   3.166   7.395  0.5291 -0.2848  0.3039
   51MOL    O9211192   7.220   3.275   7.409 -0.5454 -0.1695  0.1273
   51MOL    C9311193   7.221   3.044   7.465 -0.4601 -0.1338  0.3986
   51MOL    C9411194   7.523   3.086   7.425  0.5423 -0.4284  0.6409
   51MOL    H9511195   7.407   3.081   7.256  0.4910 -1.2672  0.4038
   51MOL    H9611196   7.145   3.022   7.390 -0.6195  1.2792  0.1322
   51MOL    H9711197   7.299   2.969   7.453  1.6887  2.2588 -0.9006
   51MOL    H9811198   7.189   3.064   7.567  0.2190  0.2636  0.5357
   51MOL    H9911199   7.620   3.117   7.384 -0.2492  0.1539 -0.8315
   51MOL   H10011200   7.509   2.979   7.413 -0.8020 -0.0321 -1.7536
   51MOL   C10111201   7.518   3.117   7.579  0.2421 -0.1777  0.2957
   51MOL   C10211202   7.563   3.263   7.626  0.4565  0.9827 -0.4193
   51MOL   O10311203   7.653   3.322   7.566  0.2886  0.7511 -0.3197
   51MOL   C10411204   7.480   3.336   7.732  0.4989  0.5787 -0.7906
   51MOL   C10511205   7.585   3.008   7.656  0.3873  0.3909 -0.5508
   51MOL   H10611206   7.419   3.106   7.622  0.2176 -4.7415 -0.6271
   51MOL   H10711207   7.433   3.268   7.803 -0.8515  1.4471 -0.8390
   51MOL   H10811208   7.538   3.411   7.784 -1.6248  1.6927  0.0412
   51MOL   H10911209   7.389   3.387   7.699 -0.9140 -0.8794  0.7057
   51MOL   H11011210   7.535   2.917   7.622 -2.2853  0.9002  1.8580
   51MOL   H11111211   7.546   3.008   7.758 -0.1858 -1.4837 -0.7570
   51MOL   C11211212   7.746   2.995   7.657 -0.2176 -0.1741 -0.0260
   51MOL   C11311213   7.794   2.940   7.523  0.5008 -0.6902 -0.5796
   51MOL   O11411214   7.741   2.849   7.467  0.1884  0.4612  0.0184
   51MOL   C11511215   0.072   3.000   7.449 -0.6159  0.0735  0.4581
   51MOL   C11611216   7.803   2.908   7.776  0.9411 -0.1765  0.2979
   51MOL   H11711217   7.788   3.095   7.668 -0.6185  0.0769 -0.7594
   51MOL   H11811218   0.101   3.096   7.490 -0.9100  0.2357  0.2890
   51MOL   H11911219   0.167   2.947   7.451 -0.2843  0.6095 -0.5985
   51MOL   H12011220   0.056   3.023   7.344  2.0157 -0.6639 -0.1470
   51MOL   H12111221   0.070   2.912   7.770  1.0443 -0.5144  1.7729
   51MOL   H12211222   7.765   2.806   7.770 -1.0674  0.4617  1.7335
   51MOL   C12311223   7.766   2.968   0.077 -0.2182 -0.1499  1.0003
   51MOL   C12411224   7.786   3.117   0.096  0.4594 -0.2908  0.1419
   51MOL   O12511225   0.045   3.164   0.043 -0.0210  0.1654  0.0806
   51MOL   C12611226   7.686   3.191   0.191 -0.0016  0.2804 -0.1265
   51MOL   C12711227   0.023   2.906   0.186  0.5323 -0.3684  0.1519
   51MOL   H12811228   7.667   2.934   0.108  0.5144 -1.5872  1.8565
   51MOL   H12911229   7.731   3.270   0.251  1.4481 -1.4331  1.1241
   51MOL   H13011230   7.596   3.223   0.138  1.1867  2.2350 -1.0219
   51MOL   H13111231   7.661   3.119   0.269 -0.7944 -0.2044 -0.8259
   51MOL   H13211232   0.004   2.951   0.283 -0.0226  0.5688 -0.3821
   51MOL   H13311233   0.123   2.933   0.149 -0.7772  2.8142 -1.2843
   51MOL   C13411234   0.019   2.756   0.218  0.3582 -0.1176 -0.4008
   51MOL   C13511235   7.730   2.701   0.284 -0.0315 -0.0794  0.2488
   51MOL   O13611236   7.679   2.774   0.373  0.4638  0.5181 -0.7772
   51MOL   C13711237   7.673   2.569   0.235 -0.6914 -0.3176 -0.2539
   51MOL   C13811238   0.141   2.710   0.300 -0.3789  0.0822 -0.3117
   51MOL   H13911239   0.015   2.720   0.115  2.7031  2.6684 -1.5021
   51MOL   H14011240   7.576   2.576   0.185 -1.7306  0.9520  1.8525
   51MOL   H14111241   7.744   2.528   0.163 -0.2883 -0.3859  0.1767
   51MOL   H14211242   7.655   2.496   0.314  1.4884  0.5277  1.0459
   51MOL   H14311243   0.130   2.749   0.401  1.4563 -1.4854  0.5174
   51MOL   H14411244   0.222   2.761   0.249  2.1378 -1.0087  2.4682
   51MOL   C14511245   0.176   2.555   0.307  0.0754 -0.3300 -0.3985
   51MOL   C14611246   0.268   2.513   0.423  0.2299  0.4648 -0.1809
   51MOL   O14711247   0.351   2.594   0.469  0.1500 -0.1679  0.3328
   51MOL   C14811248   0.253   2.375   0.489 -0.2714  0.6011  0.4704
   51MOL   C14911249   0.218   2.492   0.175 -0.4047  0.2912 -0.6372
   51MOL   H15011250   0.082   2.503   0.324 -0.4059  0.7104  0.1454
   51MOL   H15111251   0.342   2.314   0.483 -0.1167  0.8905 -0.2756
   51MOL   H15211252   0.224   2.398   0.592  0.5961  2.4339  0.3268
   51MOL   H15311253   0.168   2.326   0.441  0.8168  0.3615 -1.2316
   51MOL   H15411254   0.143   2.510   0.099  2.2112 -1.3793 -3.7430
   51MOL   H15511255   0.216   2.383   0.184  1.0765  0.1800 -1.5395
   51MOL   C15611256   0.363   2.539   0.136 -0.1684  0.4065 -0.4331
   51MOL   C15711257   0.361   2.600   0.002  0.1714 -0.3334  0.0210
   51MOL   O15811258   0.364   2.533   7.743 -0.8317  0.2370  0.2559
   51MOL   C15911259   0.369   2.751   7.839  0.3062  0.8774  0.1018
   51MOL   C16011260   0.461   2.419   0.148 -0.2800 -0.8788 -0.0510
   51MOL   H16111261   0.387   2.622   0.201 -1.3881  0.7075 -0.3560
   51MOL   H16211262   0.281   2.799   0.040  0.6375 -0.1005  1.9008
   51MOL   H16311263   0.463   2.780   0.044  0.4696  1.1348 -0.3702
   51MOL   H16411264   0.373   2.777   7.733 -1.4696  1.1928  0.0935
   51MOL   H16511265   0.452   2.350   0.064 -2.1996 -0.3241 -0.3335
   51MOL   H16611266   0.431   2.347   0.224 -1.5410 -1.9462 -1.5213
   51MOL   C16711267   0.613   2.462   0.164  0.0461  0.5463 -0.6942
   51MOL   C16811268   0.693   2.345   0.125  0.6484  0.4389 -0.6947
   51MOL   O16911269   0.711   2.250   0.201  0.0931 -0.4223 -0.1180
   51MOL   C17011270   0.774   2.348   7.835 -0.4308 -0.1438  0.0344
   51MOL   C17111271   0.655   2.520   0.305  0.4813  0.4341 -0.5975
   51MOL   H17211272   0.625   2.543   0.092  2.5015  0.3498 -0.5415
   51MOL   H17311273   0.709   2.408   7.771 -1.2186 -0.2555  0.7111
   51MOL   H17411274   0.874   2.385   0.015 -0.1165 -1.6145  1.1302
   51MOL   H17511275   0.798   2.250   7.794  3.5232  0.8523 -0.2415
   51MOL   H17611276   0.619   2.453   0.384  0.5107  1.1862  0.0589
   51MOL   H17711277   0.599   2.606   0.340 -0.7865 -0.8767  0.6979
   51MOL   C17811278   0.801   2.526   0.342 -0.0469 -0.3651 -0.2008
   51MOL   C17911279   0.813   2.560   0.487 -0.1428  0.3073  0.6719
   51MOL   O18011280   0.738   2.642   0.547  0.0577 -0.4489  0.3019
   51MOL   C18111281   0.928   2.500   0.563  0.6377  0.6969 -0.6067
   51MOL   C18211282   0.885   2.614   0.240  0.1365  0.0014 -0.0854
   51MOL   H18311283   0.830   2.421   0.339  0.7991 -0.1069 -1.6202
   51MOL   H18411284   0.901   2.433   0.645 -2.6632 -0.5127 -2.5575
   51MOL   H18511285   0.989   2.440   0.495  0.3879  1.5669 -1.5939
   51MOL   H18611286   0.995   2.580   0.594 -1.8855  2.2021  1.1055
   51MOL   H18711287   0.885   2.578   0.137 -2.4321 -1.4743  0.3880
   51MOL   H18811288   0.991   2.601   0.262 -0.0766 -1.0863  0.3166
   51MOL   C18911289   0.862   2.764   0.224 -0.1456  0.1694 -0.2419
   51MOL   C19011290   0.903   2.811   0.086  0.1792  0.3313 -0.1974
   51MOL   O19111291   1.008   2.779   0.035 -0.6187  0.5344 -0.3746
   51MOL   C19211292   0.795   2.893   0.017 -1.0111 -0.0922 -0.6733
   51MOL   C19311293   0.940   2.844   0.326 -0.5099 -0.0639 -0.1367
   51MOL   H19411294   0.756   2.778   0.243 -0.2621  1.7794 -1.9148
   51MOL   H19511295   0.703   2.833   0.012 -0.0910 -1.5364 -0.7091
   51MOL   H19611296   0.772   2.981   0.078 -1.0082 -1.4601  1.3837
   51MOL   H19711297   0.818   2.919   7.756 -0.0100  1.8754  0.0373
   51MOL   H19811298   1.046   2.839   0.302 -0.2865  3.1349  0.0683
   51MOL   H19911299   0.937   2.786   0.418  0.1829 -0.3224 -0.2774
   51MOL   C20011300   0.887   2.989   0.338  0.2931  0.2748 -1.4481
   51MOL   C20111301   0.992   3.099   0.315  0.2237  0.1506 -0.9033
   51MOL   O20211302   1.108   3.073   0.328 -0.0760 -0.4655 -0.1031
   51MOL   C20311303   0.937   3.240   0.280  0.4006  0.5241  0.0836
   51MOL   C20411304   0.818   3.009   0.477  0.2514 -0.2258  0.2058
   51MOL   H20511305   0.807   3.017   0.270 -1.3383  0.9226  0.6914
   51MOL   H20611306   0.957   3.319   0.353  2.0363  1.0089 -0.8690
   51MOL   H20711307   0.981   3.268   0.185 -0.0681  0.4405 -0.1625
   51MOL   H20811308   0.833   3.238   0.247  0.9340  2.5157 -1.7948
   51MOL   H20911309   0.830   3.112   0.509 -1.4758 -0.5804  2.1209
   51MOL   H21011310   0.858   2.944   0.556 -1.6575  0.2948  1.6422
   51MOL   C21111311   0.670   2.967   0.470 -0.0375  0.9049  0.5924
   51MOL   C21211312   0.575   3.042   0.375 -0.5863  0.1160  0.1604
   51MOL   O21311313   0.608   3.150   0.326  0.4742 -0.0027  0.3199
   51MOL   C21411314   0.438   2.981   0.335 -0.2644 -0.4404  0.3639
   51MOL   C21511315   0.606   2.972   0.608  0.3302  0.5200 -0.3788
   51MOL   H21611316   0.677   2.863   0.439 -0.3476  0.6988  1.1990
   51MOL   H21711317   0.430   2.874   0.355  0.9369 -0.7180 -0.6227
   51MOL   H21811318   0.368   3.036   0.398  0.1188 -0.8574  1.1656
   51MOL   H21911319   0.408   2.995   0.231  0.2311  2.1992  0.5240
   51MOL   H22011320   0.603   3.076   0.641 -1.4951  0.0211  1.1448
   51MOL   H22111321   0.662   2.907   0.676 -0.4945 -0.5546 -0.6977
   51MOL   H22211322   0.502   2.940   0.611  0.5931 -0.3726 -0.5383
   52MOL     C111323   4.268   3.650   4.794 -0.8746  0.0734  0.2408
   52MOL     C211324   4.403   3.727   4.815  0.3665  0.1549 -0.5798
   52MOL     O311325   4.413   3.852   4.810 -0.2591  0.1457  0.1278
   52MOL     C411326   4.527   3.640   4.826  0.0330  0.2734 -0.0304
   52MOL     C511327   4.142   3.731   4.831 -0.4463 -0.0820  0.0990
   52MOL     H611328   4.269   3.614   4.691  0.4022 -0.5912  0.4735
   52MOL     H711329   4.500   3.546   4.874 -2.3006  1.2230  0.6172
   52MOL     H811330   4.565   3.631   4.724  0.4636  1.2837  0.0292
   52MOL     H911331   4.603   3.680   4.894  2.8086 -0.8897 -2.3426
   52MOL    H1011332   4.143   3.837   4.809 -0.0768 -0.1332 -0.1295
   52MOL    H1111333   4.138   3.726   4.940 -0.7633 -1.2082  0.0418
   52MOL    H1211334   4.270   3.558   4.852  0.1386 -0.7169 -1.0244
   52MOL    C1311335   4.009   3.670   4.779  0.0350  0.6414 -0.8765
   52MOL    C1411336   3.995   3.662   4.628  0.0549  0.3805 -0.9111
   52MOL    O1511337   4.066   3.725   4.545  0.7439 -0.0317 -0.4279
   52MOL    C1611338   3.907   3.551   4.570  0.0201 -0.2805 -0.2740
   52MOL    C1711339   3.880   3.737   4.855  0.1365  0.1902 -0.3982
   52MOL    H1811340   4.014   3.568   4.816  2.6425  1.4227  1.0794
   52MOL    H1911341   3.958   3.506   4.485 -2.4020 -0.8431 -1.4543
   52MOL    H2011342   3.890   3.470   4.641  1.9102 -0.2435  0.2461
   52MOL    H2111343   3.809   3.582   4.535  0.8342  3.1987  0.3577
   52MOL    H2211344   3.905   3.759   4.959  0.4920 -2.4315  0.1035
   52MOL    H2311345   3.801   3.663   4.855 -1.5381  1.9221 -2.2309
   52MOL    C2411346   3.820   3.866   4.791 -0.4423 -0.1610 -0.3496
   52MOL    C2511347   3.921   3.982   4.772  0.0710  0.3959 -0.7440
   52MOL    O2611348   3.974   4.032   4.870  0.4915 -0.2691 -0.2659
   52MOL    C2711349   3.946   4.041   4.637  0.0335 -0.1943 -0.2483
   52MOL    C2811350   3.698   3.921   4.886 -0.4358  0.2185 -0.1434
   52MOL    H2911351   3.779   3.844   4.692  0.3306 -0.4797 -0.5997
   52MOL    H3011352   3.871   4.015   4.562 -0.9645 -0.5733  0.8511
   52MOL    H3111353   3.949   4.145   4.668  2.8782 -0.2860 -0.0907
   52MOL    H3211354   4.045   4.012   4.604  0.6575  0.1290  1.3092
   52MOL    H3311355   3.713   3.998   4.962  3.9103 -0.6660  0.0379
   52MOL    H3411356   3.658   3.840   4.947  0.4689 -2.1465 -2.5745
   52MOL    C3511357   3.580   3.980   4.809  0.3452 -0.4569 -0.1755
   52MOL    C3611358   3.622   4.118   4.746  0.0806 -0.0774 -0.2080
   52MOL    O3711359   3.653   4.125   4.632  0.0434 -0.4088 -0.0971
   52MOL    C3811360   3.620   4.242   4.843 -0.0088 -0.0438 -0.2581
   52MOL    C3911361   3.438   3.992   4.888  0.5062 -0.2532  1.0796
   52MOL    H4011362   3.551   3.919   4.724 -2.0940 -2.1436  1.7938
   52MOL    H4111363   3.709   4.245   4.905 -1.8850  0.3734  2.5207
   52MOL    H4211364   3.604   4.333   4.785 -0.3937  0.5776  0.8007
   52MOL    H4311365   3.538   4.241   4.915 -0.4174 -1.0124 -0.7225
   52MOL    H4411366   3.360   4.030   4.823  1.3301  1.5201  1.0981
   52MOL    H4511367   3.446   4.050   4.980  0.3525  3.6176 -1.2434
   52MOL    C4611368   3.378   3.858   4.935  0.1801  1.4487 -0.0718
   52MOL    C4711369   3.377   3.763   4.814  0.0410  0.3449  0.7753
   52MOL    O4811370   3.302   3.784   4.723 -0.1189  0.3803  0.5673
   52MOL    C4911371   3.468   3.638   4.820  0.7231  0.3401 -0.5972
   52MOL    C5011372   3.237   3.872   4.993 -0.2562 -0.0390  0.2068
   52MOL    H5111373   3.438   3.815   5.015 -1.3257 -0.4373  0.0822
   52MOL    H5211374   3.402   3.551   4.820 -1.5775  2.0139  1.0927
   52MOL    H5311375   3.544   3.622   4.744  1.3386  0.7640 -0.0801
   52MOL    H5411376   3.521   3.636   4.916 -0.3116  1.2601  0.0144
   52MOL    H5511377   3.206   3.767   5.002  1.0366 -0.5741 -1.3107
   52MOL    H5611378   3.169   3.908   4.916 -0.0045  1.6774  0.7857
   52MOL    C5711379   3.225   3.952   5.124 -0.0892  0.1155 -0.9539
   52MOL    C5811380   3.318   3.914   5.233  0.4877 -0.4761 -0.2805
   52MOL    O5911381   3.312   3.812   5.293 -0.8873  0.0515 -0.6596
   52MOL    C6011382   3.420   4.016   5.282 -0.2863 -0.0625  0.3367
   52MOL    C6111383   3.078   3.946   5.173  0.0103  0.4689  0.9756
   52MOL    H6211384   3.233   4.059   5.105 -0.2789 -0.0529 -2.0427
   52MOL    H6311385   3.522   3.980   5.275 -0.0818  0.4071  0.9169
   52MOL    H6411386   3.410   4.097   5.210 -0.4229  1.7888  2.3783
   52MOL    H6511387   3.396   4.050   5.383  1.1876 -0.1783  0.7321
   52MOL    H6611388   3.074   3.951   5.282  0.4451 -0.7930  1.0657
   52MOL    H6711389   3.043   3.848   5.140 -1.5846  0.8028  1.6084
   52MOL    C6811390   2.981   4.056   5.110  0.2095 -0.1060  0.4233
   52MOL    C6911391   2.950   4.177   5.203 -0.6691  0.0099  0.1355
   52MOL    O7011392   2.833   4.221   5.215 -0.3404  0.4162 -0.1405
   52MOL    C7111393   3.064   4.258   5.270  0.1800 -0.0837  0.6070
   52MOL    C7211394   2.854   3.990   5.049 -0.2863 -0.8269  0.3586
   52MOL    H7311395   3.034   4.110   5.031 -1.7456  1.1155 -0.0870
   52MOL    H7411396   3.026   4.285   5.369 -0.1114 -0.0016  0.4708
   52MOL    H7511397   3.158   4.203   5.277  0.9883  0.9591 -1.6305
   52MOL    H7611398   3.083   4.351   5.216  0.2185  0.1881  1.0838
   52MOL    H7711399   2.776   4.061   5.023 -0.3316 -0.5216  1.2930
   52MOL    H7811400   2.814   3.925   5.126 -2.6849 -1.7399 -1.6162
   52MOL    C7911401   2.881   3.907   4.917 -0.3262 -0.1400 -0.1228
   52MOL    C8011402   2.904   4.004   4.800  0.1434 -0.1096  0.9515
   52MOL    O8111403   2.807   4.079   4.777 -0.5338  0.1098  0.0972
   52MOL    C8211404   3.017   3.990   4.701 -0.1485  0.9501  0.5260
   52MOL    C8311405   2.752   3.817   4.894 -0.2119 -0.3237 -0.3447
   52MOL    H8411406   2.966   3.839   4.916  1.5147  2.0414  1.7914
   52MOL    H8511407   3.020   3.888   4.662  1.2518  1.4281 -0.6936
   52MOL    H8611408   2.992   4.063   4.624  1.5183  0.1915 -0.7546
   52MOL    H8711409   3.110   4.030   4.740  0.3789 -1.5084  1.8575
   52MOL    H8811410   2.670   3.888   4.906 -0.6690 -0.7951 -0.6709
   52MOL    H8911411   2.753   3.744   4.974  0.9166  1.6775  1.5097
   52MOL    C9011412   2.742   3.749   4.753 -0.2168 -0.6320  0.0716
   52MOL    C9111413   2.607   3.772   4.682  0.8123 -0.1065  0.3558
   52MOL    O9211414   2.506   3.709   4.712 -0.3408  0.0670 -0.1994
   52MOL    C9311415   2.598   3.881   4.575  0.9102 -0.1985  0.5413
   52MOL    C9411416   2.760   3.596   4.756 -0.1315 -1.0047  0.0241
   52MOL    H9511417   2.814   3.790   4.681 -0.9647 -0.8297 -0.7953
   52MOL    H9611418   2.615   3.975   4.628 -1.1707  2.1107 -2.6961
   52MOL    H9711419   2.680   3.870   4.504  0.5103  0.0844  0.0332
   52MOL    H9811420   2.499   3.879   4.529 -1.3627  0.4635  5.1079
   52MOL    H9911421   2.703   3.546   4.678 -0.9493 -0.7540  0.4567
   52MOL   H10011422   2.718   3.564   4.852 -2.8451 -0.0153 -0.7913
   52MOL   C10111423   2.909   3.541   4.759  0.2083 -0.1526  0.1050
   52MOL   C10211424   2.962   3.534   4.619 -0.7215 -0.1501  0.0081
   52MOL   O10311425   2.891   3.568   4.523 -0.2594  0.5231  0.0101
   52MOL   C10411426   3.114   3.517   4.609  0.3104 -0.1441 -0.1175
   52MOL   C10511427   2.916   3.416   4.848 -0.0983  0.5096  0.6654
   52MOL   H10611428   2.963   3.613   4.820 -0.7141  1.4969 -0.9692
   52MOL   H10711429   3.151   3.446   4.536  3.3913  1.2891 -0.0452
   52MOL   H10811430   3.156   3.617   4.592 -0.1478  0.5038  2.3337
   52MOL   H10911431   3.141   3.479   4.708  1.9983 -0.8309 -0.8170
   52MOL   H11011432   2.982   3.346   4.798 -0.5028 -1.4617  2.7868
   52MOL   H11111433   2.820   3.365   4.841  0.0631  0.2605  0.2364
   52MOL   C11211434   2.955   3.440   4.992 -0.1247 -0.3073  0.7451
   52MOL   C11311435   3.107   3.452   5.020  0.8978  0.4269 -0.2791
   52MOL   O11411436   3.197   3.417   4.946  0.1185  0.5719 -0.0252
   52MOL   C11511437   3.143   3.518   5.155 -0.6386 -0.6942 -0.0288
   52MOL   C11611438   2.900   3.323   5.081  0.3176  0.2095  0.2435
   52MOL   H11711439   2.902   3.530   5.023  0.0886  0.1188 -0.1208
   52MOL   H11811440   3.045   3.548   5.193  0.5656  1.3133  1.5735
   52MOL   H11911441   3.177   3.440   5.223 -0.3833 -1.2208 -0.7509
   52MOL   H12011442   3.223   3.590   5.143 -0.7715 -0.7172 -1.1393
   52MOL   H12111443   2.791   3.320   5.083  0.3024  0.3768 -0.2210
   52MOL   H12211444   2.929   3.359   5.179 -1.4061 -1.7683  1.5169
   52MOL   C12311445   2.954   3.174   5.062 -0.3678 -0.0133  0.3144
   52MOL   C12411446   2.924   3.112   4.923  0.3720 -0.4991 -0.0235
   52MOL   O12511447   2.812   3.113   4.875  0.1917 -0.8685 -0.4701
   52MOL   C12611448   3.045   3.071   4.829  0.7080 -0.1588  0.0020
   52MOL   C12711449   2.908   3.073   5.179 -0.4624 -0.2817  0.0156
   52MOL   H12811450   3.063   3.178   5.058 -0.3736  0.9412  1.0190
   52MOL   H12911451   3.081   2.975   4.866  0.9694  0.0126  0.1936
   52MOL   H13011452   3.026   3.061   4.722 -0.4778  1.4904  0.0299
   52MOL   H13111453   3.130   3.139   4.827  0.8364 -0.2907  0.9510
   52MOL   H13211454   2.800   3.061   5.164 -0.3868 -1.3692  0.2753
   52MOL   H13311455   2.913   3.127   5.273 -0.2169 -0.2762 -0.0024
   52MOL   C13411456   2.977   2.937   5.188  0.2437  0.1812  0.0912
   52MOL   C13511457   2.890   2.847   5.282  0.4472  0.0563  1.2361
   52MOL   O13611458   2.934   2.831   5.396  0.1619  0.3264  0.7319
   52MOL   C13711459   2.758   2.784   5.232 -0.6278  0.8335  0.3883
   52MOL   C13811460   3.123   2.949   5.224 -0.4801  0.3354  1.0046
   52MOL   H13911461   2.964   2.875   5.100  0.5954  0.4106 -0.1250
   52MOL   H14011462   2.773   2.680   5.204 -0.0580  0.7845  0.8831
   52MOL   H14111463   2.691   2.786   5.318  0.3949 -0.0196  1.2117
   52MOL   H14211464   2.714   2.841   5.149 -0.3074  0.0451 -0.3307
   52MOL   H14311465   3.126   2.966   5.332  0.7032 -2.0226  1.3798
   52MOL   H14411466   3.166   3.036   5.175  0.7335  0.1852  1.7802
   52MOL   C14511467   3.211   2.817   5.176 -0.1640 -0.0232 -0.1265
   52MOL   C14611468   3.188   2.679   5.249 -0.3192 -0.1632 -0.1256
   52MOL   O14711469   3.247   2.652   5.354  0.1560  0.4570  0.4610
   52MOL   C14811470   3.095   2.588   5.174  0.0450  0.6808  0.5263
   52MOL   C14911471   3.363   2.848   5.175 -0.7845 -0.1237  0.3260
   52MOL   H15011472   3.176   2.803   5.074 -1.4152  0.0024  0.2990
   52MOL   H15111473   3.130   2.568   5.073  1.7750 -0.5861  1.3521
   52MOL   H15211474   3.083   2.490   5.221  2.0256  0.0091 -0.3206
   52MOL   H15311475   2.998   2.635   5.162  0.5921  1.4726 -0.8180
   52MOL   H15411476   3.421   2.808   5.258  1.9251 -0.2521 -1.5672
   52MOL   H15511477   3.371   2.957   5.175 -0.0451 -0.1345 -2.3495
   52MOL   C15611478   3.427   2.816   5.035  0.2636 -0.1622 -0.1826
   52MOL   C15711479   3.407   2.663   4.991  0.5852  0.1922  0.1992
   52MOL   O15811480   3.329   2.623   4.903 -0.3288 -0.0384 -0.4019
   52MOL   C15911481   3.491   2.556   5.061 -0.3084 -0.3839  0.0508
   52MOL   C16011482   3.584   2.853   5.022  0.6155 -0.0546 -0.2047
   52MOL   H16111483   3.363   2.870   4.966  0.2346 -1.8279 -1.4979
   52MOL   H16211484   3.597   2.578   5.055 -0.5018  0.4630 -0.2948
   52MOL   H16311485   3.472   2.551   5.169  3.4618 -1.6496  0.7102
   52MOL   H16411486   3.473   2.453   5.028  0.3217 -0.3837 -0.2982
   52MOL   H16511487   3.615   2.805   4.929 -0.9895 -0.6523 -0.4390
   52MOL   H16611488   3.637   2.803   5.103 -1.0226 -0.7319  0.4584
   52MOL   C16711489   3.631   3.001   5.023  0.5884  0.3382  0.6361
   52MOL   C16811490   3.568   3.085   4.905  0.3248  0.3277 -0.1772
   52MOL   O16911491   3.637   3.117   4.803  0.6526 -0.1762  0.4161
   52MOL   C17011492   3.425   3.127   4.911 -0.5197  0.0615  0.2695
   52MOL   C17111493   3.786   3.021   5.022  0.8508 -0.2004  0.4202
   52MOL   H17211494   3.585   3.036   5.116 -0.5472 -0.8696  0.5417
   52MOL   H17311495   3.403   3.226   4.872  0.4409  0.2636  0.2243
   52MOL   H17411496   3.367   3.058   4.850 -2.4764 -0.0340  2.1738
   52MOL   H17511497   3.391   3.120   5.014  1.3314 -1.3917  0.8034
   52MOL   H17611498   3.826   2.977   4.931 -1.8792  1.1999 -1.5385
   52MOL   H17711499   3.822   2.964   5.108 -0.3034 -1.0052  0.3835
   52MOL   C17811500   3.847   3.162   5.044 -1.1035  0.1752 -0.7129
   52MOL   C17911501   3.988   3.163   4.983  0.2022 -0.7984 -0.6685
   52MOL   O18011502   4.074   3.097   5.038 -0.2081 -0.1267 -0.1719
   52MOL   C18111503   4.009   3.244   4.859  0.2334 -0.5072 -0.0482
   52MOL   C18211504   3.844   3.212   5.196 -0.7757  0.5266 -0.1522
   52MOL   H18311505   3.785   3.228   4.983 -1.4343  0.6830  0.1579
   52MOL   H18411506   3.915   3.259   4.807 -0.6454  1.8868  2.1220
   52MOL   H18511507   4.056   3.339   4.885  1.8438 -1.0514 -0.8633
   52MOL   H18611508   4.080   3.195   4.792 -0.1245 -1.6694  0.4063
   52MOL   H18711509   3.930   3.173   5.251 -0.1290 -0.5795 -1.9162
   52MOL   H18811510   3.767   3.155   5.249  1.2299 -0.6169  1.6368
   52MOL   C18911511   3.812   3.362   5.228  0.2892 -0.0844  0.7144
   52MOL   C19011512   3.686   3.412   5.154 -0.9784 -0.1966 -0.4660
   52MOL   O19111513   3.696   3.476   5.050 -0.8407 -0.4601 -0.3149
   52MOL   C19211514   3.553   3.364   5.191 -0.4706  0.5378 -0.3228
   52MOL   C19311515   3.932   3.460   5.188 -0.2403  0.0159  0.5080
   52MOL   H19411516   3.792   3.373   5.335  1.0154  1.8496  0.6924
   52MOL   H19511517   3.538   3.349   5.298 -1.7073  0.6400 -0.4768
   52MOL   H19611518   3.473   3.419   5.140 -1.0917  0.4116  0.4993
   52MOL   H19711519   3.548   3.259   5.162  0.0898  0.2311  0.6490
   52MOL   H19811520   3.913   3.566   5.199 -1.0956 -0.2716  1.8054
   52MOL   H19911521   3.947   3.459   5.080 -0.1258  2.4128  0.4734
   52MOL   C20011522   4.060   3.430   5.259 -0.1772 -0.5710  0.7173
   52MOL   C20111523   4.051   3.452   5.413 -0.8046 -0.2897 -0.0608
   52MOL   O20211524   4.067   3.358   5.486  0.4325  0.3251  0.4656
   52MOL   C20311525   4.046   3.591   5.474  0.6095  0.2332 -0.7510
   52MOL   C20411526   4.187   3.498   5.186  0.0407  0.3131 -0.4136
   52MOL   H20511527   4.082   3.325   5.238 -2.1201 -0.7592 -0.4753
   52MOL   H20611528   4.045   3.605   5.583  3.7348 -1.1397 -0.5040
   52MOL   H20711529   4.119   3.660   5.433  0.4542 -0.4112 -2.1375
   52MOL   H20811530   3.952   3.629   5.434  1.2588  1.2818 -1.2875
   52MOL   H20911531   4.199   3.603   5.212  0.2774  0.0955  0.3667
   52MOL   H21011532   4.173   3.499   5.078  1.2924 -0.6294 -0.5988
   52MOL   C21111533   4.316   3.422   5.230  0.2473 -0.5343 -0.1542
   52MOL   C21211534   4.439   3.515   5.239  0.0520  0.2796  0.5803
   52MOL   O21311535   4.504   3.543   5.138 -0.7495  0.1295  0.3923
   52MOL   C21411536   4.479   3.572   5.370  0.2536  0.3534 -0.1327
   52MOL   C21511537   4.337   3.297   5.141 -0.5454  0.1779  0.5965
   52MOL   H21611538   4.292   3.397   5.334  1.1156  0.8738  0.3928
   52MOL   H21711539   4.562   3.642   5.360  1.0286 -0.7936 -1.8909
   52MOL   H21811540   4.395   3.615   5.426 -1.3632  1.5837 -3.3951
   52MOL   H21911541   4.509   3.482   5.424 -0.2567 -0.0899 -0.5843
   52MOL   H22011542   4.444   3.274   5.141 -1.0601 -2.5985 -2.4414
   52MOL   H22111543   4.315   3.318   5.036 -1.6987 -0.2800  0.7472
   52MOL   H22211544   4.286   3.206   5.174 -1.4159  0.3534 -0.2471
   53MOL     C111545   4.016   4.251   7.812 -0.0884 -0.7808 -0.5400
   53MOL     C211546   3.904   4.351   7.801  0.8691 -0.4433 -0.0146
   53MOL     O311547   3.866   4.426   0.049  0.5862 -0.5002 -0.4530
   53MOL     C411548   3.832   4.353   7.668 -0.3302 -0.4730  0.1770
   53MOL     C511549   4.059   4.216   0.115 -0.4018 -0.4479 -0.0036
   53MOL     H611550   3.997   4.156   7.761 -1.8396  0.2266 -1.8275
   53MOL     H711551   3.889   4.400   7.588 -0.2222 -1.3155 -0.2491
   53MOL     H811552   3.809   4.251   7.638 -3.0242 -1.2303  4.3609
   53MOL     H911553   3.736   4.405   7.673 -0.1683 -0.3269  1.9987
   53MOL    H1011554   3.983   4.143   0.145 -0.2999 -0.6687 -0.2704
   53MOL    H1111555   4.052   4.292   0.192 -1.2797 -0.9432  0.4183
   53MOL    H1211556   4.098   4.294   7.756 -0.0340  0.0354  0.1544
   53MOL    C1311557   4.200   4.160   0.135 -0.0386 -0.2031 -0.3238
   53MOL    C1411558   4.304   4.264   0.087 -0.1712  0.4224 -0.3299
   53MOL    O1511559   4.316   4.294   7.811  0.2561  0.1456 -0.2219
   53MOL    C1611560   4.411   4.301   0.192  0.6422  0.6674 -0.3725
   53MOL    C1711561   4.216   4.023   0.060  0.1369 -0.9345 -0.1017
   53MOL    H1811562   4.207   4.155   0.244  1.5649  0.2738 -0.3951
   53MOL    H1911563   4.431   4.233   0.274 -1.5670  0.6089  0.1558
   53MOL    H2011564   4.501   4.325   0.135 -1.3164  2.0630 -3.0388
   53MOL    H2111565   4.376   4.391   0.242  1.4102  0.0555  1.2857
   53MOL    H2211566   4.232   4.034   7.795  0.2586 -0.3740 -0.0263
   53MOL    H2311567   4.120   3.972   0.071 -0.2280 -0.2636 -0.1189
   53MOL    C2411568   4.322   3.941   0.131  0.0198  0.4197  0.0592
   53MOL    C2511569   4.455   3.915   0.049  0.3698 -0.0645 -0.0224
   53MOL    O2611570   4.460   3.837   7.796 -0.1069  0.3868  0.0567
   53MOL    C2711571   4.574   3.993   0.103 -1.1869 -0.0535 -0.0100
   53MOL    C2811572   4.267   3.799   0.174 -0.1262  0.0341 -0.6731
   53MOL    H2911573   4.348   3.987   0.226 -0.8051 -1.8015  1.4121
   53MOL    H3011574   4.590   3.941   0.198  1.1737 -0.0048 -0.3454
   53MOL    H3111575   4.666   3.974   0.047 -0.1595 -1.2506  2.0320
   53MOL    H3211576   4.567   4.100   0.118 -1.7740 -0.2749  1.3251
   53MOL    H3311577   4.225   3.755   0.084  0.6529  1.3861 -1.7159
   53MOL    H3411578   4.183   3.813   0.242  0.5528  0.3537  0.1186
   53MOL    C3511579   4.376   3.702   0.231  0.3770 -0.1322 -0.4131
   53MOL    C3611580   4.308   3.563   0.246  0.0041 -0.1613  0.4120
   53MOL    O3711581   4.285   3.505   0.353  0.0557  0.0450 -0.0789
   53MOL    C3811582   4.283   3.496   0.116 -0.8980 -0.3006 -0.3389
   53MOL    C3911583   4.442   3.749   0.362  1.3162  0.3422  0.2070
   53MOL    H4011584   4.446   3.678   0.151 -0.7539 -2.5252 -0.7157
   53MOL    H4111585   4.361   3.527   0.047  0.4531  0.9370  1.6809
   53MOL    H4211586   4.295   3.388   0.124  2.8980 -0.0325 -1.5574
   53MOL    H4311587   4.186   3.523   0.073 -0.9998 -1.2815 -0.7375
   53MOL    H4411588   4.361   3.760   0.434 -0.4805  0.0096 -1.7057
   53MOL    H4511589   4.475   3.850   0.341  1.6795  0.1588 -0.1012
   53MOL    C4611590   4.559   3.663   0.419 -0.5689  0.2699 -0.8687
   53MOL    C4711591   4.576   3.669   0.571  0.7016 -0.7956  0.1993
   53MOL    O4811592   4.680   3.713   0.629 -0.4256  0.7828 -0.1036
   53MOL    C4911593   4.461   3.613   0.658 -0.3030 -0.4619  0.4546
   53MOL    C5011594   4.692   3.695   0.342  0.3417 -0.3201 -0.3956
   53MOL    H5111595   4.533   3.558   0.408  1.5697 -0.3483 -0.2009
   53MOL    H5211596   4.478   3.513   0.698 -0.0663 -0.4274  0.4397
   53MOL    H5311597   4.444   3.679   0.743 -1.5964 -1.4184  0.9582
   53MOL    H5411598   4.368   3.613   0.602 -1.1035  3.4597  1.6258
   53MOL    H5511599   4.710   3.801   0.360  0.2717 -0.0109 -2.0681
   53MOL    H5611600   4.660   3.684   0.238  0.0318  1.8313 -0.5613
   53MOL    C5711601   4.821   3.614   0.364 -0.2363  0.5176 -0.7528
   53MOL    C5811602   4.933   3.658   0.267 -0.3794  0.0067  0.1378
   53MOL    O5911603   4.909   3.697   0.153 -0.4708  0.2246  0.3367
   53MOL    C6011604   5.076   3.651   0.309 -1.5508  0.5401 -0.4067
   53MOL    C6111605   4.814   3.462   0.375 -0.0912 -0.0205 -0.2365
   53MOL    H6211606   4.859   3.645   0.461  1.8957 -1.0146 -1.0600
   53MOL    H6311607   5.105   3.555   0.351 -0.3197  1.7534  1.5571
   53MOL    H6411608   5.146   3.658   0.225 -1.1715 -0.1935 -0.1553
   53MOL    H6511609   5.108   3.729   0.378 -0.5226  0.4296 -0.7498
   53MOL    H6611610   4.738   3.436   0.449 -1.3076 -0.9947 -1.8107
   53MOL    H6711611   4.913   3.433   0.411  0.0379 -1.4744 -1.7133
   53MOL    C6811612   4.793   3.389   0.239 -0.7535 -0.5195  0.0151
   53MOL    C6911613   4.643   3.370   0.204  0.5773  0.6427 -0.2473
   53MOL    O7011614   4.582   3.420   0.111 -0.5840  0.4733 -0.4094
   53MOL    C7111615   4.563   3.268   0.286 -0.2560  0.3118  0.6105
   53MOL    C7211616   4.870   3.252   0.239  0.1536 -0.4582  0.5343
   53MOL    H7311617   4.822   3.451   0.154 -0.2679 -2.2578 -1.0881
   53MOL    H7411618   4.619   3.199   0.350 -0.1083  0.2441  0.4059
   53MOL    H7511619   4.508   3.332   0.354  0.5167 -1.0390  2.5663
   53MOL    H7611620   4.501   3.213   0.216 -0.7387  0.7356  0.7056
   53MOL    H7711621   4.796   3.173   0.255 -0.6705  0.0098 -0.8410
   53MOL    H7811622   4.941   3.241   0.321 -0.7371 -1.0385  1.2415
   53MOL    C7911623   4.957   3.232   0.108 -0.1687  0.2880 -0.6431
   53MOL    C8011624   4.971   3.082   0.089 -0.7586  0.4334 -1.3447
   53MOL    O8111625   5.067   3.025   0.138 -0.1248  0.6886 -0.0400
   53MOL    C8211626   4.859   3.008   0.017 -0.2790 -0.0417 -0.5002
   53MOL    C8311627   5.099   3.302   0.114  0.1782 -0.0682 -0.1022
   53MOL    H8411628   4.886   3.264   0.031  0.2157 -0.2110 -1.2087
   53MOL    H8511629   4.821   2.925   0.076 -0.3756  0.2829 -0.1026
   53MOL    H8611630   4.769   3.070   0.021 -0.4947 -0.4798  1.8193
   53MOL    H8711631   4.906   2.975   7.766 -0.2924  1.1528 -0.9484
   53MOL    H8811632   5.171   3.231   0.154  1.2496  0.1582 -1.5912
   53MOL    H8911633   5.105   3.390   0.177  1.4623 -0.1957 -0.0223
   53MOL    C9011634   5.154   3.320   7.809  0.2100  0.3141  0.4091
   53MOL    C9111635   5.303   3.355   7.818 -0.4690  0.0231 -0.4069
   53MOL    O9211636   5.341   3.468   7.834  0.5804 -0.1708 -0.1862
   53MOL    C9311637   5.398   3.238   7.817 -0.6400 -0.1096 -1.1180
   53MOL    C9411638   5.071   3.442   7.736 -0.8210  0.0576  0.3585
   53MOL    H9511639   5.148   3.235   7.742  0.8394  1.0640 -0.5971
   53MOL    H9611640   5.489   3.266   0.029 -0.6847 -0.4258 -0.8823
   53MOL    H9711641   5.354   3.152   0.025 -1.1963  0.7928 -0.0457
   53MOL    H9811642   5.418   3.205   7.715 -0.5538 -2.6692 -0.3022
   53MOL    H9911643   5.141   3.500   7.676 -0.5253 -0.4463  0.2176
   53MOL   H10011644   5.031   3.515   7.806  0.4958 -0.2587  1.4696
   53MOL   C10111645   4.957   3.386   7.643  0.4400 -0.0780  0.6899
   53MOL   C10211646   5.027   3.335   7.519 -0.0554  0.1343  0.4601
   53MOL   O10311647   5.086   3.413   7.446 -0.7837 -0.0966 -0.7039
   53MOL   C10411648   5.013   3.189   7.484  0.1024 -0.4683 -0.3783
   53MOL   C10511649   4.845   3.490   7.611  0.1297  0.2794  0.0774
   53MOL   H10611650   4.922   3.294   7.690  0.5469 -1.1380 -1.2523
   53MOL   H10711651   5.086   3.137   7.545 -0.9328 -1.0431  0.3889
   53MOL   H10811652   4.908   3.157   7.489 -0.6697  1.8959 -0.7661
   53MOL   H10911653   5.042   3.173   7.380 -2.8015  0.4318 -1.3816
   53MOL   H11011654   4.889   3.545   7.528  0.7002 -0.7029 -0.2721
   53MOL   H11111655   4.828   3.560   7.693  0.5405  0.6565 -0.1576
   53MOL   C11211656   4.704   3.432   7.562 -0.0430  0.8042 -0.0235
   53MOL   C11311657   4.646   3.321   7.649 -0.2442  0.1941 -0.0814
   53MOL   O11411658   4.707   3.224   7.681  0.2050  0.2964 -0.2983
   53MOL   C11511659   4.501   3.324   7.677  0.0090 -0.7526 -0.2892
   53MOL   C11611660   4.693   3.383   7.419  0.2482  0.1971  0.0639
   53MOL   H11711661   4.628   3.509   7.568  0.5367  1.3984 -0.2995
   53MOL   H11811662   4.460   3.284   7.584 -0.2456 -1.4828  0.1354
   53MOL   H11911663   4.474   3.253   7.755 -1.0499  0.6144  0.6043
   53MOL   H12011664   4.459   3.421   7.702 -0.3007 -1.2112  1.0101
   53MOL   H12111665   4.593   3.351   7.390  0.0097  1.4240 -0.5067
   53MOL   H12211666   4.760   3.299   7.400  0.5400  0.8664 -1.9605
   53MOL   C12311667   4.742   3.483   7.305  0.5728  0.1124  0.1116
   53MOL   C12411668   4.648   3.599   7.282  1.2397 -0.1998 -0.3390
   53MOL   O12511669   4.529   3.601   7.329 -0.3786 -0.0316  0.4047
   53MOL   C12611670   4.700   3.724   7.213 -0.0362 -0.2703 -0.2472
   53MOL   C12711671   4.793   3.423   7.173  0.1708 -0.2648  0.3815
   53MOL   H12811672   4.831   3.537   7.337 -0.3148 -0.2521  3.2764
   53MOL   H12911673   4.642   3.762   7.128 -0.4129 -0.5489 -0.1127
   53MOL   H13011674   4.698   3.808   7.283 -1.3151 -0.2262 -0.3146
   53MOL   H13111675   4.805   3.708   7.187  0.1281 -1.7005  1.2610
   53MOL   H13211676   4.863   3.342   7.197  0.0431 -0.3601  0.4343
   53MOL   H13311677   4.870   3.489   7.134  1.6248 -3.1235 -1.8385
   53MOL   C13411678   4.692   3.384   7.057 -0.1102 -0.4071 -0.1585
   53MOL   C13511679   4.603   3.270   7.087 -0.3632 -0.3885  1.0914
   53MOL   O13611680   4.618   3.193   7.180 -0.2381 -0.1978  0.7410
   53MOL   C13711681   4.475   3.271   7.013 -0.3902  0.1846 -0.5841
   53MOL   C13811682   4.761   3.386   6.919 -0.0667 -0.3297  0.1011
   53MOL   H13911683   4.630   3.473   7.047 -0.8249 -1.0119 -1.1622
   53MOL   H14011684   4.394   3.307   7.077  0.6543  2.8974 -0.7500
   53MOL   H14111685   4.474   3.330   6.922  2.6334  0.9417 -0.1523
   53MOL   H14211686   4.445   3.170   6.984 -1.8510  0.6474 -0.7193
   53MOL   H14311687   4.827   3.473   6.913 -0.2574 -0.0767  1.4654
   53MOL   H14411688   4.687   3.407   6.841  0.3349 -2.0059 -0.7648
   53MOL   C14511689   4.832   3.253   6.878  0.0017 -0.2354 -0.1588
   53MOL   C14611690   4.940   3.206   6.976 -0.6979  0.7574 -0.2429
   53MOL   O14711691   5.036   3.275   7.012 -0.6821  0.4092 -0.0046
   53MOL   C14811692   4.920   3.071   7.031 -0.3197  1.2169 -0.0729
   53MOL   C14911693   4.876   3.273   6.729 -0.6461 -0.7312 -0.5198
   53MOL   H15011694   4.763   3.168   6.875  1.2201 -1.1942 -2.6487
   53MOL   H15111695   4.821   3.059   7.075 -0.9227 -1.0427 -1.9542
   53MOL   H15211696   4.924   3.000   6.949 -2.4462  1.8720 -0.7850
   53MOL   H15311697   4.987   3.051   7.115 -0.1303  0.2065 -0.4673
   53MOL   H15411698   4.971   3.220   6.718 -0.7266 -1.1399  0.6901
   53MOL   H15511699   4.912   3.376   6.725  0.9612 -1.2288  0.8203
   53MOL   C15611700   4.772   3.236   6.621 -0.2023  0.2974  0.5220
   53MOL   C15711701   4.750   3.086   6.598 -0.3137 -0.7465 -0.7467
   53MOL   O15811702   4.818   3.017   6.520 -0.4171 -0.5299  0.0646
   53MOL   C15911703   4.638   3.012   6.674 -0.9312 -0.1033  0.4401
   53MOL   C16011704   4.816   3.312   6.494 -0.3600 -0.0128  0.2524
   53MOL   H16111705   4.676   3.281   6.643  0.0738  0.8963  0.5068
   53MOL   H16211706   4.569   2.972   6.600 -1.3492  1.6192 -0.1218
   53MOL   H16311707   4.686   2.928   6.725  1.5503  1.1249  0.2098
   53MOL   H16411708   4.584   3.082   6.738  0.1250  1.2441 -0.1318
   53MOL   H16511709   4.768   3.273   6.404 -0.8099  0.1924  0.4027
   53MOL   H16611710   4.924   3.298   6.485 -0.4887 -0.4487 -0.6641
   53MOL   C16711711   4.788   3.462   6.478  0.5139 -0.4847  0.4652
   53MOL   C16811712   4.636   3.486   6.461 -0.1705 -0.2323  0.0705
   53MOL   O16911713   4.559   3.387   6.451  0.5152 -0.4291 -0.0537
   53MOL   C17011714   4.589   3.628   6.472  0.6419 -0.7687 -0.0319
   53MOL   C17111715   4.858   3.519   6.345 -0.0634  0.3062  0.6963
   53MOL   H17211716   4.807   3.508   6.574 -0.4866  3.1733 -1.0233
   53MOL   H17311717   4.491   3.639   6.518 -0.4141  0.0320 -2.3957
   53MOL   H17411718   4.658   3.690   6.530  1.7741 -0.4711 -1.6539
   53MOL   H17511719   4.578   3.670   6.372 -1.9755 -1.5227 -0.0768
   53MOL   H17611720   4.784   3.580   6.293  0.7220  0.5836 -0.1018
   53MOL   H17711721   4.877   3.437   6.276 -0.3918  2.0172 -1.5054
   53MOL   C17811722   4.985   3.607   6.370  1.0950 -0.5215 -0.7804
   53MOL   C17911723   4.939   3.740   6.435 -0.0879  0.3604  0.9735
   53MOL   O18011724   4.882   3.825   6.365 -0.2548  0.3756  0.2641
   53MOL   C18111725   4.969   3.770   6.577  0.2814  0.9853  0.1439
   53MOL   C18211726   5.063   3.629   6.233  0.2936  0.6987 -0.0056
   53MOL   H18311727   5.056   3.554   6.433  0.3746 -0.2011  0.3272
   53MOL   H18411728   4.997   3.676   6.625 -1.0444 -0.0881 -1.1529
   53MOL   H18511729   5.062   3.827   6.577  0.0044  1.4595 -1.1654
   53MOL   H18611730   4.884   3.822   6.621 -2.4740  0.4519 -4.1973
   53MOL   H18711731   4.989   3.679   6.172 -0.1457 -0.0935 -0.1288
   53MOL   H18811732   5.100   3.535   6.191  2.1791  0.6705  1.6267
   53MOL   C18911733   5.187   3.720   6.238  0.1866 -0.0870  0.1642
   53MOL   C19011734   5.228   3.753   6.092  0.5636  0.3015 -0.0128
   53MOL   O19111735   5.192   3.689   5.994  0.5659 -1.0314 -0.1738
   53MOL   C19211736   5.318   3.876   6.073  0.5440 -0.1362 -0.3894
   53MOL   C19311737   5.307   3.659   6.315 -0.2116 -0.0038 -0.6455
   53MOL   H19411738   5.165   3.817   6.283  2.5872  0.2162  0.7671
   53MOL   H19511739   5.276   3.971   6.104 -0.9985 -0.6589 -0.8432
   53MOL   H19611740   5.401   3.882   6.144  0.3390 -1.5306 -0.0116
   53MOL   H19711741   5.369   3.885   5.977  2.3877 -0.0549  0.5742
   53MOL   H19811742   5.397   3.690   6.263 -0.0319  0.6314  0.0297
   53MOL   H19911743   5.303   3.550   6.312 -1.6681 -0.1283  2.8894
   53MOL   C20011744   5.320   3.694   6.474 -0.1736 -0.3288 -0.2401
   53MOL   C20111745   5.342   3.849   6.490  0.0103  0.1122  0.6172
   53MOL   O20211746   5.396   3.915   6.403 -0.1931  0.2247 -0.3180
   53MOL   C20311747   5.303   3.908   6.625  0.0570 -0.2041  0.4943
   53MOL   C20411748   5.441   3.618   6.532 -0.2231 -0.0801  0.7078
   53MOL   H20511749   5.230   3.671   6.531 -0.0867  1.6314  0.7368
   53MOL   H20611750   5.392   3.963   6.656  0.3470 -0.9315  0.9513
   53MOL   H20711751   5.215   3.973   6.620  0.0620 -0.2959 -0.7715
   53MOL   H20811752   5.283   3.823   6.690  0.5419 -0.3178  0.4915
   53MOL   H20911753   5.493   3.665   6.615 -1.1295  1.3666  0.4840
   53MOL   H21011754   5.520   3.618   6.456  0.5666  0.1215  1.5242
   53MOL   C21111755   5.418   3.466   6.561 -0.6768 -0.4722 -0.2211
   53MOL   C21211756   5.296   3.430   6.650 -0.0765 -0.0978  0.1525
   53MOL   O21311757   5.218   3.509   6.698  0.1675  0.0429 -0.7635
   53MOL   C21411758   5.264   3.281   6.661 -0.4853  0.0588  0.1025
   53MOL   C21511759   5.545   3.391   6.593  0.4990 -0.3103  0.0286
   53MOL   H21611760   5.388   3.421   6.466  1.3515 -1.5615 -0.3761
   53MOL   H21711761   5.169   3.258   6.612  0.2467 -2.8438 -0.0580
   53MOL   H21811762   5.326   3.216   6.600  0.3718  1.0536 -0.0980
   53MOL   H21911763   5.266   3.248   6.765 -0.2609 -1.3020 -0.3347
   53MOL   H22011764   5.603   3.443   6.670  2.1843  0.1674 -1.5264
   53MOL   H22111765   5.601   3.378   6.500  0.3206 -1.8272  0.1244
   53MOL   H22211766   5.543   3.287   6.625  0.9880  0.3305  2.2427
   54MOL     C111767   2.900   0.483   5.592  0.2358  0.3677  0.2956
   54MOL     C211768   2.917   0.476   5.751 -0.1734  0.7149 -0.1404
   54MOL     O311769   2.965   0.373   5.801 -0.1908 -0.4399  0.0654
   54MOL     C411770   2.887   0.601   5.830 -0.0230  0.3777 -0.2053
   54MOL     C511771   3.026   0.418   5.521  0.2129 -0.5185 -0.0609
   54MOL     H611772   2.808   0.433   5.564  0.1550 -0.2990  1.7019
   54MOL     H711773   2.812   0.576   5.905  0.3376  0.7419  0.2822
   54MOL     H811774   2.975   0.630   5.887  0.4757 -1.6020  0.0546
   54MOL     H911775   2.849   0.682   5.768  0.0417  0.2836 -0.3676
   54MOL    H1011776   3.027   0.312   5.547  1.5204 -0.6504 -0.6160
   54MOL    H1111777   3.122   0.455   5.557  1.7963 -0.5532 -3.9428
   54MOL    H1211778   2.882   0.587   5.565  1.3927  0.3774 -0.4812
   54MOL    C1311779   3.032   0.432   5.367 -0.0047  0.2670 -0.4718
   54MOL    C1411780   3.121   0.316   5.302 -0.2978  0.1595 -0.1768
   54MOL    O1511781   3.239   0.334   5.259  0.4782  0.8377  0.4045
   54MOL    C1611782   3.047   0.187   5.311 -0.7881 -0.3756 -0.0409
   54MOL    C1711783   3.075   0.569   5.314 -0.7331 -0.8817  0.6946
   54MOL    H1811784   2.929   0.417   5.334  0.2606 -0.9060 -0.7741
   54MOL    H1911785   2.972   0.190   5.390 -0.2603 -1.3369  0.5077
   54MOL    H2011786   2.980   0.182   5.225 -1.1087 -2.1767  0.2786
   54MOL    H2111787   3.107   0.096   5.320 -1.1402 -0.9214 -2.8181
   54MOL    H2211788   3.112   0.542   5.215  0.1252 -0.0731  0.7918
   54MOL    H2311789   3.163   0.598   5.371  0.0002  0.9480 -1.2780
   54MOL    C2411790   2.972   0.684   5.303 -0.1734 -0.8595  0.4466
   54MOL    C2511791   2.872   0.668   5.191 -0.4742 -0.2843 -0.4143
   54MOL    O2611792   2.900   0.592   5.100  0.6265  0.1720 -0.3777
   54MOL    C2711793   2.729   0.720   5.213 -0.6805  0.4337  0.2695
   54MOL    C2811794   3.032   0.831   5.309 -0.2787  0.3386 -0.8560
   54MOL    H2911795   2.907   0.672   5.390 -2.4612 -2.5981 -1.4571
   54MOL    H3011796   2.724   0.749   5.318  1.8737 -1.1863  0.8997
   54MOL    H3111797   2.699   0.809   5.159  0.4700 -0.1048 -1.3005
   54MOL    H3211798   2.665   0.634   5.193  1.1747 -0.8631 -0.3090
   54MOL    H3311799   2.959   0.898   5.263 -1.8271 -0.0521  1.0026
   54MOL    H3411800   3.123   0.820   5.249  0.5830 -0.7964  0.6183
   54MOL    C3511801   3.076   0.895   5.444 -0.1761 -0.2468  0.2949
   54MOL    C3611802   3.170   0.806   5.523 -0.4523 -0.2451 -0.3095
   54MOL    O3711803   3.126   0.750   5.616  0.2118 -0.1157  0.1912
   54MOL    C3811804   3.313   0.792   5.472 -0.0089  0.2362 -0.1196
   54MOL    C3911805   2.954   0.943   5.520  0.3206 -0.1883 -0.1838
   54MOL    H4011806   3.140   0.981   5.429  0.5783 -0.4711  2.0925
   54MOL    H4111807   3.355   0.701   5.516  0.5022  0.6106  0.1871
   54MOL    H4211808   3.321   0.780   5.364  0.6106 -1.3908  0.0929
   54MOL    H4311809   3.370   0.876   5.513 -0.2716  1.0753 -1.4422
   54MOL    H4411810   2.879   0.866   5.534  0.0243  0.3108  1.0265
   54MOL    H4511811   2.903   1.013   5.454  1.1512  1.5814  1.0149
   54MOL    C4611812   2.993   1.018   5.650 -0.2892  0.1995 -0.5543
   54MOL    C4711813   2.880   0.995   5.754 -0.0072  0.6678 -0.0951
   54MOL    O4811814   2.765   1.008   5.720 -0.1396  0.0238 -0.6143
   54MOL    C4911815   2.919   0.954   5.895 -0.3738  0.3909 -0.2646
   54MOL    C5011816   3.020   1.171   5.641  0.0655 -0.5219  0.0453
   54MOL    H5111817   3.077   0.962   5.691 -2.5265 -1.9166  1.2629
   54MOL    H5211818   2.853   0.873   5.927 -1.6728  0.9123 -1.5886
   54MOL    H5311819   3.020   0.911   5.903  0.3657  1.8046 -1.8622
   54MOL    H5411820   2.914   1.040   5.962 -2.7288  0.9599 -1.1342
   54MOL    H5511821   3.121   1.183   5.602 -0.1107  1.8324  0.2678
   54MOL    H5611822   3.024   1.205   5.745 -1.7603  0.5322 -0.2101
   54MOL    C5711823   2.915   1.265   5.581 -0.0355 -0.3099  0.4730
   54MOL    C5811824   2.917   1.275   5.432  0.0721  0.3591 -0.1847
   54MOL    O5911825   3.031   1.283   5.376  0.9118 -0.0110 -0.0147
   54MOL    C6011826   2.788   1.292   5.360 -0.2712 -0.4045  0.3970
   54MOL    C6111827   2.931   1.408   5.626  0.4597  0.8572 -0.4352
   54MOL    H6211828   2.814   1.230   5.604 -0.2443 -0.9763 -1.3671
   54MOL    H6311829   2.756   1.395   5.378 -2.3533 -0.7235 -1.2930
   54MOL    H6411830   2.800   1.281   5.253 -0.3604 -3.7015  0.6615
   54MOL    H6511831   2.712   1.228   5.404 -2.0090  0.7656 -0.8264
   54MOL    H6611832   2.873   1.478   5.568 -0.6898  0.1648 -0.1432
   54MOL    H6711833   3.034   1.433   5.603  0.5821 -0.3959 -1.3200
   54MOL    C6811834   2.892   1.434   5.769  0.8333 -0.0096 -0.2912
   54MOL    C6911835   2.741   1.411   5.781 -0.2787  0.2742  0.5234
   54MOL    O7011836   2.662   1.477   5.722 -0.5227 -0.6770 -0.2457
   54MOL    C7111837   2.698   1.299   5.874  0.6657  0.6242 -0.5266
   54MOL    C7211838   2.934   1.588   5.805 -0.3832  0.0652 -0.0484
   54MOL    H7311839   2.940   1.365   5.839  1.8195 -0.4356 -1.3690
   54MOL    H7411840   2.789   1.253   5.912  2.1122  2.4000 -1.7461
   54MOL    H7511841   2.640   1.341   5.956  2.8539  0.7741  0.9764
   54MOL    H7611842   2.642   1.229   5.811  1.5131 -0.6293  0.1044
   54MOL    H7711843   2.894   1.661   5.735 -1.5184 -0.9760 -0.4849
   54MOL    H7811844   3.040   1.595   5.780  0.0825 -3.2904  0.7245
   54MOL    C7911845   2.911   1.633   5.953 -0.5331  0.5811 -0.4650
   54MOL    C8011846   2.758   1.666   5.987  0.9186 -0.8632 -0.1462
   54MOL    O8111847   2.692   1.595   6.063 -0.0543  0.1161 -0.4722
   54MOL    C8211848   2.703   1.806   5.958 -0.0293 -0.0096  0.8573
   54MOL    C8311849   3.004   1.747   5.989  0.6582 -0.0047 -0.1552
   54MOL    H8411850   2.939   1.553   6.021 -0.0989  1.3152  0.2228
   54MOL    H8511851   2.706   1.829   5.851  0.2460 -2.1542  0.3831
   54MOL    H8611852   2.607   1.813   6.008  0.2596  1.5645  1.2192
   54MOL    H8711853   2.769   1.876   6.010  2.7848 -2.3285  0.5984
   54MOL    H8811854   2.970   1.806   6.074 -1.8810  0.3790 -1.3975
   54MOL    H8911855   3.003   1.817   5.905 -1.2070 -3.0873 -2.8200
   54MOL    C9011856   3.149   1.701   6.031 -0.5473 -0.1362 -0.5342
   54MOL    C9111857   3.151   1.603   6.151  0.0852  0.4805 -0.4112
   54MOL    O9211858   3.187   1.485   6.134 -0.2058 -0.2248 -0.2752
   54MOL    C9311859   3.084   1.638   6.286 -0.5687  0.4087  0.5563
   54MOL    C9411860   3.230   1.832   6.054  0.0002 -0.8320 -0.0991
   54MOL    H9511861   3.192   1.643   5.950  0.8385  0.5092 -0.2857
   54MOL    H9611862   3.092   1.550   6.349 -2.7502 -0.7028 -0.6353
   54MOL    H9711863   3.143   1.719   6.328  0.7118 -0.8878  1.3063
   54MOL    H9811864   2.980   1.670   6.278 -0.9206 -0.9758 -0.6116
   54MOL    H9911865   3.188   1.874   6.146  0.5090  0.7721 -0.5805
   54MOL   H10011866   3.209   1.907   5.978 -2.2766 -0.6695  0.6627
   54MOL   C10111867   3.383   1.821   6.072  0.2020  0.4291 -0.0256
   54MOL   C10211868   3.448   1.957   6.044 -0.0006 -0.0043 -0.6835
   54MOL   O10311869   3.495   1.981   5.938 -0.0911  0.0823  0.2305
   54MOL   C10411870   3.465   2.053   6.162 -0.2065 -0.1182 -0.6484
   54MOL   C10511871   3.440   1.704   5.981  0.0746 -0.6474 -0.2841
   54MOL   H10611872   3.412   1.798   6.175 -1.0715  2.3546  0.8007
   54MOL   H10711873   3.513   2.014   6.252 -0.9743  0.3838 -0.0131
   54MOL   H10811874   3.528   2.134   6.125  0.6568 -0.4358  0.0992
   54MOL   H10911875   3.371   2.085   6.207 -0.8655 -1.6554 -0.9027
   54MOL   H11011876   3.419   1.740   5.880  1.3612 -2.1730 -1.1142
   54MOL   H11111877   3.379   1.614   5.986 -3.3443  1.6545  1.1621
   54MOL   C11211878   3.588   1.679   6.011  0.1696  0.5389 -0.1432
   54MOL   C11311879   3.668   1.666   5.880 -0.5209  0.0404  0.2694
   54MOL   O11411880   3.675   1.561   5.813  0.4595  0.4575  0.2959
   54MOL   C11511881   3.756   1.777   5.829  0.2789  0.1364  0.2466
   54MOL   C11611882   3.602   1.557   6.111  0.5567 -0.0601 -0.2356
   54MOL   H11711883   3.631   1.766   6.061  0.8208  0.5053 -0.6234
   54MOL   H11811884   3.843   1.737   5.778  0.6002 -0.5631  1.3173
   54MOL   H11911885   3.703   1.840   5.758 -0.6823  1.0056  1.7011
   54MOL   H12011886   3.792   1.844   5.907 -0.5950 -0.9497  1.6231
   54MOL   H12111887   3.620   1.463   6.058 -0.9008 -1.1067  1.0811
   54MOL   H12211888   3.505   1.539   6.157  0.6726  0.6956  0.3044
   54MOL   C12311889   3.706   1.577   6.218 -0.6473 -0.3627  0.1255
   54MOL   C12411890   3.677   1.693   6.305  0.1612 -1.0332 -0.2166
   54MOL   O12511891   3.681   1.814   6.270 -0.0605 -0.0131  0.3570
   54MOL   C12611892   3.652   1.656   6.453  0.1462  0.0955 -0.3105
   54MOL   C12711893   3.851   1.579   6.160 -0.0579 -0.4273  1.1615
   54MOL   H12811894   3.703   1.492   6.287  2.5967 -0.9291 -0.3400
   54MOL   H12911895   3.554   1.609   6.451 -0.1788  0.7636 -0.4457
   54MOL   H13011896   3.723   1.583   6.492  0.7627  2.4210  3.0782
   54MOL   H13111897   3.631   1.748   6.508  0.1532 -0.2973  0.3481
   54MOL   H13211898   3.881   1.646   6.080 -1.9264  0.4930  1.2287
   54MOL   H13311899   3.870   1.479   6.119 -0.0491 -0.7449  1.9279
   54MOL   C13411900   3.978   1.593   6.255 -0.0216  0.5802  0.8722
   54MOL   C13511901   3.984   1.510   6.381 -0.1542  0.4918 -0.1718
   54MOL   O13611902   3.985   1.553   6.497 -0.3545  0.5922  0.7658
   54MOL   C13711903   3.984   1.361   6.356 -0.0842  0.2866 -0.7095
   54MOL   C13811904   4.021   1.738   6.286  0.0750  0.4958 -0.0874
   54MOL   H13911905   4.062   1.550   6.198 -1.7221 -0.0186 -1.2653
   54MOL   H14011906   3.879   1.332   6.344 -0.0373 -1.0870  1.9415
   54MOL   H14111907   4.038   1.336   6.265  0.7088 -0.4786 -0.0364
   54MOL   H14211908   4.041   1.315   6.436 -1.0071  0.7818  0.2596
   54MOL   H14311909   4.109   1.734   6.350  1.2251  0.4196 -1.6546
   54MOL   H14411910   3.940   1.788   6.339 -0.7902 -1.0436  0.0937
   54MOL   C14511911   4.069   1.825   6.170  0.4976  0.2822  0.5841
   54MOL   C14611912   4.168   1.748   6.071  0.2939  0.1763 -0.0580
   54MOL   O14711913   4.125   1.717   5.959 -0.2722 -0.1941  0.1446
   54MOL   C14811914   4.307   1.700   6.119 -0.4932  0.3253  0.3743
   54MOL   C14911915   4.144   1.949   6.221 -0.1595 -0.1523  1.0131
   54MOL   H15011916   3.985   1.864   6.113 -2.2561 -2.3254  2.6882
   54MOL   H15111917   4.369   1.683   6.032 -1.0328 -0.0286  0.0604
   54MOL   H15211918   4.352   1.777   6.182  0.8718  0.2498 -0.5076
   54MOL   H15311919   4.294   1.606   6.172  0.0179 -0.0692 -0.2011
   54MOL   H15411920   4.206   1.989   6.141 -0.9626  3.8029  2.2617
   54MOL   H15511921   4.210   1.913   6.300 -0.8060 -0.4085  1.4336
   54MOL   C15611922   4.070   2.066   6.268  0.0452 -0.4695 -0.1865
   54MOL   C15711923   3.979   2.131   6.160  0.4051 -0.0269  0.4260
   54MOL   O15811924   4.031   2.178   6.065 -0.4422 -0.1361 -0.2490
   54MOL   C15911925   3.827   2.125   6.182 -0.1212 -0.3388 -0.1778
   54MOL   C16011926   4.165   2.169   6.337 -0.0634 -0.7664 -0.4771
   54MOL   H16111927   4.007   2.012   6.339 -0.0434 -1.3616 -0.9334
   54MOL   H16211928   3.779   2.183   6.103  1.6371  1.6651  0.1936
   54MOL   H16311929   3.795   2.022   6.164  3.4870 -1.6222  0.3719
   54MOL   H16411930   3.808   2.161   6.283  0.2599 -0.7657  0.0454
   54MOL   H16511931   4.231   2.202   6.257  0.4009 -0.5128  0.0122
   54MOL   H16611932   4.239   2.115   6.396  1.0727  1.2232 -0.0631
   54MOL   C16711933   4.117   2.292   6.415 -0.1566 -0.2205  0.5153
   54MOL   C16811934   4.023   2.251   6.531  0.2573 -0.1371 -0.0585
   54MOL   O16911935   3.905   2.246   6.515  0.1687  0.2354 -0.0041
   54MOL   C17011936   4.094   2.215   6.658  0.3942  0.2310 -0.2840
   54MOL   C17111937   4.079   2.423   6.339  0.3921  0.2272 -0.4974
   54MOL   H17211938   4.207   2.317   6.471  0.7203  1.3006 -1.5203
   54MOL   H17311939   4.022   2.154   6.711 -0.9355  1.3431 -0.7880
   54MOL   H17411940   4.187   2.161   6.640 -0.0631 -0.9329  0.7552
   54MOL   H17511941   4.110   2.306   6.716 -0.3507  1.6116 -2.1907
   54MOL   H17611942   3.972   2.414   6.319  0.3737  0.9585 -0.7354
   54MOL   H17711943   4.139   2.416   6.248  0.0885  3.2074 -0.9703
   54MOL   C17811944   4.119   2.551   6.402  0.0851  0.1708  0.3116
   54MOL   C17911945   4.049   2.590   6.532 -0.1764  0.6684  0.4060
   54MOL   O18011946   3.929   2.600   6.539 -0.3614 -0.5944  0.1377
   54MOL   C18111947   4.137   2.635   6.647 -0.0197 -0.0720 -0.3872
   54MOL   C18211948   4.127   2.676   6.302  0.8761  0.9739  0.7804
   54MOL   H18311949   4.225   2.543   6.428  0.2344  1.0468 -0.0270
   54MOL   H18411950   4.192   2.549   6.684 -0.9303 -0.3407  0.3464
   54MOL   H18511951   4.217   2.703   6.615  1.1236 -0.9391  0.5768
   54MOL   H18611952   4.088   2.684   6.731 -1.1819 -1.0731 -0.4657
   54MOL   H18711953   4.178   2.639   6.213  1.2396  1.8563  0.6215
   54MOL   H18811954   4.200   2.749   6.336  1.7567 -0.3410  1.7511
   54MOL   C18911955   3.987   2.737   6.261 -0.0084 -0.1606  0.1325
   54MOL   C19011956   3.919   2.649   6.146 -0.2844  0.1509 -0.6803
   54MOL   O19111957   3.971   2.643   6.035  0.6224  0.4505  0.0078
   54MOL   C19211958   3.805   2.550   6.180 -0.0854  0.2002  0.3596
   54MOL   C19311959   4.010   2.885   6.222  0.9391  0.0414  0.0196
   54MOL   H19411960   3.922   2.750   6.348 -0.0013 -1.6219  0.3640
   54MOL   H19511961   3.840   2.451   6.151  0.3358  0.1495  1.0410
   54MOL   H19611962   3.779   2.548   6.286 -2.6996 -1.9105 -0.2541
   54MOL   H19711963   3.710   2.565   6.128  0.7041  0.8058 -0.9275
   54MOL   H19811964   4.046   2.890   6.120 -2.0423 -0.0732 -1.0867
   54MOL   H19911965   4.091   2.928   6.280  0.8384 -0.3483  0.4543
   54MOL   C20011966   3.883   2.978   6.230 -0.6911  0.0587 -0.4974
   54MOL   C20111967   3.816   2.987   6.372 -0.4264 -0.1064  0.0497
   54MOL   O20211968   3.707   2.938   6.395  0.2108 -0.4469  0.3928
   54MOL   C20311969   3.897   3.047   6.481 -0.2434  0.4214  0.3139
   54MOL   C20411970   3.777   2.965   6.122 -0.0472  0.5904  0.0927
   54MOL   H20511971   3.919   3.080   6.218 -0.1572  0.0927  1.2369
   54MOL   H20611972   3.824   3.101   6.541 -0.6540  1.7441 -1.3325
   54MOL   H20711973   3.944   2.972   6.545 -1.1371 -1.0099 -0.6627
   54MOL   H20811974   3.953   3.130   6.440  0.6128  0.1333  0.8930
   54MOL   H20911975   3.718   2.874   6.135  0.6803  0.2587  1.1608
   54MOL   H21011976   3.829   2.956   6.027 -0.5724 -0.2831 -0.1237
   54MOL   C21111977   3.674   3.084   6.100  0.0969  0.1203 -0.2044
   54MOL   C21211978   3.565   3.040   6.002  0.0655 -0.2253  0.4628
   54MOL   O21311979   3.568   3.082   5.886  0.0096  0.1050  0.0919
   54MOL   C21411980   3.446   2.951   6.055  0.7775 -0.2163 -0.1356
   54MOL   C21511981   3.747   3.210   6.060 -0.1009 -0.2143 -0.2119
   54MOL   H21611982   3.614   3.103   6.189 -0.0925 -2.0967  0.1769
   54MOL   H21711983   3.351   3.003   6.040 -0.6898 -2.1629  2.0301
   54MOL   H21811984   3.440   2.852   6.010 -0.4999  0.0269 -0.5012
   54MOL   H21911985   3.448   2.931   6.162  1.3113  1.2148  0.1275
   54MOL   H22011986   3.795   3.263   6.143  1.0667 -2.3275  0.4832
   54MOL   H22111987   3.686   3.283   6.007  0.0376 -0.9209 -1.3466
   54MOL   H22211988   3.830   3.191   5.991  0.2251 -1.1550  0.4385
   55MOL     C111989   3.762   1.465   2.715  0.0330  0.1843 -0.3512
   55MOL     C211990   3.784   1.481   2.563  0.0493 -0.3331 -0.0050
   55MOL     O311991   3.723   1.408   2.481 -0.1194  0.3940  0.1613
   55MOL     C411992   3.899   1.562   2.505  0.1618  0.1843 -0.1870
   55MOL     C511993   3.636   1.381   2.753  0.0707  1.1172  0.1864
   55MOL     H611994   3.858   1.426   2.749  0.4642  0.7314 -0.9139
   55MOL     H711995   3.878   1.602   2.406  1.8484  1.3150 -0.1103
   55MOL     H811996   3.920   1.647   2.570 -1.0952  0.8256 -0.6107
   55MOL     H911997   3.994   1.508   2.502  0.5677  0.8427  0.6092
   55MOL    H1011998   3.659   1.278   2.728 -0.7252  1.0583 -0.3047
   55MOL    H1111999   3.554   1.407   2.686 -0.3626 -0.0306  0.2701
   55MOL    H1212000   3.757   1.563   2.763  0.4491  0.6068 -1.1646
   55MOL    C1312001   3.592   1.392   2.898 -0.2058 -0.4040 -0.5051
   55MOL    C1412002   3.550   1.536   2.943  0.3601  0.0329  0.2071
   55MOL    O1512003   3.626   1.623   2.981 -0.7341 -0.3643  0.2475
   55MOL    C1612004   3.399   1.572   2.945  0.0214  0.9682  0.1482
   55MOL    C1712005   3.707   1.333   2.997  0.3216  0.6971 -0.2609
   55MOL    H1812006   3.503   1.330   2.905 -1.4315  1.4855  1.5017
   55MOL    H1912007   3.385   1.680   2.947  0.9525  1.1471 -2.0767
   55MOL    H2012008   3.365   1.522   2.854 -1.0944  1.2481  0.3987
   55MOL    H2112009   3.346   1.528   3.030 -1.7759  0.7420 -1.0513
   55MOL    H2212010   3.807   1.374   2.982  0.4656 -0.3847 -2.3079
   55MOL    H2312011   3.729   1.231   2.968  1.5948  0.4220  1.5765
   55MOL    C2412012   3.665   1.332   3.147  0.4549 -0.3715 -0.1087
   55MOL    C2512013   3.790   1.317   3.238 -0.2953  0.6979 -0.4688
   55MOL    O2612014   3.845   1.206   3.230  0.1690 -0.1026 -0.5160
   55MOL    C2712015   3.852   1.436   3.305 -0.0680 -0.7579  0.7580
   55MOL    C2812016   3.569   1.221   3.189 -0.0095 -0.3873 -0.7456
   55MOL    H2912017   3.626   1.431   3.172  2.0121 -0.4215  2.7664
   55MOL    H3012018   3.824   1.530   3.258 -0.7254 -1.8913 -1.1938
   55MOL    H3112019   3.842   1.437   3.414 -0.5238  0.9760  0.7116
   55MOL    H3212020   3.953   1.416   3.272 -0.2040 -0.5602  0.2218
   55MOL    H3312021   3.613   1.135   3.239 -2.2041 -0.5575  0.9382
   55MOL    H3412022   3.527   1.160   3.109  1.5272 -0.8745 -1.2028
   55MOL    C3512023   3.460   1.264   3.290  0.8228 -0.3616 -0.4964
   55MOL    C3612024   3.508   1.292   3.433  0.3459  0.6236 -0.0259
   55MOL    O3712025   3.520   1.201   3.516  0.5725 -0.2569 -0.1434
   55MOL    C3812026   3.532   1.430   3.475 -0.0609  0.2058  0.2700
   55MOL    C3912027   3.346   1.159   3.293  0.2107 -0.9116 -0.7074
   55MOL    H4012028   3.417   1.359   3.256 -0.3275 -1.3410 -1.8260
   55MOL    H4112029   3.453   1.490   3.430  0.5901  2.0538  1.5554
   55MOL    H4212030   3.518   1.449   3.581  2.1841 -3.5852  1.3543
   55MOL    H4312031   3.634   1.459   3.450  0.3035 -0.2378  1.2300
   55MOL    H4412032   3.388   1.064   3.325 -1.2158 -0.7081  1.9215
   55MOL    H4512033   3.334   1.131   3.189  3.9910 -3.0516 -0.6189
   55MOL    C4612034   3.215   1.198   3.361  0.3407  0.2594  1.1258
   55MOL    C4712035   3.149   1.070   3.420 -0.2939  0.0788  0.2126
   55MOL    O4812036   3.073   1.005   3.355  0.4384 -0.2567  0.5815
   55MOL    C4912037   3.174   1.051   3.571  0.4051 -0.8326  0.3362
   55MOL    C5012038   3.119   1.282   3.263 -0.8794  0.9344  0.0712
   55MOL    H5112039   3.251   1.268   3.437  2.5259  0.9172 -0.4793
   55MOL    H5212040   3.155   1.140   3.632 -1.3661 -0.7816 -0.2647
   55MOL    H5312041   3.099   0.978   3.601 -2.0281  2.4163  2.5693
   55MOL    H5412042   3.270   1.009   3.598 -0.7309 -1.9010  2.8214
   55MOL    H5512043   3.055   1.214   3.206 -2.4706  2.9704 -0.6442
   55MOL    H5612044   3.172   1.322   3.177 -2.7661  1.4443 -0.8966
   55MOL    C5712045   3.018   1.395   3.312 -0.5375  0.4706  0.5596
   55MOL    C5812046   3.107   1.507   3.362  0.3565 -0.4224  1.2101
   55MOL    O5912047   3.201   1.544   3.287 -0.2309  0.3026 -0.2114
   55MOL    C6012048   3.082   1.560   3.500  0.1696  0.4935  0.2553
   55MOL    C6112049   2.916   1.334   3.406 -0.2337 -0.8935 -0.4866
   55MOL    H6212050   2.971   1.432   3.221 -0.9057  0.7523  0.8689
   55MOL    H6312051   2.985   1.531   3.541 -0.3655 -1.3132 -2.1520
   55MOL    H6412052   3.166   1.516   3.553 -0.1218  1.6111  1.6716
   55MOL    H6512053   3.093   1.668   3.501 -2.1087  0.7701 -0.7099
   55MOL    H6612054   2.960   1.320   3.504 -0.1805 -3.7856 -0.8590
   55MOL    H6712055   2.892   1.231   3.379 -1.2733 -0.8921  0.3970
   55MOL    C6812056   2.788   1.427   3.391  0.2305  0.0994  0.5526
   55MOL    C6912057   2.701   1.407   3.521 -0.2845 -0.1365 -0.1533
   55MOL    O7012058   2.736   1.336   3.611  0.7729  0.6603 -0.3052
   55MOL    C7112059   2.568   1.477   3.531  0.3813 -0.4162 -0.1147
   55MOL    C7212060   2.695   1.403   3.267 -0.3098  0.0451 -0.0701
   55MOL    H7312061   2.824   1.529   3.401 -0.8991  0.5260  0.3208
   55MOL    H7412062   2.553   1.460   3.637  1.2567 -1.8252 -0.1979
   55MOL    H7512063   2.570   1.586   3.527  0.7814 -0.4653 -1.8134
   55MOL    H7612064   2.486   1.440   3.470 -0.8270  1.4797  0.3073
   55MOL    H7712065   2.733   1.463   3.184  0.2222  1.9073  1.4859
   55MOL    H7812066   2.614   1.472   3.287  1.1126  0.9446  2.9146
   55MOL    C7912067   2.674   1.257   3.225 -0.1517  0.1202 -0.4824
   55MOL    C8012068   2.777   1.209   3.125 -0.0124 -0.4935 -0.6079
   55MOL    O8112069   2.843   1.288   3.059 -0.6475  0.0966 -0.3577
   55MOL    C8212070   2.804   1.062   3.117  0.5135 -0.2128 -0.0420
   55MOL    C8312071   2.531   1.225   3.181 -0.6605 -0.5499 -0.0440
   55MOL    H8412072   2.687   1.192   3.311 -1.0162  1.7613  0.9231
   55MOL    H8512073   2.801   1.022   3.219 -2.4072 -0.7067 -0.2803
   55MOL    H8612074   2.723   1.014   3.063  1.6508 -0.8371 -1.2298
   55MOL    H8712075   2.901   1.039   3.072 -0.6914 -0.0678 -2.7703
   55MOL    H8812076   2.475   1.210   3.273 -1.1258 -2.0867 -0.5608
   55MOL    H8912077   2.522   1.124   3.141 -0.5615 -0.3894 -0.4747
   55MOL    C9012078   2.463   1.332   3.083 -0.1582  0.8719  0.3308
   55MOL    C9112079   2.317   1.332   3.134  1.0433 -0.5607 -0.6070
   55MOL    O9212080   2.242   1.249   3.087  0.4694 -0.1272  0.0251
   55MOL    C9312081   2.279   1.442   3.241  0.1117 -0.7190 -0.1478
   55MOL    C9412082   2.475   1.272   2.941  0.1360 -0.7988 -0.5925
   55MOL    H9512083   2.505   1.433   3.088  0.4951  0.6394 -0.3554
   55MOL    H9612084   2.372   1.481   3.282 -0.7959  1.3090  0.0572
   55MOL    H9712085   2.211   1.515   3.197 -0.9959 -2.0664 -0.7185
   55MOL    H9812086   2.230   1.396   3.327  2.0711  0.9918  1.9447
   55MOL    H9912087   2.429   1.173   2.941 -1.0235 -0.3428  3.1944
   55MOL   H10012088   2.581   1.251   2.930  0.8068  1.3894  1.3863
   55MOL   C10112089   2.438   1.362   2.823  0.3206 -0.2442  0.1295
   55MOL   C10212090   2.527   1.486   2.814  0.3572  0.7567  0.2074
   55MOL   O10312091   2.488   1.601   2.848  0.4291  0.0533  0.3276
   55MOL   C10412092   2.670   1.463   2.773 -0.0100 -0.1246  0.9148
   55MOL   C10512093   2.294   1.379   2.808  0.3367  0.3808 -0.2136
   55MOL   H10612094   2.479   1.303   2.741 -0.6828 -2.0947  0.9422
   55MOL   H10712095   2.693   1.357   2.781  3.1553  0.4721  0.3323
   55MOL   H10812096   2.682   1.474   2.665 -4.2862  0.5559  0.4398
   55MOL   H10912097   2.747   1.529   2.813 -0.4407  1.5931 -1.0207
   55MOL   H11012098   2.247   1.440   2.885 -1.3007 -1.9512  0.7099
   55MOL   H11112099   2.249   1.280   2.812  0.5763  0.3310  1.3247
   55MOL   C11212100   2.240   1.430   2.670 -0.3204 -0.6466 -0.3308
   55MOL   C11312101   2.254   1.326   2.556 -0.0036 -0.4533  0.9636
   55MOL   O11412102   2.164   1.244   2.533 -0.2468 -0.1002  0.9135
   55MOL   C11512103   2.364   1.342   2.453  0.4341  0.0710  0.0011
   55MOL   C11612104   2.267   1.576   2.628 -0.2387  0.3256  0.4137
   55MOL   H11712105   2.131   1.427   2.668 -0.3776 -0.2648  1.1684
   55MOL   H11812106   2.417   1.254   2.416 -2.2807 -2.1720  1.2965
   55MOL   H11912107   2.319   1.392   2.367 -0.5338  0.2325  0.5999
   55MOL   H12012108   2.448   1.400   2.492  0.4407 -0.4871  0.8268
   55MOL   H12112109   2.363   1.582   2.578 -0.0805 -0.1140  0.6599
   55MOL   H12212110   2.292   1.618   2.725  0.6233 -1.0332  0.7933
   55MOL   C12312111   2.159   1.652   2.539  0.2123 -0.5819  0.4598
   55MOL   C12412112   2.156   1.589   2.396 -0.3745 -0.2624 -0.6126
   55MOL   O12512113   2.232   1.627   2.302 -0.4641 -0.2115  0.3021
   55MOL   C12612114   2.048   1.489   2.370 -0.3749  0.6386 -0.0225
   55MOL   C12712115   2.198   1.802   2.540  0.6523  0.0863  0.6616
   55MOL   H12812116   2.061   1.646   2.586 -0.2629  4.4544  0.3782
   55MOL   H12912117   1.974   1.535   2.305  0.2238  0.3255 -0.9216
   55MOL   H13012118   2.080   1.401   2.315  0.2622  0.5443  0.4929
   55MOL   H13112119   2.006   1.453   2.464 -0.0805  0.3356 -0.0061
   55MOL   H13212120   2.267   1.823   2.458  0.5265  0.4193  0.6396
   55MOL   H13312121   2.258   1.818   2.629  2.3115 -1.4115 -0.1481
   55MOL   C13412122   2.078   1.896   2.539 -0.2302  0.0000  0.1871
   55MOL   C13512123   2.043   1.926   2.395 -0.2546  0.1306  0.2342
   55MOL   O13612124   1.945   1.870   2.341 -0.0674 -0.1241 -0.2969
   55MOL   C13712125   2.132   2.007   2.300  0.4678  0.6383 -0.4603
   55MOL   C13812126   2.103   2.029   2.615  0.3410 -1.1668 -0.5603
   55MOL   H13912127   1.996   1.839   2.581  1.1826 -1.9713  0.3393
   55MOL   H14012128   2.163   2.097   2.352  0.7928  1.1093 -1.4614
   55MOL   H14112129   2.213   1.947   2.257  0.5737 -0.9257  1.8053
   55MOL   H14212130   2.093   2.050   2.208 -1.9725  0.5511  0.5040
   55MOL   H14312131   2.182   2.085   2.566  0.2973 -1.4324 -0.9325
   55MOL   H14412132   2.155   2.010   2.709  3.6556  0.7490 -1.9397
   55MOL   C14512133   1.984   2.119   2.630  0.0752  0.1678 -0.2186
   55MOL   C14612134   2.019   2.258   2.584 -0.1963  0.5918  0.2966
   55MOL   O14712135   1.953   2.315   2.499  0.3062  0.0045 -0.3007
   55MOL   C14812136   2.131   2.335   2.652  0.3327 -0.3903 -0.2403
   55MOL   C14912137   1.932   2.122   2.774 -0.6822  0.6446 -0.1466
   55MOL   H15012138   1.896   2.099   2.570 -0.1885  2.3630 -0.6002
   55MOL   H15112139   2.083   2.413   2.711  2.4214 -0.4563  1.6173
   55MOL   H15212140   2.195   2.284   2.725  0.9410 -1.1186 -1.2677
   55MOL   H15312141   2.201   2.385   2.585  0.1964 -1.5046 -1.2242
   55MOL   H15412142   1.881   2.218   2.790  1.5272  1.9307 -0.6521
   55MOL   H15512143   2.015   2.134   2.844  0.1354  1.4708 -1.2479
   55MOL   C15612144   1.833   2.003   2.815 -0.0100  0.3779  0.2468
   55MOL   C15712145   1.692   2.025   2.755  0.4358 -0.2527 -0.1533
   55MOL   O15812146   1.617   2.100   2.818  0.5369  0.1656 -0.0444
   55MOL   C15912147   1.644   1.958   2.620  0.3111 -0.2987  0.8821
   55MOL   C16012148   1.811   1.962   2.964 -0.3995 -0.4794 -0.0435
   55MOL   H16112149   1.867   1.911   2.767  1.0776 -1.1639  3.7900
   55MOL   H16212150   1.716   1.890   2.576 -0.7370 -1.8445  1.4981
   55MOL   H16312151   1.549   1.907   2.637 -0.9095  0.0963 -3.9717
   55MOL   H16412152   1.629   2.042   2.552 -1.0384 -1.1380  0.1126
   55MOL   H16512153   1.717   1.907   2.967 -0.7181  0.1058  1.8795
   55MOL   H16612154   1.805   2.058   3.016  0.5496  0.6080 -1.8911
   55MOL   C16712155   1.924   1.886   3.045  0.3264 -0.2194 -0.1616
   55MOL   C16812156   1.965   1.752   2.990 -0.3402 -0.5581  0.0906
   55MOL   O16912157   1.886   1.664   2.939 -0.4553 -0.4755 -0.3424
   55MOL   C17012158   2.112   1.720   2.995  0.2180  0.6838 -0.0176
   55MOL   C17112159   1.905   1.860   3.199 -0.2889  0.6464 -0.0848
   55MOL   H17212160   2.010   1.951   3.033 -0.2387  0.6557  0.5263
   55MOL   H17312161   2.131   1.647   2.916  0.7840 -2.1425  2.6292
   55MOL   H17412162   2.175   1.805   2.969  0.8424  1.1378  2.7809
   55MOL   H17512163   2.137   1.684   3.095 -2.2639 -0.7608  0.1301
   55MOL   H17612164   1.966   1.777   3.234 -1.9429 -1.4171 -1.9381
   55MOL   H17712165   1.801   1.837   3.219 -0.5750 -1.0217 -3.1363
   55MOL   C17812166   1.932   1.979   3.297  0.1780  0.5805  0.3720
   55MOL   C17912167   2.088   2.006   3.315  0.8604  0.0688  0.0666
   55MOL   O18012168   2.168   1.914   3.313  0.1870 -0.5014 -0.3957
   55MOL   C18112169   2.131   2.152   3.349  0.2454 -0.1955  0.0152
   55MOL   C18212170   1.863   1.967   3.429  0.6570 -0.4997 -0.0576
   55MOL   H18312171   1.895   2.072   3.253 -1.7133  0.1055  0.9422
   55MOL   H18412172   2.136   2.213   3.259  0.0751 -1.4335 -0.8437
   55MOL   H18512173   2.074   2.212   3.420  0.5514  2.8619 -2.2447
   55MOL   H18612174   2.231   2.138   3.392  0.2323 -1.2349 -0.2799
   55MOL   H18712175   1.923   2.013   3.508 -0.3057 -0.0882  0.4329
   55MOL   H18812176   1.864   1.859   3.446  1.6316 -0.1574  2.3808
   55MOL   C18912177   1.724   2.040   3.443 -0.2488  0.2054 -0.3465
   55MOL   C19012178   1.607   1.967   3.390 -0.3908  0.0746 -0.6185
   55MOL   O19112179   1.593   1.960   3.272 -0.7558 -0.1619  0.4547
   55MOL   C19212180   1.505   1.907   3.489  0.3176 -0.5138 -0.3704
   55MOL   C19312181   1.713   2.196   3.407 -0.2855  0.1530 -0.5947
   55MOL   H19412182   1.703   2.045   3.550  1.6091  0.1458  0.0532
   55MOL   H19512183   1.536   1.911   3.593  0.3030 -2.6206 -0.2576
   55MOL   H19612184   1.419   1.973   3.486  0.7825  0.0575 -3.5339
   55MOL   H19712185   1.478   1.802   3.480 -1.6403 -0.2100  1.7115
   55MOL   H19812186   1.712   2.213   3.300  0.3910 -2.4441 -1.0683
   55MOL   H19912187   1.798   2.247   3.450  0.3701  0.1589 -1.8814
   55MOL   C20012188   1.591   2.257   3.470 -0.0125 -0.2279 -0.7242
   55MOL   C20112189   1.510   2.353   3.376 -0.0357 -1.1745  0.7574
   55MOL   O20212190   1.501   2.474   3.405  0.6703 -0.3954  0.4708
   55MOL   C20312191   1.452   2.288   3.247 -0.2298 -0.5462 -0.2163
   55MOL   C20412192   1.610   2.313   3.614 -0.5257  0.9971 -0.1755
   55MOL   H20512193   1.505   2.192   3.484  0.1101  0.0171  1.3091
   55MOL   H20612194   1.507   2.316   3.157 -0.7683 -0.3145 -0.4778
   55MOL   H20712195   1.445   2.181   3.261  0.3164 -0.4933  0.4768
   55MOL   H20812196   1.353   2.328   3.227  0.5591  1.3888 -0.3666
   55MOL   H20912197   1.620   2.231   3.686  0.8877  1.2350 -0.0958
   55MOL   H21012198   1.519   2.369   3.636 -0.7210  0.2058  1.0986
   55MOL   C21112199   1.737   2.404   3.635  0.3179 -0.8969  0.5503
   55MOL   C21212200   1.874   2.338   3.668  0.0216  0.0538 -0.6503
   55MOL   O21312201   1.882   2.232   3.719  0.0926  0.4151 -0.0011
   55MOL   C21412202   2.008   2.407   3.628  1.0449 -0.7174  0.2771
   55MOL   C21512203   1.701   2.520   3.726  0.4307  0.1606 -0.0925
   55MOL   H21612204   1.762   2.456   3.542 -1.4309  0.9181  1.0621
   55MOL   H21712205   2.022   2.403   3.520  0.6710 -0.3688  0.2114
   55MOL   H21812206   1.996   2.512   3.654 -1.1339 -0.4920 -1.4473
   55MOL   H21912207   2.090   2.365   3.685  1.8492  1.0788  0.4745
   55MOL   H22012208   1.691   2.492   3.831 -0.5544 -1.4988 -0.6135
   55MOL   H22112209   1.612   2.570   3.688 -0.1080 -1.6469 -1.2675
   55MOL   H22212210   1.785   2.590   3.717  0.0822  0.4153 -1.5615
   56MOL     C112211   3.289   1.995   1.932  0.2529 -0.0652 -1.4245
   56MOL     C212212   3.435   1.971   1.993 -0.3011 -0.5226 -0.9873
   56MOL     O312213   3.460   1.883   2.074  0.8729 -0.3419 -0.6900
   56MOL     C412214   3.553   2.041   1.935  0.2645  0.0116  0.4196
   56MOL     C512215   3.194   1.873   1.960  0.0444 -0.6905 -0.0789
   56MOL     H612216   3.252   2.079   1.991 -0.6384 -1.3841 -0.1023
   56MOL     H712217   3.585   1.996   1.841 -0.4007 -1.4123  0.8602
   56MOL     H812218   3.541   2.146   1.911  0.5395  0.3435  1.7007
   56MOL     H912219   3.634   2.026   2.006  0.3347  0.7121  0.4852
   56MOL    H1012220   3.099   1.918   1.989  1.0489  0.5393  1.4035
   56MOL    H1112221   3.226   1.825   2.053 -0.9840  0.0662  0.6865
   56MOL    H1212222   3.289   2.026   1.827  0.1606  0.9270 -1.1382
   56MOL    C1312223   3.178   1.761   1.858 -0.5140 -0.2222 -0.4497
   56MOL    C1412224   3.307   1.675   1.841  0.5873 -0.3018 -0.5000
   56MOL    O1512225   3.379   1.674   1.740 -0.1385  1.0009  0.0209
   56MOL    C1612226   3.352   1.593   1.959 -0.8037 -0.4053 -0.4345
   56MOL    C1712227   3.113   1.799   1.713 -0.1392 -0.4955 -0.1779
   56MOL    H1812228   3.101   1.698   1.902 -1.4224 -0.5726 -2.5104
   56MOL    H1912229   3.283   1.522   2.005 -0.2111 -0.1760  0.8468
   56MOL    H2012230   3.437   1.527   1.939  0.0397  0.2637  0.8311
   56MOL    H2112231   3.378   1.654   2.046  0.5950 -1.0769 -0.3627
   56MOL    H2212232   3.198   1.844   1.660 -1.0799  2.0982  0.4328
   56MOL    H2312233   3.037   1.877   1.712  1.1136  0.7535 -2.5991
   56MOL    C2412234   3.063   1.675   1.649 -0.2268  0.2370 -0.2498
   56MOL    C2512235   3.063   1.688   1.496  0.1907 -0.2068  0.7704
   56MOL    O2612236   3.000   1.775   1.439 -0.4745  0.5264  0.3761
   56MOL    C2712237   3.174   1.601   1.432  0.1779  0.4841 -0.1680
   56MOL    C2812238   2.931   1.614   1.696 -0.3390 -0.2201  0.0547
   56MOL    H2912239   3.140   1.600   1.666  2.5214  3.2579  1.1394
   56MOL    H3012240   3.183   1.598   1.323 -1.8572  0.3798 -0.3580
   56MOL    H3112241   3.268   1.626   1.480  0.9116 -1.4367 -0.5389
   56MOL    H3212242   3.151   1.497   1.458 -0.1441  0.1969 -1.5250
   56MOL    H3312243   2.864   1.699   1.692 -0.1542  0.0087  1.5632
   56MOL    H3412244   2.941   1.582   1.800  0.1470 -0.6346 -0.1164
   56MOL    C3512245   2.866   1.485   1.629  0.5963 -0.0834 -0.0737
   56MOL    C3612246   2.965   1.363   1.612  0.2578 -0.3363 -0.5314
   56MOL    O3712247   3.000   1.316   1.503 -0.5169  0.1113  0.6103
   56MOL    C3812248   3.041   1.309   1.735 -0.2582 -1.0439  0.3408
   56MOL    C3912249   2.782   1.513   1.494 -0.0688 -0.4856 -0.3722
   56MOL    H4012250   2.790   1.452   1.699  0.3578 -0.5224 -0.5320
   56MOL    H4112251   3.148   1.332   1.742 -0.0533 -1.9370  0.1964
   56MOL    H4212252   3.005   1.358   1.826 -0.1227 -1.8219  0.8148
   56MOL    H4312253   3.026   1.203   1.754 -0.9065 -1.1964 -0.9545
   56MOL    H4412254   2.852   1.505   1.411  1.8172 -1.7931  1.2985
   56MOL    H4512255   2.736   1.612   1.501 -1.0215 -0.9917  0.7882
   56MOL    C4612256   2.675   1.400   1.468 -0.4446  0.0761 -0.1072
   56MOL    C4712257   2.636   1.386   1.318  0.2979 -0.4440  0.0120
   56MOL    O4812258   2.559   1.463   1.265 -0.6172 -0.5353 -0.5060
   56MOL    C4912259   2.701   1.271   1.239 -0.3398 -0.0495  0.3011
   56MOL    C5012260   2.545   1.409   1.554 -1.0180  0.0020 -0.0167
   56MOL    H5112261   2.719   1.304   1.495  0.2264  0.4259  0.0631
   56MOL    H5212262   2.623   1.195   1.238 -2.1352  1.7452 -1.7903
   56MOL    H5312263   2.746   1.306   1.146 -0.4263 -0.8960 -0.0630
   56MOL    H5412264   2.794   1.235   1.283  0.1734 -1.0340 -1.5637
   56MOL    H5512265   2.466   1.460   1.499 -0.0122  2.7730  1.0078
   56MOL    H5612266   2.575   1.474   1.636 -0.3719 -1.0275  0.5744
   56MOL    C5712267   2.487   1.280   1.607  0.6639 -0.5457 -0.1118
   56MOL    C5812268   2.567   1.236   1.730  0.0836  0.5068  0.2169
   56MOL    O5912269   2.677   1.181   1.714  0.4569 -0.1291 -0.5118
   56MOL    C6012270   2.520   1.273   1.870 -0.3797 -0.4733 -0.0116
   56MOL    C6112271   2.465   1.167   1.501 -0.5528 -0.1790 -0.1511
   56MOL    H6212272   2.386   1.300   1.644  0.0190 -0.4698 -1.8571
   56MOL    H6312273   2.606   1.276   1.938  0.7121 -0.1177 -1.3889
   56MOL    H6412274   2.458   1.362   1.877 -0.5401 -0.7352  2.1570
   56MOL    H6512275   2.456   1.190   1.897  0.3887 -1.0735 -0.0146
   56MOL    H6612276   2.565   1.139   1.468 -0.7506 -1.2776  0.1925
   56MOL    H6712277   2.430   1.206   1.405 -1.3295 -1.7019 -0.4865
   56MOL    C6812278   2.388   1.039   1.537 -0.0203 -0.0290  0.5617
   56MOL    C6912279   2.494   0.921   1.549 -0.2467  0.1593  0.1955
   56MOL    O7012280   2.545   0.879   1.443  0.0354  0.6437 -0.1407
   56MOL    C7112281   2.529   0.855   1.678 -0.1514 -0.1601 -0.0631
   56MOL    C7212282   2.278   1.024   1.423 -0.6474  0.4082 -0.2985
   56MOL    H7312283   2.329   1.058   1.627 -1.4339  1.6387 -0.6657
   56MOL    H7412284   2.435   0.861   1.734 -0.4282 -0.3096 -0.5107
   56MOL    H7512285   2.558   0.750   1.681 -1.4607 -0.5047  1.3074
   56MOL    H7612286   2.596   0.926   1.725 -2.2686  1.6123  0.3526
   56MOL    H7712287   2.339   1.000   1.336  0.8247 -0.3123  0.9080
   56MOL    H7812288   2.220   1.112   1.396 -2.1662 -0.0181  1.5044
   56MOL    C7912289   2.172   0.908   1.453  0.4243 -0.0411 -0.2319
   56MOL    C8012290   2.097   0.928   1.584  0.3069  0.5963 -0.2928
   56MOL    O8112291   2.112   0.860   1.683  0.0461  0.0600  0.3683
   56MOL    C8212292   2.000   1.048   1.587  0.0762  0.6297  0.4745
   56MOL    C8312293   2.235   0.765   1.433  0.2254  0.1528 -0.1697
   56MOL    H8412294   2.095   0.911   1.376  0.8610 -0.5713 -0.6927
   56MOL    H8512295   1.900   1.005   1.589  0.8353 -1.2349 -0.1424
   56MOL    H8612296   2.024   1.124   1.662 -0.9557 -1.6393  3.1927
   56MOL    H8712297   2.008   1.100   1.492 -0.8860  0.0165  0.0513
   56MOL    H8812298   2.266   0.727   1.530  1.5705 -2.2018 -1.4787
   56MOL    H8912299   2.328   0.772   1.376  1.4858 -2.0653  1.5354
   56MOL    C9012300   2.150   0.663   1.350 -0.9003  0.4706 -0.1600
   56MOL    C9112301   2.124   0.706   1.206 -0.0320  0.3192 -0.1369
   56MOL    O9212302   2.009   0.722   1.162 -0.3002  0.2516  0.5833
   56MOL    C9312303   2.241   0.712   1.111 -0.7866  0.2175  0.5064
   56MOL    C9412304   2.016   0.621   1.426  0.3414 -0.1110  0.5420
   56MOL    H9512305   2.208   0.574   1.327  1.1146  1.8737 -0.6597
   56MOL    H9612306   2.327   0.769   1.147 -0.5100  0.2934 -0.2546
   56MOL    H9712307   2.288   0.614   1.110 -0.7513  0.2339 -0.6595
   56MOL    H9812308   2.203   0.744   1.014  2.9488 -0.6401 -1.3303
   56MOL    H9912309   1.944   0.702   1.419  0.5285  0.0053 -0.1265
   56MOL   H10012310   2.040   0.607   1.531  1.3821 -1.4647  0.1389
   56MOL   C10112311   1.955   0.482   1.364 -0.7053  0.7762 -0.4476
   56MOL   C10212312   1.814   0.460   1.405  0.3788 -0.1287 -0.6758
   56MOL   O10312313   1.777   0.367   1.479 -0.1179 -0.2917  0.1071
   56MOL   C10412314   1.709   0.549   1.337 -0.4128  0.2252  0.2114
   56MOL   C10512315   2.045   0.369   1.411  0.4246 -0.2980  0.3637
   56MOL   H10612316   1.972   0.486   1.257 -1.0610  2.2220 -0.4663
   56MOL   H10712317   1.748   0.646   1.304  1.1802 -1.0097 -1.6541
   56MOL   H10812318   1.675   0.497   1.247 -0.8688 -0.3183  0.7012
   56MOL   H10912319   1.619   0.567   1.395 -0.6764 -0.7996  0.1335
   56MOL   H11012320   2.068   0.381   1.517 -0.3506  0.6532  0.4319
   56MOL   H11112321   2.147   0.385   1.375  1.8566 -2.4162  3.3246
   56MOL   C11212322   2.016   0.225   1.373 -0.8217  0.5176  0.0757
   56MOL   C11312323   2.115   0.122   1.434 -0.1684  0.1787  0.0220
   56MOL   O11412324   2.228   0.107   1.398 -0.0629  0.2360  0.1601
   56MOL   C11512325   2.057   0.051   1.555  0.0608  0.2109 -0.7597
   56MOL   C11612326   2.020   0.206   1.216  0.0277 -0.2720 -0.3688
   56MOL   H11712327   1.914   0.199   1.399 -0.7609 -1.3128 -1.4412
   56MOL   H11812328   2.125   0.029   1.637  1.1505  2.3437 -1.0650
   56MOL   H11912329   1.980   0.112   1.602  2.7694  2.4993  0.8863
   56MOL   H12012330   2.002   7.806   1.518  0.2018 -0.6005  0.9176
   56MOL   H12112331   2.119   0.241   1.185 -0.3502  1.4902  0.3671
   56MOL   H12212332   1.941   0.271   1.179 -0.9794 -1.4341 -0.2682
   56MOL   C12312333   2.021   0.062   1.164  0.4704 -0.6775  0.1252
   56MOL   C12412334   2.059   0.065   1.016  0.5079  0.2723 -0.0605
   56MOL   O12512335   1.974   0.059   0.931  0.0840 -0.3220  0.2865
   56MOL   C12612336   2.206   0.086   0.980 -0.6378 -0.4848  0.1593
   56MOL   C12712337   1.887   7.832   1.193 -0.0106 -0.3890 -0.1032
   56MOL   H12812338   2.104   0.000   1.200  0.0666 -1.8248 -0.8583
   56MOL   H12912339   2.210   0.162   0.902 -1.0103 -2.7274 -2.1351
   56MOL   H13012340   2.259   0.115   1.071 -1.9221  1.3586  0.3398
   56MOL   H13112341   2.253   7.837   0.942  0.3751  0.1065 -0.0216
   56MOL   H13212342   1.811   0.054   1.148  1.4286  2.7030  1.7114
   56MOL   H13312343   1.872   7.823   1.301  0.8279 -2.4438 -0.1211
   56MOL   C13412344   1.877   7.681   1.139 -0.0068  0.5376 -0.2241
   56MOL   C13512345   1.737   7.624   1.149  0.3095  0.4695  0.5221
   56MOL   O13612346   1.688   7.559   1.243  0.4327  1.3921 -0.6911
   56MOL   C13712347   1.641   7.664   1.036 -0.2074 -0.0205  1.2351
   56MOL   C13812348   1.974   7.579   1.213  0.0267  0.2753  0.2055
   56MOL   H13912349   1.908   7.674   1.034  0.6220 -0.7664  0.0396
   56MOL   H14012350   1.683   7.633   0.941 -1.5548  1.3425  0.1752
   56MOL   H14112351   1.537   7.635   1.050 -1.1107  2.1338 -0.6775
   56MOL   H14212352   1.635   7.772   1.028 -1.1520 -0.0516  1.4333
   56MOL   H14312353   1.921   7.517   1.286  0.4682 -1.6214 -1.0333
   56MOL   H14412354   2.034   7.644   1.275  0.3480  0.3572 -0.1884
   56MOL   C14512355   2.066   7.485   1.122  0.1913  0.1227 -0.4308
   56MOL   C14612356   1.981   7.370   1.063  0.0536  0.9281  0.1740
   56MOL   O14712357   1.868   7.342   1.106  0.3467  0.3126  0.1541
   56MOL   C14812358   2.044   7.295   0.944 -0.3063 -0.8300  0.4088
   56MOL   C14912359   2.197   7.430   1.196  0.3640 -0.8822  0.4892
   56MOL   H15012360   2.085   7.556   1.041 -0.3822  1.2994  0.4482
   56MOL   H15112361   1.987   7.324   0.856 -0.0447  1.8486  1.0697
   56MOL   H15212362   2.148   7.321   0.924 -0.6605  0.3138  0.0176
   56MOL   H15312363   2.050   7.188   0.962 -0.4516 -0.8418  0.3837
   56MOL   H15412364   2.257   7.516   1.225  0.5066 -1.0302  0.6352
   56MOL   H15512365   2.251   7.380   1.116  0.0665  1.1397 -1.0056
   56MOL   C15612366   2.167   7.325   1.311  0.8825 -0.2578  1.1469
   56MOL   C15712367   2.245   7.374   1.432 -0.1220 -0.2853  1.0565
   56MOL   O15812368   2.304   7.297   1.504  0.2468 -0.3572 -0.2153
   56MOL   C15912369   2.226   7.519   1.472 -0.6077 -0.1596 -0.1853
   56MOL   C16012370   2.206   7.183   1.269  0.1593  0.3123  0.1635
   56MOL   H16112371   2.063   7.322   1.344  0.9729 -0.4519  1.4208
   56MOL   H16212372   2.267   7.530   1.572  0.8436  1.7042 -0.9427
   56MOL   H16312373   2.270   7.594   1.405 -2.6654 -0.3377 -1.8102
   56MOL   H16412374   2.121   7.539   1.491 -0.3113 -1.2160  2.8313
   56MOL   H16512375   2.311   7.188   1.243 -0.1244  0.5351 -0.9918
   56MOL   H16612376   2.163   7.152   1.173 -0.0082 -0.3377  0.4482
   56MOL   C16712377   2.152   7.076   1.367  0.3449 -0.4561  0.1542
   56MOL   C16812378   2.258   6.968   1.363  0.2886  0.3281  0.0836
   56MOL   O16912379   2.243   6.858   1.306 -0.2769 -0.1146 -0.8736
   56MOL   C17012380   2.387   6.990   1.429  0.1832 -0.2904 -0.5461
   56MOL   C17112381   2.006   7.026   1.328 -0.3703  0.1394 -0.7507
   56MOL   H17212382   2.150   7.111   1.471 -2.1499 -0.7608  0.2595
   56MOL   H17312383   2.433   6.892   1.441  2.4680  1.0332  2.3202
   56MOL   H17412384   2.445   7.051   1.360  0.5535  1.6794  1.4296
   56MOL   H17512385   2.380   7.022   1.533 -1.2568 -1.6595 -0.2032
   56MOL   H17612386   2.016   6.979   1.231 -0.9098  1.0244 -1.2454
   56MOL   H17712387   1.938   7.111   1.318  0.3085  0.6252 -1.2745
   56MOL   C17812388   1.942   6.930   1.434 -0.4194 -0.4280 -0.5456
   56MOL   C17912389   1.822   6.857   1.386  0.7494 -0.1987 -0.8053
   56MOL   O18012390   1.728   6.833   1.470  0.3511 -0.1170  0.7269
   56MOL   C18112391   1.821   6.785   1.250 -0.7109 -0.1290 -0.6300
   56MOL   C18212392   1.926   7.012   1.568  0.8169  1.2368  0.0639
   56MOL   H18312393   2.010   6.850   1.462 -0.9900  0.1184  2.6219
   56MOL   H18412394   1.763   6.694   1.268 -0.0784  0.4383  5.2467
   56MOL   H18512395   1.785   6.846   1.167 -1.3046 -1.6345 -1.5105
   56MOL   H18612396   1.926   6.762   1.232 -0.7270 -1.6607  1.1191
   56MOL   H18712397   1.843   7.079   1.545 -0.5200 -0.5871 -0.4637
   56MOL   H18812398   2.003   7.084   1.596  1.5654  0.2522  0.5753
   56MOL   C18912399   1.906   6.909   1.685 -0.2753 -0.3267 -0.0566
   56MOL   C19012400   1.875   6.985   1.822 -0.6705  0.6260 -0.3065
   56MOL   O19112401   1.826   7.101   1.822  0.0259  0.0071  0.4885
   56MOL   C19212402   1.888   6.929   1.964 -0.1154  0.2811  1.0089
   56MOL   C19312403   2.016   6.800   1.700 -1.0011 -0.6222 -0.2930
   56MOL   H19412404   1.808   6.863   1.678  0.4757 -2.0548  0.5154
   56MOL   H19512405   1.873   7.009   2.036  1.6471  0.3863  1.2862
   56MOL   H19612406   1.837   6.834   1.980 -0.0916  0.2050  0.6487
   56MOL   H19712407   1.996   6.916   1.970 -0.0078  0.5697 -0.0841
   56MOL   H19812408   2.064   6.803   1.798 -0.5927 -0.3124 -0.4995
   56MOL   H19912409   2.098   6.825   1.633 -2.1822  1.3605 -1.0335
   56MOL   C20012410   1.972   6.653   1.674  0.1690 -0.6320  0.1596
   56MOL   C20112411   1.871   6.612   1.785  0.1459  0.0305  0.2939
   56MOL   O20212412   1.909   6.588   1.897 -0.1982  0.0685  0.0441
   56MOL   C20312413   1.736   6.574   1.733 -0.0521 -0.3541  0.4826
   56MOL   C20412414   2.103   6.561   1.671 -0.2247 -0.2727  0.5038
   56MOL   H20512415   1.927   6.639   1.576 -0.0377 -0.2593  0.1994
   56MOL   H20612416   1.746   6.491   1.663 -0.5455  0.6098 -0.7379
   56MOL   H20712417   1.685   6.548   1.825 -0.4390  1.5945  0.8410
   56MOL   H20812418   1.689   6.653   1.674 -1.1118  1.0628  3.1498
   56MOL   H20912419   2.078   6.455   1.681 -0.4947 -0.4129 -1.4224
   56MOL   H21012420   2.155   6.582   1.764  0.9414 -1.1783  0.0690
   56MOL   C21112421   2.203   6.559   1.550 -0.3472  0.0698 -0.1379
   56MOL   C21212422   2.124   6.519   1.427  0.1985 -0.2070  0.6822
   56MOL   O21312423   2.009   6.475   1.434 -0.2779 -0.1057  0.0322
   56MOL   C21412424   2.190   6.534   1.294 -0.7810  0.3159  0.1338
   56MOL   C21512425   2.325   6.463   1.573 -0.3241  0.2726  0.0803
   56MOL   H21612426   2.244   6.658   1.527 -0.8330  0.3219  0.0757
   56MOL   H21712427   2.287   6.580   1.312 -0.7065  0.3361 -0.3291
   56MOL   H21812428   2.190   6.447   1.228 -0.8091  1.2775 -1.1543
   56MOL   H21912429   2.135   6.613   1.243  1.5571  2.4014  0.7702
   56MOL   H22012430   2.400   6.499   1.643 -2.3253  0.4831  2.1816
   56MOL   H22112431   2.381   6.467   1.480  1.7147 -0.6326  1.2255
   56MOL   H22212432   2.279   6.366   1.594  2.7980 -1.0887  0.9760
   57MOL     C112433   2.480   3.750   6.239 -0.3133 -0.6430  0.3244
   57MOL     C212434   2.548   3.709   6.102 -0.0945  0.9857  0.2719
   57MOL     O312435   2.514   3.765   5.998 -0.3204 -0.2536 -0.3468
   57MOL     C412436   2.675   3.624   6.103 -0.6423  0.0667 -0.8988
   57MOL     C512437   2.346   3.823   6.224 -0.6972 -0.3773 -0.7426
   57MOL     H612438   2.465   3.658   6.295 -0.1993 -0.5227  0.5540
   57MOL     H712439   2.750   3.676   6.163 -1.8419  1.2183 -0.3703
   57MOL     H812440   2.643   3.535   6.157  0.4025  0.1376 -0.1526
   57MOL     H912441   2.716   3.595   6.006  0.8439 -2.8061  0.5411
   57MOL    H1012442   2.365   3.912   6.165 -1.4882  0.4151  0.1862
   57MOL    H1112443   2.327   3.870   6.321  1.1455 -1.4646  0.1852
   57MOL    H1212444   2.549   3.818   6.290  2.0506 -1.2741 -1.9411
   57MOL    C1312445   2.218   3.746   6.173 -0.4313 -0.2738  0.3296
   57MOL    C1412446   2.082   3.829   6.167  0.3593 -0.1737  0.6347
   57MOL    O1512447   1.985   3.787   6.232  0.6061 -0.0239 -0.6955
   57MOL    C1612448   2.082   3.956   6.081 -0.4207 -0.3875  1.2897
   57MOL    C1712449   2.195   3.600   6.233 -1.2976  0.3920 -0.7681
   57MOL    H1812450   2.225   3.715   6.069  1.4082  1.4529 -0.1031
   57MOL    H1912451   1.992   3.979   6.025  0.3625  3.7125  1.5337
   57MOL    H2012452   2.098   4.047   6.140  0.4368 -0.6485  1.4744
   57MOL    H2112453   2.151   3.936   5.999 -1.3731  3.0268 -0.4651
   57MOL    H2212454   2.282   3.536   6.220 -0.5807  0.8727  1.4289
   57MOL    H2312455   2.126   3.542   6.172 -3.2895  1.4064  0.4977
   57MOL    C2412456   2.151   3.581   6.384  0.1741 -0.0433 -0.0543
   57MOL    C2512457   2.246   3.626   6.494  0.1997 -0.1855 -0.3081
   57MOL    O2612458   2.355   3.572   6.500 -0.3255 -0.2273 -0.1789
   57MOL    C2712459   2.197   3.727   6.600  0.1918  0.3601 -0.3922
   57MOL    C2812460   2.121   3.432   6.394 -0.2560 -0.1794 -0.1402
   57MOL    H2912461   2.057   3.635   6.397  0.1272 -0.4350  1.2915
   57MOL    H3012462   2.256   3.816   6.621  0.4267  0.1420 -0.1283
   57MOL    H3112463   2.106   3.779   6.569  0.7423  1.7049  0.2195
   57MOL    H3212464   2.178   3.667   6.689  2.3318  0.5245  0.1909
   57MOL    H3312465   2.137   3.396   6.496 -2.4502 -0.9509 -0.0384
   57MOL    H3412466   2.179   3.365   6.330  2.4286  0.5547  1.4466
   57MOL    C3512467   1.968   3.397   6.386 -0.6388  0.3991  0.2878
   57MOL    C3612468   1.890   3.462   6.505 -0.4003 -0.1198  0.0400
   57MOL    O3712469   1.951   3.491   6.614  0.2840 -0.2069  0.4296
   57MOL    C3812470   1.741   3.487   6.474 -0.0015  0.0103 -0.4750
   57MOL    C3912471   1.935   3.249   6.367  0.4281  0.2408  0.5327
   57MOL    H4012472   1.929   3.448   6.297  1.3560  1.0911 -0.2207
   57MOL    H4112473   1.718   3.512   6.371 -0.4832  0.9037 -0.1489
   57MOL    H4212474   1.678   3.399   6.489  0.0022 -0.0368 -0.7339
   57MOL    H4312475   1.699   3.567   6.535  1.4563  1.5278 -1.4131
   57MOL    H4412476   1.831   3.238   6.397  0.0021  1.8153 -0.3206
   57MOL    H4512477   1.995   3.200   6.444  1.0762  0.1078 -0.0480
   57MOL    C4612478   1.952   3.188   6.222 -0.1086  0.2671 -0.3580
   57MOL    C4712479   1.822   3.206   6.134  0.7679  0.4171  0.5761
   57MOL    O4812480   1.737   3.113   6.136 -0.8926 -0.0928 -0.1066
   57MOL    C4912481   1.791   3.344   6.072  0.5917 -0.2303  0.1960
   57MOL    C5012482   1.990   3.039   6.244 -0.8771  0.1520 -0.5866
   57MOL    H5112483   2.037   3.232   6.170 -0.9372  1.1022 -1.0252
   57MOL    H5212484   1.756   3.401   6.158  2.8345 -0.2998  1.1934
   57MOL    H5312485   1.888   3.380   6.037  0.0789  1.0790  0.0687
   57MOL    H5412486   1.716   3.329   5.994 -0.8677  0.1030  1.5100
   57MOL    H5512487   1.919   3.000   6.317  0.9242  1.6277  2.0589
   57MOL    H5612488   2.088   3.045   6.293 -0.8076  2.9412 -1.0354
   57MOL    C5712489   1.998   2.952   6.119  0.2695 -0.8861 -0.2901
   57MOL    C5812490   1.941   2.809   6.162 -0.0416 -0.8154  0.9398
   57MOL    O5912491   2.003   2.739   6.243  0.2539  0.1084 -0.1792
   57MOL    C6012492   1.804   2.770   6.102 -0.5286  0.0503 -0.0749
   57MOL    C6112493   2.139   2.948   6.067  0.0807  0.0551  0.0453
   57MOL    H6212494   1.925   2.977   6.042  0.6568  0.3826 -0.2467
   57MOL    H6312495   1.733   2.755   6.183 -0.5889  0.2423 -0.0910
   57MOL    H6412496   1.766   2.839   6.026 -1.3447 -0.1621  0.1403
   57MOL    H6512497   1.814   2.668   6.064  0.1982  0.5605 -1.3033
   57MOL    H6612498   2.145   2.867   5.995 -1.0625 -1.4063  1.5380
   57MOL    H6712499   2.207   2.921   6.148 -1.2464 -0.6620  0.9422
   57MOL    C6812500   2.205   3.079   6.002  0.5169  0.8928  0.2896
   57MOL    C6912501   2.132   3.144   5.884 -0.1152  0.1707  0.0465
   57MOL    O7012502   2.103   3.262   5.889 -0.4249  0.6032  0.0485
   57MOL    C7112503   2.092   3.067   5.767 -0.5997 -0.1635 -0.0766
   57MOL    C7212504   2.354   3.049   5.957  0.0731  0.1548  0.2847
   57MOL    H7312505   2.207   3.163   6.071 -0.7643  1.4280 -0.3099
   57MOL    H7412506   1.984   3.052   5.776 -0.3327 -1.1293  1.9196
   57MOL    H7512507   2.116   3.123   5.677 -0.5952  0.8014  0.5247
   57MOL    H7612508   2.146   2.972   5.762  1.0032  0.8380 -2.3103
   57MOL    H7712509   2.381   3.103   5.867 -2.2092  2.0564  0.6998
   57MOL    H7812510   2.354   2.942   5.934 -0.3580  0.3055 -0.4322
   57MOL    C7912511   2.456   3.082   6.065  0.2048  0.4522  0.7896
   57MOL    C8012512   2.494   3.235   6.068 -0.1683 -0.2282  0.7876
   57MOL    O8112513   2.610   3.266   6.090 -0.2809 -0.5343  0.5574
   57MOL    C8212514   2.384   3.335   6.028 -0.4168  0.2925  0.2665
   57MOL    C8312515   2.572   2.982   6.062 -0.2806 -0.3158 -0.4024
   57MOL    H8412516   2.405   3.058   6.158  0.8402 -0.2758  0.9519
   57MOL    H8512517   2.429   3.434   6.017  0.3085 -0.2238 -1.7295
   57MOL    H8612518   2.339   3.306   5.933  2.9085 -0.5811 -1.1136
   57MOL    H8712519   2.311   3.338   6.108  0.9091 -0.4621  1.5403
   57MOL    H8812520   2.556   2.876   6.083  2.4084 -0.6229  0.2773
   57MOL    H8912521   2.631   3.008   6.150 -0.1829  1.0109 -0.8541
   57MOL    C9012522   2.660   2.988   5.931 -0.4675 -0.4424  0.3443
   57MOL    C9112523   2.626   2.886   5.816  0.1191  0.3610 -0.2023
   57MOL    O9212524   2.589   2.770   5.842 -0.6292 -0.3034 -0.2097
   57MOL    C9312525   2.647   2.929   5.669 -0.5280 -0.0920 -0.6195
   57MOL    C9412526   2.815   2.980   5.956 -0.3329  0.1189 -0.4343
   57MOL    H9512527   2.650   3.084   5.880  1.8332 -1.1241 -1.4600
   57MOL    H9612528   2.572   3.000   5.636 -1.4060 -1.5156 -1.7213
   57MOL    H9712529   2.750   2.964   5.657  0.0436 -0.4365  2.8140
   57MOL    H9812530   2.646   2.845   5.600  1.6302 -0.2960 -0.4422
   57MOL    H9912531   2.868   2.960   5.863 -0.3734 -2.1953  0.0073
   57MOL   H10012532   2.826   2.890   6.017  2.9920  0.0592 -1.0381
   57MOL   C10112533   2.885   3.102   6.023 -0.3392 -0.5645 -0.4158
   57MOL   C10212534   2.920   3.215   5.927 -0.5496 -0.8797  0.4460
   57MOL   O10312535   2.921   3.193   5.802 -0.0713  0.4614 -0.0092
   57MOL   C10412536   2.938   3.350   5.997 -0.4989  0.0135 -0.0059
   57MOL   C10512537   3.011   3.060   6.104 -0.3532 -0.0274 -0.1792
   57MOL   H10612538   2.817   3.148   6.095  0.1712  1.0047 -0.9175
   57MOL   H10712539   2.910   3.429   5.927  2.3401  0.5380 -0.5966
   57MOL   H10812540   2.870   3.363   6.081 -0.1046  0.5605  0.2354
   57MOL   H10912541   3.045   3.358   6.018 -0.2241 -2.2439 -0.4634
   57MOL   H11012542   3.099   3.076   6.042  0.1173  0.7277  0.6584
   57MOL   H11112543   3.019   2.955   6.129 -0.1747  0.3833  1.5672
   57MOL   C11212544   3.023   3.133   6.238 -0.0741 -0.0715 -0.2236
   57MOL   C11312545   3.174   3.179   6.261 -0.2067  0.1694  0.3375
   57MOL   O11412546   3.257   3.095   6.284 -0.4727  0.4240  0.2606
   57MOL   C11512547   3.206   3.324   6.252  0.0729  0.3131  0.0120
   57MOL   C11612548   2.969   3.061   6.365  0.4685  0.5666 -0.1170
   57MOL   H11712549   2.955   3.218   6.225  2.3819  1.9525 -0.2953
   57MOL   H11812550   3.302   3.325   6.200 -0.6695  0.4523 -1.3821
   57MOL   H11912551   3.133   3.380   6.193 -2.1891 -1.7682  0.7422
   57MOL   H12012552   3.204   3.372   6.350  0.6108  3.9088 -1.6430
   57MOL   H12112553   3.056   3.017   6.414 -0.4327  0.2927  1.2818
   57MOL   H12212554   2.908   2.973   6.344  1.7355  0.1939 -2.3965
   57MOL   C12312555   2.897   3.161   6.466  0.5790 -0.2339 -0.2128
   57MOL   C12412556   2.921   3.120   6.614 -0.6108  0.0074  0.9445
   57MOL   O12512557   2.853   3.038   6.673 -0.1198  0.4094 -0.0344
   57MOL   C12612558   3.032   3.181   6.695 -0.6029 -0.1463  0.0357
   57MOL   C12712559   2.739   3.189   6.437  0.2104 -0.3623 -0.6288
   57MOL   H12812560   2.954   3.254   6.462 -0.9108  0.7477  0.9727
   57MOL   H12912561   3.031   3.140   6.796 -1.0343  0.8429  0.4407
   57MOL   H13012562   3.131   3.162   6.652 -0.3673  1.0122  0.0402
   57MOL   H13112563   3.034   3.290   6.696  0.0435 -0.1242 -1.6466
   57MOL   H13212564   2.687   3.093   6.429 -0.4850  0.1068 -1.7915
   57MOL   H13312565   2.724   3.227   6.336 -1.5056 -0.3363 -0.3724
   57MOL   C13412566   2.660   3.267   6.549  0.8445  0.3745  0.3393
   57MOL   C13512567   2.509   3.241   6.554  0.1343  0.2659  0.2458
   57MOL   O13612568   2.450   3.196   6.646 -0.0093 -0.2177  0.2878
   57MOL   C13712569   2.435   3.269   6.426  0.8234  0.1588 -0.4700
   57MOL   C13812570   2.695   3.413   6.529 -0.1690 -0.6235 -0.7486
   57MOL   H13912571   2.681   3.225   6.648 -2.5287 -1.1330  0.5075
   57MOL   H14012572   2.408   3.180   6.369  0.7764  0.2295 -0.5579
   57MOL   H14112573   2.346   3.317   6.465  1.2896 -1.2879  2.5472
   57MOL   H14212574   2.485   3.342   6.363  1.3067  0.8027  0.6450
   57MOL   H14312575   2.668   3.433   6.426 -1.7104 -3.0999 -0.8672
   57MOL   H14412576   2.804   3.422   6.536 -0.4070  1.2353  1.2188
   57MOL   C14512577   2.636   3.514   6.620 -0.5830 -0.7280 -0.7519
   57MOL   C14612578   2.644   3.657   6.550  0.6842  0.4408  0.2195
   57MOL   O14712579   2.690   3.679   6.433  0.1606 -0.4090 -0.1818
   57MOL   C14812580   2.581   3.784   6.621 -0.1574 -0.4616  0.1570
   57MOL   C14912581   2.711   3.525   6.763  0.2578  0.0833  0.9696
   57MOL   H15012582   2.531   3.501   6.645 -0.8734 -1.6020 -2.3035
   57MOL   H15112583   2.649   3.867   6.602 -0.8934  0.6580  2.2482
   57MOL   H15212584   2.477   3.799   6.592  0.5847  4.3091 -0.4313
   57MOL   H15312585   2.594   3.771   6.728 -0.7754  0.5341  0.3551
   57MOL   H15412586   2.709   3.624   6.809 -1.0336 -0.5696  2.3260
   57MOL   H15512587   2.819   3.513   6.748  0.2149  1.9740 -1.1211
   57MOL   C15612588   2.678   3.423   6.876  0.4384 -0.7085 -0.2132
   57MOL   C15712589   2.559   3.465   6.979 -0.9378 -1.0325  1.0335
   57MOL   O15812590   2.578   3.449   7.099 -0.2724 -0.2041 -0.0471
   57MOL   C15912591   2.420   3.516   6.926 -0.1859 -0.7195  0.4524
   57MOL   C16012592   2.793   3.348   6.953  0.4681 -0.3553 -0.2322
   57MOL   H16112593   2.633   3.341   6.819  0.4621 -0.0730 -1.1493
   57MOL   H16212594   2.359   3.441   6.875 -0.2727 -0.4069  0.1004
   57MOL   H16312595   2.350   3.562   6.996  0.8705  0.3451  0.8137
   57MOL   H16412596   2.436   3.589   6.848  0.9224  0.8065  2.0795
   57MOL   H16512597   2.860   3.316   6.874 -0.8867  1.6937 -2.2620
   57MOL   H16612598   2.758   3.263   7.010  0.0230  0.2961  0.4819
   57MOL   C16712599   2.881   3.440   7.043 -0.7174  0.1695  0.2327
   57MOL   C16812600   2.971   3.540   6.974 -0.9969  0.7156 -0.3910
   57MOL   O16912601   3.033   3.509   6.871  0.0488 -0.6067  0.6954
   57MOL   C17012602   2.986   3.676   7.030 -0.0348 -0.2904 -0.4999
   57MOL   C17112603   2.969   3.350   7.132  0.3807  0.2240 -0.2052
   57MOL   H17212604   2.819   3.495   7.114 -0.1807 -0.1063  0.9238
   57MOL   H17312605   2.886   3.720   7.041 -0.4335 -0.6703 -2.4202
   57MOL   H17412606   3.024   3.672   7.132 -2.4973 -0.9229  0.4484
   57MOL   H17512607   3.058   3.727   6.967  0.5476  0.4637  0.7564
   57MOL   H17612608   3.058   3.405   7.162  0.0728 -0.1925  1.5522
   57MOL   H17712609   3.010   3.264   7.080 -0.6587 -1.5793  1.8556
   57MOL   C17812610   2.896   3.321   7.266  0.9107  0.0293 -0.2262
   57MOL   C17912611   2.886   3.442   7.356 -0.4243 -0.4885 -0.5198
   57MOL   O18012612   2.988   3.501   7.385  0.1149 -0.3609 -0.1759
   57MOL   C18112613   2.752   3.492   7.406  0.2712  0.8739 -0.5813
   57MOL   C18212614   2.952   3.195   7.337 -0.2342 -1.0379  0.0336
   57MOL   H18312615   2.794   3.300   7.235  0.8562 -0.9675  0.6012
   57MOL   H18412616   2.761   3.575   7.476  2.3219 -0.4332  0.7813
   57MOL   H18512617   2.710   3.522   7.311  0.6739 -0.7859 -1.3067
   57MOL   H18612618   2.688   3.415   7.449  0.7823  1.6175  1.5971
   57MOL   H18712619   2.994   3.221   7.434 -0.4643  0.9416 -0.3812
   57MOL   H18812620   3.043   3.163   7.286 -0.9324 -1.8288 -0.7448
   57MOL   C18912621   2.855   3.072   7.349  0.2287  0.4302  0.0692
   57MOL   C19012622   2.739   3.097   7.438  0.5743  0.3091 -0.3824
   57MOL   O19112623   2.751   3.144   7.551 -0.8804 -0.9272 -0.6954
   57MOL   C19212624   2.597   3.067   7.383 -0.9440 -1.1591 -0.1065
   57MOL   C19312625   2.935   2.943   7.392  0.0277  0.1413  0.3659
   57MOL   H19412626   2.812   3.057   7.250  2.0567  0.0451 -0.6731
   57MOL   H19512627   2.592   3.103   7.280  2.4425  1.3755  0.5171
   57MOL   H19612628   2.593   2.959   7.396  0.1995 -1.2733 -0.6288
   57MOL   H19712629   2.519   3.111   7.445  1.9713  0.8785  2.2279
   57MOL   H19812630   2.867   2.865   7.427  1.4710 -1.1060  0.4272
   57MOL   H19912631   2.994   2.962   7.482  0.7482 -2.3966  0.4758
   57MOL   C20012632   3.037   2.884   7.291 -0.3136 -0.2414  0.6055
   57MOL   C20112633   2.958   2.841   7.173 -0.0756 -0.3276 -0.4273
   57MOL   O20212634   2.896   2.737   7.174  0.4691  0.0265  0.2427
   57MOL   C20312635   2.956   2.921   7.047  0.7534 -0.6030  0.0763
   57MOL   C20412636   3.122   2.769   7.350  0.1876 -0.2046 -0.3243
   57MOL   H20512637   3.102   2.966   7.259 -1.8232  0.5253 -0.5646
   57MOL   H20612638   2.963   3.026   7.076 -1.0386 -1.6380  4.7093
   57MOL   H20712639   3.049   2.906   6.993  0.6526 -1.5306  0.1578
   57MOL   H20812640   2.868   2.910   6.983  0.8085  1.7455 -0.4418
   57MOL   H20912641   3.063   2.698   7.407 -2.3882  1.1626 -1.1901
   57MOL   H21012642   3.186   2.805   7.430  0.4619  0.9282 -1.0449
   57MOL   C21112643   3.211   2.693   7.250  0.1203  0.9164  0.8880
   57MOL   C21212644   3.292   2.569   7.295 -0.6411  0.1387  0.2468
   57MOL   O21312645   3.355   2.574   7.399 -0.3078  0.3046 -0.3058
   57MOL   C21412646   3.285   2.442   7.205 -0.1487 -0.2649 -0.3668
   57MOL   C21512647   3.299   2.776   7.154 -0.1124 -0.0081 -0.0473
   57MOL   H21612648   3.133   2.655   7.183  1.9917  0.2604 -0.9774
   57MOL   H21712649   3.191   2.386   7.208 -0.4996  0.3145 -0.4248
   57MOL   H21812650   3.301   2.471   7.102 -2.2587  1.6223 -0.2149
   57MOL   H21912651   3.365   2.379   7.243 -0.4710 -0.3846  0.1340
   57MOL   H22012652   3.239   2.841   7.090 -1.1156 -0.5486  0.3498
   57MOL   H22112653   3.353   2.716   7.081  1.1306 -2.2655  2.6363
   57MOL   H22212654   3.369   2.838   7.211 -0.2407  0.7758 -0.7290
   58MOL     C112655   2.131   2.265   5.134 -0.7730 -0.1250  0.3681
   58MOL     C212656   2.089   2.143   5.211  0.7440  0.0493  0.1861
   58MOL     O312657   2.044   2.046   5.150 -0.0611 -0.0179  0.7764
   58MOL     C412658   2.094   2.148   5.363  0.0001 -0.4980 -0.0737
   58MOL     C512659   2.099   2.248   4.976  0.4373  0.0175 -0.1382
   58MOL     H612660   2.075   2.350   5.175  2.1441  1.3164  1.4839
   58MOL     H712661   2.011   2.207   5.403 -1.1853 -0.4573 -2.4980
   58MOL     H812662   2.106   2.050   5.409 -1.3034 -0.4690  0.3621
   58MOL     H912663   2.174   2.218   5.389  0.7071 -1.3848  0.1722
   58MOL    H1012664   2.139   2.150   4.952 -0.7784 -1.1791  2.5441
   58MOL    H1112665   2.164   2.307   4.912 -1.3515  1.4275 -0.7040
   58MOL    H1212666   2.236   2.278   5.157 -0.5802  2.0337 -1.5960
   58MOL    C1312667   1.952   2.257   4.930 -0.2373  0.6274  0.2055
   58MOL    C1412668   1.937   2.165   4.804  0.1742 -0.3494  0.0825
   58MOL    O1512669   1.944   2.207   4.690 -0.2855 -0.2092 -0.0176
   58MOL    C1612670   1.891   2.022   4.838  0.1304  0.3965 -0.0202
   58MOL    C1712671   1.916   2.400   4.900  1.0003  0.4924  0.7012
   58MOL    H1812672   1.887   2.212   5.005 -1.0571  2.2284  0.4619
   58MOL    H1912673   1.981   1.960   4.840 -0.3904 -0.3428  1.6416
   58MOL    H2012674   1.843   2.014   4.936  2.1917 -2.5979  0.8132
   58MOL    H2112675   1.823   1.995   4.758 -0.9064 -0.4541  1.1173
   58MOL    H2212676   1.996   2.452   4.848 -0.1196  1.0412 -0.4953
   58MOL    H2312677   1.913   2.449   4.997  1.7954  0.1128  0.9223
   58MOL    C2412678   1.786   2.434   4.824  0.4300 -0.3784  0.3642
   58MOL    C2512679   1.815   2.560   4.742  0.0663  0.3094 -0.0016
   58MOL    O2612680   1.749   2.662   4.771 -0.4010  0.3963  0.1198
   58MOL    C2712681   1.893   2.542   4.614 -0.1429 -0.5469 -0.4000
   58MOL    C2812682   1.661   2.443   4.918  0.0360  0.2058 -0.5110
   58MOL    H2912683   1.767   2.354   4.753 -1.3577  1.4307 -1.2463
   58MOL    H3012684   1.888   2.639   4.565 -0.8222 -0.8885 -1.0162
   58MOL    H3112685   1.996   2.518   4.640 -0.8731 -1.8656  1.2936
   58MOL    H3212686   1.850   2.460   4.556  0.2493 -1.5571  0.7166
   58MOL    H3312687   1.586   2.503   4.867 -0.1720 -0.1500 -0.6239
   58MOL    H3412688   1.687   2.508   5.002 -1.2103 -0.0999  0.1329
   58MOL    C3512689   1.598   2.309   4.964 -1.2189  0.2108  0.8522
   58MOL    C3612690   1.520   2.234   4.852 -0.3776 -0.5370 -0.1383
   58MOL    O3712691   1.548   2.113   4.818  0.7450  0.6479 -0.5447
   58MOL    C3812692   1.401   2.305   4.783  0.1415  0.2268 -0.1917
   58MOL    C3912693   1.517   2.324   5.093  0.4583 -0.1733 -0.2660
   58MOL    H4012694   1.679   2.238   4.984 -0.1555  0.6019 -1.8319
   58MOL    H4112695   1.345   2.370   4.850 -1.9361 -1.1201 -0.5649
   58MOL    H4212696   1.444   2.370   4.708  0.4244 -0.5602 -0.7200
   58MOL    H4312697   1.328   2.237   4.739 -0.4633  0.6250  0.1758
   58MOL    H4412698   1.414   2.297   5.070  0.3084  1.3958 -1.5316
   58MOL    H4512699   1.510   2.429   5.120 -1.5819 -0.1400 -0.8597
   58MOL    C4612700   1.552   2.237   5.216  0.2326  0.5626  0.4901
   58MOL    C4712701   1.684   2.294   5.271  0.1408  0.2925  0.0834
   58MOL    O4812702   1.786   2.314   5.203 -0.4569 -0.3604  0.6385
   58MOL    C4912703   1.703   2.308   5.419  0.4689 -0.0849 -0.5298
   58MOL    C5012704   1.551   2.086   5.185 -0.3635  0.3317  0.2777
   58MOL    H5112705   1.477   2.243   5.295 -0.7586 -2.0458 -0.1835
   58MOL    H5212706   1.779   2.382   5.444 -1.6298  2.7852 -2.2436
   58MOL    H5312707   1.604   2.325   5.463  0.6402 -2.0154  0.6351
   58MOL    H5412708   1.737   2.209   5.449 -0.8095 -0.6348 -0.8673
   58MOL    H5512709   1.623   2.069   5.105 -0.6659  0.6819 -0.0709
   58MOL    H5612710   1.454   2.069   5.138 -0.1941  1.1633 -0.3807
   58MOL    C5712711   1.581   1.989   5.303 -0.0932 -0.5488  0.0836
   58MOL    C5812712   1.729   1.944   5.304 -1.2051 -0.6016 -0.3686
   58MOL    O5912713   1.809   1.986   5.391 -0.5614 -0.0765 -0.5657
   58MOL    C6012714   1.768   1.849   5.195  0.0071 -0.1214  0.2636
   58MOL    C6112715   1.474   1.877   5.305  0.7158 -0.0011 -0.6345
   58MOL    H6212716   1.559   2.043   5.395  1.8984 -0.1910  0.3631
   58MOL    H6312717   1.806   1.753   5.230 -0.2953  0.7263  3.0532
   58MOL    H6412718   1.697   1.839   5.113  1.0099  0.9058 -0.7312
   58MOL    H6512719   1.848   1.906   5.149 -0.5782 -0.3790 -1.0959
   58MOL    H6612720   1.475   1.809   5.219  1.2684 -0.2299 -0.4527
   58MOL    H6712721   1.379   1.928   5.286  1.5936  1.4881 -1.1101
   58MOL    C6812722   1.458   1.806   5.444 -0.5655  0.5794  0.3530
   58MOL    C6912723   1.424   1.655   5.417 -0.2061  0.5247  0.5248
   58MOL    O7012724   1.308   1.616   5.394  0.3165 -0.1950  0.3140
   58MOL    C7112725   1.539   1.547   5.422 -0.2363  0.3415 -0.6470
   58MOL    C7212726   1.343   1.875   5.528  0.5638  0.6365 -0.0562
   58MOL    H7312727   1.550   1.820   5.501 -0.2921  0.0363  0.0477
   58MOL    H7412728   1.523   1.479   5.338  1.4098 -0.3384 -0.4280
   58MOL    H7512729   1.635   1.594   5.441  0.1172 -0.4630 -0.4010
   58MOL    H7612730   1.530   1.487   5.512  0.7134  0.0127 -0.7722
   58MOL    H7712731   1.313   1.803   5.604  0.7910 -0.0879 -0.6362
   58MOL    H7812732   1.254   1.904   5.472 -0.0236  1.8468  1.4710
   58MOL    C7912733   1.381   2.005   5.599  0.1741  0.0364 -0.5602
   58MOL    C8012734   1.508   2.001   5.689 -0.6458 -1.0532 -0.0245
   58MOL    O8112735   1.530   1.908   5.764 -0.8647  0.6036 -0.0786
   58MOL    C8212736   1.611   2.117   5.679  0.1478  0.3262 -0.1094
   58MOL    C8312737   1.256   2.049   5.688  0.3889  1.1259 -0.0751
   58MOL    H8412738   1.394   2.086   5.527 -0.9239  1.3396  0.6778
   58MOL    H8512739   1.688   2.106   5.602 -0.4016 -1.7784 -0.4109
   58MOL    H8612740   1.563   2.212   5.656  0.8573  0.6554 -0.2354
   58MOL    H8712741   1.665   2.136   5.772  0.6652 -0.1206 -0.3133
   58MOL    H8812742   1.240   1.976   5.768 -1.2960  1.3551 -0.1909
   58MOL    H8912743   1.165   2.019   5.637 -0.4258  1.4553  1.1567
   58MOL    C9012744   1.240   2.204   5.749 -0.2647  0.7757 -0.1946
   58MOL    C9112745   1.244   2.321   5.641  0.6579  0.4310  0.1955
   58MOL    O9212746   1.330   2.334   5.559 -0.3784  0.4335  0.0551
   58MOL    C9312747   1.129   2.418   5.653 -0.3944 -0.1424  0.0523
   58MOL    C9412748   1.337   2.234   5.869 -0.4875  0.5084  1.0823
   58MOL    H9512749   1.141   2.209   5.794  0.7235  0.6123  2.0387
   58MOL    H9612750   1.077   2.414   5.558  1.1377 -1.0113 -0.7694
   58MOL    H9712751   1.055   2.393   5.729  1.4662 -0.2650  1.8690
   58MOL    H9812752   1.165   2.521   5.658  1.9397 -0.8932 -0.8205
   58MOL    H9912753   1.437   2.214   5.832 -0.2673  2.6854  0.4343
   58MOL   H10012754   1.334   2.152   5.941 -1.2740 -0.0571  0.4209
   58MOL   C10112755   1.325   2.376   5.935  0.1295  0.9180 -0.2203
   58MOL   C10212756   1.436   2.475   5.890 -0.2636  0.6217  0.1219
   58MOL   O10312757   1.553   2.470   5.929 -0.0491  0.3862 -0.2069
   58MOL   C10412758   1.398   2.588   5.796 -0.1622  0.0682  0.6045
   58MOL   C10512759   1.327   2.363   6.094  0.1102 -0.5447  0.6439
   58MOL   H10612760   1.228   2.417   5.909 -0.2838  0.9094  1.2498
   58MOL   H10712761   1.421   2.690   5.827  0.7447  0.1158 -0.1992
   58MOL   H10812762   1.435   2.563   5.697  1.8528  0.1436  1.3206
   58MOL   H10912763   1.290   2.593   5.787  0.0579  0.9501 -1.7327
   58MOL   H11012764   1.428   2.359   6.135 -0.5954  0.8958  2.5943
   58MOL   H11112765   1.287   2.268   6.127 -2.0808 -0.2129 -0.9029
   58MOL   C11212766   1.246   2.467   6.179  0.8407 -0.3428 -0.3991
   58MOL   C11312767   1.097   2.450   6.157  0.0964  0.5501  0.1041
   58MOL   O11412768   1.038   2.519   6.077 -0.0452 -0.4608  0.5303
   58MOL   C11512769   1.028   2.353   6.245 -1.0300  0.1935 -0.3398
   58MOL   C11612770   1.303   2.605   6.173 -0.0574  0.0230 -0.5226
   58MOL   H11712771   1.268   2.435   6.281 -1.4452 -0.4172  0.0978
   58MOL   H11812772   1.091   2.265   6.257  1.3170  1.8868  0.0770
   58MOL   H11912773   1.017   2.399   6.343 -1.7539 -2.3647  0.8255
   58MOL   H12012774   0.927   2.333   6.208 -1.7098 -0.8659  1.9617
   58MOL   H12112775   1.243   2.668   6.108 -0.6777  1.0458  1.0106
   58MOL   H12212776   1.403   2.596   6.130  0.5253 -4.0767  1.4108
   58MOL   C12312777   1.333   2.693   6.302  0.1930  0.2525  0.3241
   58MOL   C12412778   1.210   2.707   6.398 -0.3453  0.2210 -0.2029
   58MOL   O12512779   1.092   2.713   6.366 -0.4815  0.2578 -0.0183
   58MOL   C12612780   1.244   2.719   6.546 -0.0946 -0.1070 -0.3694
   58MOL   C12712781   1.401   2.825   6.275  0.1726  0.4010  0.2051
   58MOL   H12812782   1.415   2.648   6.357  0.9706  1.6584  0.3291
   58MOL   H12912783   1.319   2.795   6.563  0.4130 -0.3931 -1.3096
   58MOL   H13012784   1.151   2.746   6.596  0.3031  0.7420 -0.0747
   58MOL   H13112785   1.281   2.622   6.580 -3.3117 -1.7454 -1.3484
   58MOL   H13212786   1.473   2.806   6.196 -1.5007  0.9482 -1.4927
   58MOL   H13312787   1.461   2.852   6.362 -0.1145 -0.0964  0.5605
   58MOL   C13412788   1.321   2.939   6.227  0.2982  0.7984 -0.0051
   58MOL   C13512789   1.270   2.921   6.081  1.0495  0.2800  0.1006
   58MOL   O13612790   1.341   2.939   5.979 -0.1366 -0.2228  0.3662
   58MOL   C13712791   1.131   2.897   6.063 -0.3109  0.3563  0.1960
   58MOL   C13812792   1.406   3.067   6.220  0.4231 -0.5343  0.5444
   58MOL   H13912793   1.230   2.953   6.284 -0.5069 -1.7308 -0.6057
   58MOL   H14012794   1.068   2.986   6.070 -1.0673 -0.1938  0.5840
   58MOL   H14112795   1.110   2.838   5.973  2.2512 -0.1513 -0.0933
   58MOL   H14212796   1.099   2.835   6.147  0.0716 -0.3644 -0.1863
   58MOL   H14312797   1.473   3.060   6.134  0.4997  0.3181  0.5311
   58MOL   H14412798   1.483   3.066   6.297  1.7107  1.7904 -0.6537
   58MOL   C14512799   1.335   3.209   6.212  0.3559  0.9600 -0.4913
   58MOL   C14612800   1.418   3.295   6.120 -0.0836  0.1118 -0.4701
   58MOL   O14712801   1.490   3.379   6.169 -0.3846 -0.3833  0.4500
   58MOL   C14812802   1.406   3.274   5.972 -0.2338  0.6831 -0.4152
   58MOL   C14912803   1.297   3.283   6.343 -0.0369 -0.5904  0.4527
   58MOL   H15012804   1.234   3.188   6.177  0.3561  0.8594 -0.4304
   58MOL   H15112805   1.500   3.293   5.920  0.6236  0.1236  0.8962
   58MOL   H15212806   1.361   3.178   5.947 -0.9613  0.8207  0.3404
   58MOL   H15312807   1.352   3.361   5.936 -1.7218 -0.1549 -0.2433
   58MOL   H15412808   1.214   3.349   6.320 -1.2364 -3.2920 -3.4258
   58MOL   H15512809   1.381   3.344   6.376  1.2446 -1.1741 -1.6685
   58MOL   C15612810   1.277   3.211   6.474  0.3747  0.1204 -0.1995
   58MOL   C15712811   1.145   3.131   6.466  0.4094 -0.5740  0.0235
   58MOL   O15812812   1.080   3.128   6.365  0.1838 -0.3993  0.6526
   58MOL   C15912813   1.114   3.050   6.590  0.2667 -0.3492  0.2266
   58MOL   C16012814   1.298   3.304   6.598  0.2775 -0.0618 -0.6341
   58MOL   H16112815   1.355   3.138   6.497 -1.1891 -1.0208  1.5686
   58MOL   H16212816   1.202   3.028   6.649  1.1520  3.5720  0.4864
   58MOL   H16312817   1.047   3.109   6.652 -0.0377 -3.3843  2.9062
   58MOL   H16412818   1.059   2.959   6.563 -2.5509  1.5204 -0.5946
   58MOL   H16512819   1.229   3.298   6.682 -0.1734  0.1477 -0.9881
   58MOL   H16612820   1.276   3.405   6.563  1.1416 -0.1561 -1.4644
   58MOL   C16712821   1.433   3.316   6.660 -0.2872  0.7666 -0.4427
   58MOL   C16812822   1.474   3.185   6.723  0.2712 -0.4550 -0.0203
   58MOL   O16912823   1.576   3.126   6.681 -0.0291 -0.2052 -0.6599
   58MOL   C17012824   1.394   3.143   6.845  0.1209  0.5137  0.1640
   58MOL   C17112825   1.439   3.443   6.759  0.2426 -0.4643 -0.6496
   58MOL   H17212826   1.496   3.329   6.572 -0.1271 -2.3131 -0.8497
   58MOL   H17312827   1.455   3.075   6.904 -2.0006 -0.0213  1.7768
   58MOL   H17412828   1.354   3.224   6.905 -3.8108 -1.8173  0.8816
   58MOL   H17512829   1.309   3.085   6.810 -0.7679  1.5255  0.6288
   58MOL   H17612830   1.375   3.419   6.844 -0.9219  0.0951 -1.3636
   58MOL   H17712831   1.385   3.524   6.711  0.3341  1.2395  2.0317
   58MOL   C17812832   1.581   3.490   6.790 -0.3790  0.5932 -0.3574
   58MOL   C17912833   1.627   3.450   6.927  0.5877 -0.0404 -0.6136
   58MOL   O18012834   1.572   3.462   7.036 -0.0387 -0.0647 -0.2178
   58MOL   C18112835   1.764   3.374   6.931  0.1562 -0.7859 -0.6246
   58MOL   C18212836   1.605   3.637   6.766  0.1470  0.0532  1.0040
   58MOL   H18312837   1.637   3.438   6.714  1.4176  2.8480 -0.6346
   58MOL   H18412838   1.835   3.444   6.975 -2.2450 -0.0876  2.3216
   58MOL   H18512839   1.753   3.284   6.993 -0.7302 -1.3956 -1.6508
   58MOL   H18612840   1.789   3.342   6.830  1.7594 -1.1637 -0.1160
   58MOL   H18712841   1.574   3.653   6.662 -1.0548 -0.6734  1.2453
   58MOL   H18812842   1.712   3.656   6.752  0.0950 -0.6240 -0.4459
   58MOL   C18912843   1.548   3.744   6.865  0.4403 -0.0522 -0.0322
   58MOL   C19012844   1.388   3.756   6.863 -0.4576  0.6651  0.4761
   58MOL   O19112845   1.330   3.821   6.778  0.3296 -0.2660  0.1752
   58MOL   C19212846   1.308   3.685   6.972 -0.7818  1.1446 -0.0274
   58MOL   C19312847   1.604   3.888   6.844 -0.6204 -0.9413 -0.1574
   58MOL   H19412848   1.555   3.720   6.971 -0.9210 -1.1987 -0.1682
   58MOL   H19512849   1.256   3.768   7.018 -0.9445  0.4134  1.1314
   58MOL   H19612850   1.230   3.622   6.930  0.3010  1.5905 -2.8416
   58MOL   H19712851   1.371   3.624   7.038 -0.3218  1.0300 -0.5644
   58MOL   H19812852   1.561   3.953   6.920 -0.3767 -1.0083  0.0409
   58MOL   H19912853   1.561   3.933   6.755 -1.6677  2.4882  1.9644
   58MOL   C20012854   1.756   3.905   6.853 -0.4515 -0.0657  0.1667
   58MOL   C20112855   1.820   3.833   6.970 -0.5997 -0.0659  1.1471
   58MOL   O20212856   1.767   3.821   7.079  0.4507 -0.2204 -0.6739
   58MOL   C20312857   1.954   3.778   6.944  0.1613  0.2734  0.0262
   58MOL   C20412858   1.802   4.052   6.851  0.1976  0.3571 -0.2619
   58MOL   H20512859   1.793   3.865   6.759 -1.7165  0.4791 -0.5704
   58MOL   H20612860   1.965   3.711   7.030 -0.7042 -0.6171 -0.5405
   58MOL   H20712861   1.955   3.721   6.851  0.1461  2.1057 -1.1028
   58MOL   H20812862   2.019   3.864   6.958 -1.6602  1.5128  1.1932
   58MOL   H20912863   1.904   4.060   6.887  0.3008  1.9185 -0.8379
   58MOL   H21012864   1.742   4.099   6.928 -1.3334 -0.4163 -0.9577
   58MOL   C21112865   1.793   4.116   6.708 -0.3827 -0.0461  0.1261
   58MOL   C21212866   1.879   4.039   6.607 -0.3617  0.1401  0.4136
   58MOL   O21312867   2.002   4.005   6.623 -0.2295  0.3217  0.3470
   58MOL   C21412868   1.813   4.012   6.470 -0.2622  0.0968  0.2012
   58MOL   C21512869   1.839   4.263   6.703 -0.3875 -0.3371 -0.5767
   58MOL   H21612870   1.695   4.115   6.661 -0.1274 -0.9239 -0.4170
   58MOL   H21712871   1.855   3.917   6.438  0.9665 -0.1030  2.3071
   58MOL   H21812872   1.704   4.024   6.477 -0.3002  0.1359 -0.4635
   58MOL   H21912873   1.849   4.091   6.405 -2.0757  0.7794 -0.0206
   58MOL   H22012874   1.944   4.271   6.731  0.2837 -1.7449 -2.6351
   58MOL   H22112875   1.768   4.314   6.769 -0.0226 -0.6585  0.0761
   58MOL   H22212876   1.830   4.301   6.602  2.3541  1.1362 -0.3198
   59MOL     C112877   1.980   5.666   0.584  0.4844 -0.1998 -0.2264
   59MOL     C212878   1.961   5.553   0.479  0.2235  1.2220 -0.1250
   59MOL     O312879   2.057   5.483   0.446 -0.2255  0.6375  0.3700
   59MOL     C412880   1.826   5.530   0.420 -0.2871 -0.0344  0.4995
   59MOL     C512881   2.100   5.660   0.681  0.4577 -0.1037 -0.6092
   59MOL     H612882   2.002   5.758   0.530  2.9783 -1.7021 -1.8784
   59MOL     H712883   1.801   5.426   0.400  1.3461 -0.4576  0.6102
   59MOL     H812884   1.750   5.549   0.496 -1.3796 -0.0245 -0.5834
   59MOL     H912885   1.815   5.592   0.331  0.2718  1.5510  1.5056
   59MOL    H1012886   2.092   5.749   0.745 -0.8255 -1.5478  1.3037
   59MOL    H1112887   2.190   5.671   0.622  0.2885 -1.0906 -1.0606
   59MOL    H1212888   1.885   5.695   0.629  1.6799  2.0114  0.9226
   59MOL    C1312889   2.100   5.536   0.775  0.4635  0.6938 -0.8927
   59MOL    C1412890   1.989   5.533   0.879  0.2610 -0.5586 -0.0469
   59MOL    O1512891   1.893   5.609   0.869 -0.8600  0.5528  0.2352
   59MOL    C1612892   1.997   5.430   0.991  0.0880 -0.0170  0.9660
   59MOL    C1712893   2.243   5.504   0.836  0.4482 -0.6134  0.1627
   59MOL    H1812894   2.088   5.449   0.711 -1.0525 -0.8849  1.4499
   59MOL    H1912895   1.899   5.412   1.034 -1.0366  0.3386 -1.3824
   59MOL    H2012896   2.043   5.344   0.941  0.4937  0.4114  0.5950
   59MOL    H2112897   2.055   5.464   1.076  3.0527 -0.5875 -0.7562
   59MOL    H2212898   2.243   5.423   0.909  2.2696 -0.2022  0.6558
   59MOL    H2312899   2.272   5.594   0.890 -0.5040  1.9054 -3.3371
   59MOL    C2412900   2.359   5.471   0.737 -0.5391 -0.2758 -0.0610
   59MOL    C2512901   2.348   5.342   0.656 -0.2630  0.2562 -0.0625
   59MOL    O2612902   2.320   5.239   0.708  0.4553  0.4622 -0.1467
   59MOL    C2712903   2.378   5.351   0.501 -0.3356 -0.2549  0.0907
   59MOL    C2812904   2.512   5.466   0.796 -0.6931  0.5168  0.3572
   59MOL    H2912905   2.361   5.557   0.670  1.9851 -1.1133 -1.1212
   59MOL    H3012906   2.318   5.432   0.460 -0.3656  0.0639  0.7549
   59MOL    H3112907   2.482   5.377   0.485 -0.5500  1.6074  1.5422
   59MOL    H3212908   2.369   5.254   0.453  2.6338 -0.6302  0.2192
   59MOL    H3312909   2.576   5.414   0.725 -1.7136  3.4044 -2.8182
   59MOL    H3412910   2.528   5.404   0.884  0.5781  1.5629  0.8761
   59MOL    C3512911   2.572   5.604   0.816  0.0782 -0.0316 -0.7167
   59MOL    C3612912   2.569   5.688   0.681  1.3019  0.0772 -0.4231
   59MOL    O3712913   2.636   5.661   0.581  0.1369 -1.1024 -0.4208
   59MOL    C3812914   2.489   5.816   0.679  0.3586 -0.3008  0.3811
   59MOL    C3912915   2.715   5.600   0.868 -0.4476  0.0657 -0.3296
   59MOL    H4012916   2.517   5.659   0.893 -0.9053 -0.4396 -1.1134
   59MOL    H4112917   2.434   5.837   0.770 -1.2956 -1.1630 -0.4030
   59MOL    H4212918   2.570   5.888   0.665 -0.0151 -0.0316 -0.4435
   59MOL    H4312919   2.422   5.809   0.593  2.2760 -0.9754 -1.0843
   59MOL    H4412920   2.747   5.703   0.888 -0.7192 -0.3185  2.2133
   59MOL    H4512921   2.778   5.561   0.788  0.8844  0.7398  0.3740
   59MOL    C4612922   2.747   5.519   0.996 -0.6246  0.4265 -0.0765
   59MOL    C4712923   2.669   5.572   1.113 -0.3068 -0.2956 -0.5001
   59MOL    O4812924   2.692   5.686   1.155  0.8541  0.1475  0.2356
   59MOL    C4912925   2.567   5.480   1.187  0.2023  0.1658 -0.0464
   59MOL    C5012926   2.895   5.490   1.028  1.1864 -0.9285 -0.5337
   59MOL    H5112927   2.709   5.418   0.980  0.2661 -0.1938  1.5996
   59MOL    H5212928   2.525   5.426   1.102  3.5069 -0.3225 -1.4492
   59MOL    H5312929   2.625   5.409   1.247 -1.1770 -0.1530  0.9426
   59MOL    H5412930   2.499   5.517   1.263  0.9249 -1.3354  1.3628
   59MOL    H5512931   2.901   5.485   1.136  1.6206  0.6881 -0.4676
   59MOL    H5612932   2.964   5.571   1.003  0.0424  0.7887  1.6659
   59MOL    C5712933   2.949   5.365   0.955  0.6985  0.3641 -0.1037
   59MOL    C5812934   2.906   5.229   1.010  0.1418 -0.4306  0.5190
   59MOL    O5912935   2.867   5.144   0.930 -0.2090 -0.1280 -0.1287
   59MOL    C6012936   2.918   5.191   1.155 -0.1171 -0.0005  0.6364
   59MOL    C6112937   3.108   5.369   0.963 -0.3800  0.2108  0.6572
   59MOL    H6212938   2.914   5.365   0.852  0.8041 -1.0496 -0.1512
   59MOL    H6312939   2.891   5.087   1.174 -0.1427 -0.3371 -1.1277
   59MOL    H6412940   3.021   5.216   1.179 -0.4853 -0.9103  3.3016
   59MOL    H6512941   2.852   5.258   1.210 -0.0646 -1.1718  2.1437
   59MOL    H6612942   3.138   5.359   1.067 -1.7512 -1.6602  0.8900
   59MOL    H6712943   3.138   5.470   0.936 -3.2668  1.3803  1.6529
   59MOL    C6812944   3.183   5.266   0.869  0.0881  0.4078  0.5898
   59MOL    C6912945   3.309   5.215   0.938 -0.4723 -0.4929  0.7335
   59MOL    O7012946   3.347   5.257   1.043 -0.4721  0.1396 -0.3413
   59MOL    C7112947   3.378   5.092   0.884  0.3550  0.2086 -0.4653
   59MOL    C7212948   3.206   5.309   0.721 -0.1643  0.0961  0.1346
   59MOL    H7312949   3.132   5.170   0.859 -1.1184  0.8725  2.0944
   59MOL    H7412950   3.469   5.073   0.941 -0.1864 -1.7708 -0.2269
   59MOL    H7512951   3.319   5.003   0.903 -0.6323  1.3354  2.0821
   59MOL    H7612952   3.402   5.094   0.778 -1.5718 -2.0165 -0.9846
   59MOL    H7712953   3.280   5.241   0.680 -0.4665  0.9183 -1.8112
   59MOL    H7812954   3.265   5.401   0.724 -0.3875  0.2313  0.5912
   59MOL    C7912955   3.090   5.325   0.620  0.3727  0.1755  0.3329
   59MOL    C8012956   2.986   5.216   0.631 -0.9994 -0.2007  0.9034
   59MOL    O8112957   3.022   5.099   0.629 -0.1693 -0.5131  0.2914
   59MOL    C8212958   2.833   5.250   0.629  0.0769 -0.0955 -0.6886
   59MOL    C8312959   3.146   5.346   0.484 -0.7239  0.4141  1.3327
   59MOL    H8412960   3.045   5.419   0.652 -0.5284  0.8071 -2.6902
   59MOL    H8512961   2.809   5.349   0.590 -2.0684  0.4931  1.9256
   59MOL    H8612962   2.785   5.180   0.560 -0.2331 -0.8192  0.2444
   59MOL    H8712963   2.788   5.239   0.728  1.0867  0.5555 -0.1550
   59MOL    H8812964   3.203   5.259   0.451  1.3524  2.8164 -1.7060
   59MOL    H8912965   3.217   5.428   0.474  0.4202 -0.6556  0.5446
   59MOL    C9012966   3.033   5.371   0.379 -0.5062  0.0498 -0.8292
   59MOL    C9112967   3.062   5.338   0.232  0.3247 -0.0920  0.3143
   59MOL    O9212968   3.057   5.427   0.146 -0.1616 -0.3773 -0.3103
   59MOL    C9312969   3.122   5.199   0.196  0.4798 -0.2322 -0.6790
   59MOL    C9412970   2.952   5.502   0.411 -0.0858  0.5186 -0.0757
   59MOL    H9512971   2.952   5.300   0.396 -0.7893  0.7054  0.5655
   59MOL    H9612972   3.089   5.123   0.266 -1.8636  1.4910  0.1428
   59MOL    H9712973   3.114   5.199   0.087 -0.1128 -0.3355 -0.6347
   59MOL    H9812974   3.230   5.194   0.213  0.6425 -0.8140 -1.8122
   59MOL    H9912975   2.903   5.502   0.509  3.0761  2.6714  1.5782
   59MOL   H10012976   2.869   5.511   0.341 -1.4867 -0.3371  1.4354
   59MOL   C10112977   3.030   5.636   0.392 -0.0142 -0.0300 -0.3923
   59MOL   C10212978   3.088   5.684   0.531  0.9798 -0.1593  0.7937
   59MOL   O10312979   3.033   5.669   0.643 -0.6973 -0.2294 -0.5930
   59MOL   C10412980   3.213   5.770   0.521 -0.6563 -0.0899 -0.9773
   59MOL   C10512981   2.947   5.748   0.324 -0.6303  0.0371 -0.1652
   59MOL   H10612982   3.115   5.605   0.330 -0.9106 -3.0692 -0.1840
   59MOL   H10712983   3.248   5.767   0.418  0.9296 -0.4030 -0.4420
   59MOL   H10812984   3.194   5.876   0.540  1.1418  0.3327 -1.3923
   59MOL   H10912985   3.284   5.729   0.593 -1.0982  0.7082 -0.0798
   59MOL   H11012986   2.980   5.843   0.365  0.1300 -0.1498 -0.3193
   59MOL   H11112987   2.847   5.735   0.363 -0.4672 -3.4441 -0.7079
   59MOL   C11212988   2.927   5.742   0.172  0.0610  0.3375  0.1622
   59MOL   C11312989   3.055   5.769   0.097  0.3749  0.4722 -0.2666
   59MOL   O11412990   3.146   5.826   0.153 -0.3159  0.3490  0.1133
   59MOL   C11512991   3.069   5.713   7.794  0.3459 -0.0377 -0.4333
   59MOL   C11612992   2.812   5.836   0.127  0.2770  0.1667 -0.1485
   59MOL   H11712993   2.899   5.642   0.141 -0.8796  0.6258  0.0728
   59MOL   H11812994   3.138   5.630   7.811  0.9175  0.6137  0.4627
   59MOL   H11912995   2.973   5.684   7.752 -0.7126 -0.1020  1.9482
   59MOL   H12012996   3.121   5.776   7.722 -0.4403 -0.4532 -1.3720
   59MOL   H12112997   2.791   5.818   0.021  0.4835 -0.1519 -0.1350
   59MOL   H12212998   2.838   5.939   0.152  1.9509 -0.0026 -1.0923
   59MOL   C12312999   2.670   5.800   0.180 -0.1874 -0.1252  0.1555
   59MOL   C12413000   2.620   5.653   0.160  0.1050  0.5057  0.9437
   59MOL   O12513001   2.642   5.603   0.047  0.2547 -0.3066 -0.6166
   59MOL   C12613002   2.543   5.593   0.283  0.1070 -0.8877  0.4215
   59MOL   C12713003   2.565   5.893   0.121  0.5592  0.5991 -0.3623
   59MOL   H12813004   2.668   5.823   0.287  0.6309 -0.9886  0.3679
   59MOL   H12913005   2.542   5.667   0.363  0.3012 -1.5001  1.0001
   59MOL   H13013006   2.440   5.572   0.255 -0.4236  0.3046  1.4176
   59MOL   H13113007   2.583   5.496   0.315  0.3054 -0.4267  1.6155
   59MOL   H13213008   2.538   5.856   0.022 -2.1014 -0.2283  0.6331
   59MOL   H13313009   2.618   5.989   0.116 -2.3593  2.2789 -0.0042
   59MOL   C13413010   2.436   5.909   0.211 -0.2063  0.7368  0.3543
   59MOL   C13513011   2.323   5.812   0.176  0.2063  0.2986  0.8969
   59MOL   O13613012   2.301   5.772   0.058  0.6402  0.3400 -0.2417
   59MOL   C13713013   2.234   5.764   0.289  0.8016 -0.1187  0.5173
   59MOL   C13813014   2.376   6.051   0.208  0.4808 -0.1834  0.0939
   59MOL   H13913015   2.465   5.876   0.311 -1.6359 -0.8285  0.2688
   59MOL   H14013016   2.243   5.811   0.387  2.3415 -1.1304  0.8747
   59MOL   H14113017   2.129   5.756   0.258  0.6872 -0.0623  0.8976
   59MOL   H14213018   2.253   5.658   0.306 -1.3474 -0.4561  0.9082
   59MOL   H14313019   2.286   6.049   0.269  0.5292 -0.5047  0.1528
   59MOL   H14413020   2.342   6.060   0.105  1.5791  0.1507 -0.2571
   59MOL   C14513021   2.465   6.170   0.245  0.2106 -0.7491 -0.2384
   59MOL   C14613022   2.578   6.130   0.349 -0.0558  0.3934  0.7605
   59MOL   O14713023   2.566   6.076   0.457  0.0681 -0.1837 -0.8434
   59MOL   C14813024   2.713   6.173   0.306  0.0363  0.6945 -0.2394
   59MOL   C14913025   2.386   6.292   0.294  0.0950  0.0055 -0.4275
   59MOL   H15013026   2.517   6.194   0.152 -3.2163 -0.4234 -2.1473
   59MOL   H15113027   2.715   6.196   0.199 -2.8647 -0.3355 -0.5708
   59MOL   H15213028   2.751   6.259   0.361  0.3396  0.4579 -0.0784
   59MOL   H15313029   2.786   6.092   0.309  0.8290  1.3610 -1.0360
   59MOL   H15413030   2.336   6.267   0.388  0.2389  2.2527  0.2813
   59MOL   H15513031   2.305   6.317   0.225  1.0316  2.1680 -0.7771
   59MOL   C15613032   2.453   6.431   0.303  0.3194  0.0881 -0.6356
   59MOL   C15713033   2.404   6.533   0.407 -0.3395 -0.0472  0.3714
   59MOL   O15813034   2.489   6.587   0.473  0.8578  0.3981 -0.4250
   59MOL   C15913035   2.253   6.548   0.420 -0.2803  0.0612 -0.3350
   59MOL   C16013036   2.462   6.501   0.161 -0.1500 -0.6516  1.0002
   59MOL   H16113037   2.553   6.403   0.336  0.0449 -0.0304  0.1188
   59MOL   H16213038   2.204   6.543   0.323  0.0841  1.8628 -0.6291
   59MOL   H16313039   2.211   6.487   0.500  1.2733 -2.8085 -1.6512
   59MOL   H16413040   2.232   6.652   0.447 -1.1606  0.5115 -2.6022
   59MOL   H16513041   2.364   6.546   0.144 -0.4441 -1.1156  1.4533
   59MOL   H16613042   2.482   6.435   0.076 -0.8654 -0.1666  0.4515
   59MOL   C16713043   2.567   6.616   0.149 -0.6952  0.1575  0.1357
   59MOL   C16813044   2.539   6.702   0.020  0.1975 -0.1528  0.6510
   59MOL   O16913045   2.602   6.701   7.758 -0.3201 -1.1133 -0.2010
   59MOL   C17013046   2.416   6.793   0.035  0.3953  0.3890  0.3277
   59MOL   C17113047   2.705   6.558   0.149 -0.3765  0.1099  0.6804
   59MOL   H17213048   2.559   6.687   0.231 -1.6032  0.5545 -0.2913
   59MOL   H17313049   2.410   6.830   0.137  1.1902  1.2106  0.0860
   59MOL   H17413050   2.433   6.878   7.811 -2.3653  0.9256  0.2525
   59MOL   H17513051   2.320   6.750   0.005  1.0161 -0.8995  0.1622
   59MOL   H17613052   2.713   6.504   0.055  0.3132 -0.9011  1.3077
   59MOL   H17713053   2.715   6.483   0.227 -0.4383 -0.4386  0.1686
   59MOL   C17813054   2.821   6.662   0.154 -0.9317 -0.3031  0.1486
   59MOL   C17913055   2.948   6.595   0.096  0.6707  0.8158 -0.5707
   59MOL   O18013056   3.052   6.574   0.163  0.9937  0.1310 -0.1462
   59MOL   C18113057   2.958   6.580   7.790  0.4905 -0.2270  0.8198
   59MOL   C18213058   2.833   6.705   0.294  0.6830  0.5579  0.4446
   59MOL   H18313059   2.788   6.748   0.094  0.1399  0.1046  0.1452
   59MOL   H18413060   2.886   6.647   7.744  0.1841  0.6609  2.5412
   59MOL   H18513061   3.054   6.606   7.746  0.9405 -2.1723  0.5966
   59MOL   H18613062   2.929   6.481   7.754  1.3890 -0.5887  1.0755
   59MOL   H18713063   2.858   6.619   0.356 -3.1735  0.0550  1.3790
   59MOL   H18813064   2.736   6.735   0.334 -0.2842 -1.4311 -0.3632
   59MOL   C18913065   2.937   6.822   0.313 -0.1564  0.1511  0.5558
   59MOL   C19013066   2.997   6.834   0.451  0.0070 -1.1472 -0.6797
   59MOL   O19113067   2.941   6.797   0.553  0.0214  0.0730  0.4120
   59MOL   C19213068   3.127   6.912   0.458  0.8544  0.4715  0.2350
   59MOL   C19313069   2.892   6.966   0.260  0.2204  0.4182  0.0295
   59MOL   H19413070   3.023   6.785   0.257 -1.4080 -0.5425 -0.9273
   59MOL   H19513071   3.140   6.988   0.381 -0.1931  2.6862  2.1726
   59MOL   H19613072   3.145   6.963   0.553  0.9339  1.6374 -0.3979
   59MOL   H19713073   3.210   6.842   0.463 -1.0038 -1.7080  1.0786
   59MOL   H19813074   2.859   6.955   0.157  1.9202  0.1047 -0.5024
   59MOL   H19913075   2.987   7.019   0.248 -0.5847  1.5051 -1.6371
   59MOL   C20013076   2.795   7.053   0.349  0.2903  0.8148 -0.2447
   59MOL   C20113077   2.645   7.000   0.336  0.4213  0.3165  0.4452
   59MOL   O20213078   2.590   6.994   0.222  0.5304  0.5865  0.4177
   59MOL   C20313079   2.586   6.944   0.467  0.7676 -0.5381 -0.2088
   59MOL   C20413080   2.808   7.198   0.297 -0.9886  0.4239  0.1789
   59MOL   H20513081   2.820   7.036   0.454  1.5244 -2.1609 -0.9579
   59MOL   H20613082   2.488   6.903   0.445  1.2694 -2.9597  1.8118
   59MOL   H20713083   2.646   6.862   0.506  1.2451  0.3438  0.9382
   59MOL   H20813084   2.574   7.014   0.551  0.3822 -1.2376  0.3228
   59MOL   H20913085   2.717   7.240   0.255 -1.5883 -0.1146  0.9181
   59MOL   H21013086   2.870   7.192   0.208 -0.8402 -0.6214  0.3451
   59MOL   C21113087   2.859   7.298   0.414  0.3369  0.8698  0.0129
   59MOL   C21213088   2.772   7.302   0.540  0.0829  0.2611  0.6831
   59MOL   O21313089   2.650   7.279   0.537  0.0896  0.4528 -0.3986
   59MOL   C21413090   2.841   7.328   0.669  0.4366  0.7285  0.8034
   59MOL   C21513091   2.883   7.448   0.364  0.3673 -0.5244  0.3973
   59MOL   H21613092   2.963   7.270   0.431  0.9855  2.2634 -1.5352
   59MOL   H21713093   2.823   7.429   0.705 -5.3857 -0.0188  0.4916
   59MOL   H21813094   2.793   7.268   0.747  2.0354 -1.2905  0.2893
   59MOL   H21913095   2.943   7.292   0.656  0.5054  0.7984  1.1436
   59MOL   H22013096   2.954   7.499   0.428 -0.6762  0.6146  0.6628
   59MOL   H22113097   2.792   7.509   0.365  1.5677  1.3524 -0.8111
   59MOL   H22213098   2.918   7.432   0.262 -0.6595 -0.5426  0.0382
   60MOL     C113099   7.765   0.133   0.750 -0.1832  0.0111 -0.5335
   60MOL     C213100   7.611   0.124   0.745  0.2773 -0.3288  0.2933
   60MOL     O313101   7.544   0.068   0.827 -0.0504 -0.3958 -0.1223
   60MOL     C413102   7.539   0.204   0.637 -0.1492 -0.0136  0.3916
   60MOL     C513103   7.835   0.017   0.825  0.3996  0.0085  0.0279
   60MOL     H613104   7.801   0.124   0.647  0.5331  0.4791 -0.3300
   60MOL     H713105   7.609   0.245   0.564 -1.9650  1.7866 -0.3714
   60MOL     H813106   7.464   0.142   0.590  1.6834 -1.9597 -0.0613
   60MOL     H913107   7.478   0.285   0.678 -2.1845 -0.4594 -1.6845
   60MOL    H1013108   0.087   0.007   0.771  0.0212  0.6606 -0.7738
   60MOL    H1113109   7.768   7.773   0.828  1.5543 -0.8617  1.0500
   60MOL    H1213110   7.767   0.233   0.793 -0.8973  0.2613 -1.0875
   60MOL    C1313111   0.024   0.041   0.971 -0.8560  0.2518 -0.7968
   60MOL    C1413112   0.110   0.174   0.995  0.5977 -0.3584 -0.2015
   60MOL    O1513113   0.228   0.179   0.973 -0.1496  0.6318  0.2413
   60MOL    C1613114   0.043   0.293   1.052 -0.1387 -0.2278 -0.1213
   60MOL    C1713115   0.096   7.754   1.018  0.1718 -0.4786 -0.5744
   60MOL    H1813116   7.768   0.069   1.011 -1.1963 -2.3639  0.2420
   60MOL    H1913117   0.119   0.367   1.078  0.5987 -1.2378  0.6450
   60MOL    H2013118   7.816   0.333   0.977  1.1840 -1.3589 -1.9946
   60MOL    H2113119   7.839   0.272   1.148  2.7187 -1.9439  0.9199
   60MOL    H2213120   0.196   7.760   0.976  0.6383 -0.9629  0.4539
   60MOL    H2313121   0.053   7.668   0.968 -2.0167  1.7916 -2.7443
   60MOL    C2413122   0.098   7.720   1.174 -0.6486 -0.0634 -0.3464
   60MOL    C2513123   7.799   7.722   1.239 -0.4590  0.4303 -0.2540
   60MOL    O2613124   7.741   7.834   1.255  0.3134  0.5101  0.1619
   60MOL    C2713125   7.731   7.590   1.279  0.3299  0.1952 -0.4418
   60MOL    C2813126   0.192   7.816   1.265  0.9898  0.8430 -0.1631
   60MOL    H2913127   0.143   7.620   1.172  1.5428  0.8896 -0.2129
   60MOL    H3013128   7.740   7.571   1.386  0.6681 -1.2337 -0.7156
   60MOL    H3113129   7.622   7.594   1.277  0.3552  0.6655 -1.0578
   60MOL    H3213130   7.773   7.499   1.237  1.1407 -0.6232  2.0579
   60MOL    H3313131   0.174   7.802   1.372 -0.2104 -0.3371 -0.5104
   60MOL    H3413132   0.162   0.079   1.265 -2.6505 -0.1255 -0.1296
   60MOL    C3513133   0.344   7.825   1.229 -0.1752 -0.0679  0.1644
   60MOL    C3613134   0.415   7.695   1.262  0.6424 -0.4762  0.3643
   60MOL    O3713135   0.375   7.606   1.333  0.1507 -0.2492 -0.2349
   60MOL    C3813136   0.549   7.676   1.189  0.2792  0.0918 -0.8483
   60MOL    C3913137   0.405   0.107   1.301 -0.0562  0.3866 -0.3191
   60MOL    H4013138   0.363   7.841   1.123  5.0232  1.7149  1.2268
   60MOL    H4113139   0.639   7.716   1.234 -0.3691 -0.3883  0.9089
   60MOL    H4213140   0.577   7.571   1.188  2.1231  0.5658 -0.4866
   60MOL    H4313141   0.535   7.710   1.086  0.6231 -0.4591 -1.0752
   60MOL    H4413142   0.500   0.078   1.346 -1.1426  0.8507  2.3712
   60MOL    H4513143   0.348   0.126   1.392  0.3036 -0.9822  0.2069
   60MOL    C4613144   0.435   0.223   1.212  0.3659  0.1393 -0.6989
   60MOL    C4713145   0.546   0.199   1.117  0.0977 -0.4205  1.2120
   60MOL    O4813146   0.643   0.127   1.140 -0.8932 -0.0875 -0.0739
   60MOL    C4913147   0.522   0.259   0.978  0.0914 -0.0681  1.1187
   60MOL    C5013148   0.478   0.338   1.310 -0.1095 -0.2855  0.6757
   60MOL    H5113149   0.340   0.241   1.162  0.6523  0.7897 -1.0176
   60MOL    H5213150   0.439   0.330   0.983 -2.8985 -3.3827  0.3010
   60MOL    H5313151   0.610   0.314   0.945 -1.3379  1.2775 -0.5639
   60MOL    H5413152   0.501   0.183   0.903 -1.4930  1.9231 -0.5100
   60MOL    H5513153   0.580   0.368   1.287 -1.1085  0.8700 -2.4605
   60MOL    H5613154   0.484   0.295   1.410 -1.6402 -0.5035  0.6906
   60MOL    C5713155   0.394   0.470   1.312  0.1498 -0.1504 -0.3436
   60MOL    C5813156   0.244   0.452   1.350 -0.5149 -0.3029  0.4628
   60MOL    O5913157   0.149   0.504   1.283  0.0080 -0.1694 -0.5442
   60MOL    C6013158   0.222   0.386   1.484 -0.3607 -0.0120 -0.0122
   60MOL    C6113159   0.416   0.550   1.186  0.1606 -0.2806 -0.5580
   60MOL    H6213160   0.440   0.534   1.387 -0.0346 -0.6888  0.2334
   60MOL    H6313161   0.284   0.299   1.505 -0.3327 -0.2709 -1.1454
   60MOL    H6413162   0.232   0.453   1.570 -0.8465 -0.2037  0.1997
   60MOL    H6513163   0.116   0.361   1.485 -0.5860  0.7122 -2.6071
   60MOL    H6613164   0.383   0.495   1.098  0.4802 -3.0695  0.9760
   60MOL    H6713165   0.524   0.551   1.181  0.2350  2.1953  0.6836
   60MOL    C6813166   0.364   0.694   1.183 -0.3218 -0.4342  0.2025
   60MOL    C6913167   0.390   0.752   1.039 -0.5659 -0.1438  0.0664
   60MOL    O7013168   0.323   0.850   0.994 -1.0384 -0.0437 -0.1231
   60MOL    C7113169   0.520   0.705   0.961  0.9999 -0.3779  0.6535
   60MOL    C7213170   0.422   0.783   1.294 -0.5070  0.4505 -0.2011
   60MOL    H7313171   0.256   0.699   1.188 -0.4321 -2.0651 -0.5033
   60MOL    H7413172   0.605   0.741   1.018  1.2354  1.8816 -1.0409
   60MOL    H7513173   0.533   0.599   0.943  0.7512 -0.2672 -0.2081
   60MOL    H7613174   0.515   0.756   0.864 -1.4241  0.8506  1.3651
   60MOL    H7713175   0.527   0.792   1.268 -0.1981 -3.2276 -0.4950
   60MOL    H7813176   0.425   0.733   1.390 -0.4779  1.1285  0.1533
   60MOL    C7913177   0.353   0.923   1.308  0.3649  0.2120  0.8220
   60MOL    C8013178   0.461   1.030   1.340  0.1705 -0.1865 -0.4988
   60MOL    O8113179   0.535   1.018   1.434 -0.7411 -0.2900  0.3091
   60MOL    C8213180   0.467   1.150   1.248  0.0282  0.0195 -0.0800
   60MOL    C8313181   0.244   0.919   1.420  0.4853  0.2556 -0.3134
   60MOL    H8413182   0.302   0.941   1.213  1.6455  0.2230  0.1187
   60MOL    H8513183   0.374   1.191   1.207  0.4487 -0.3394 -1.4007
   60MOL    H8613184   0.506   1.224   1.318 -1.6374 -0.7607  1.7315
   60MOL    H8713185   0.543   1.134   1.173 -0.2530 -2.5622  0.1555
   60MOL    H8813186   0.227   1.018   1.462 -0.1876 -1.1002  2.7459
   60MOL    H8913187   0.277   0.861   1.506  0.1595  0.0711 -0.3113
   60MOL    C9013188   0.108   0.853   1.382  0.4265  0.1622  0.6062
   60MOL    C9113189   0.049   0.922   1.254  0.4135  0.5336 -0.0238
   60MOL    O9213190   0.034   1.044   1.264 -0.1741  0.1618 -0.4345
   60MOL    C9313191   0.001   0.846   1.133 -0.2071  0.0082  0.2564
   60MOL    C9413192   0.005   0.860   1.498 -0.0770 -0.3343  0.3345
   60MOL    H9513193   0.126   0.750   1.354 -0.1583  0.0224  0.7250
   60MOL    H9613194   7.749   0.890   1.100  0.0222 -0.2668 -0.7797
   60MOL    H9713195   0.080   0.866   1.061 -1.2580  1.8229 -0.4148
   60MOL    H9813196   7.832   0.740   1.155  2.1977 -0.0336  1.4230
   60MOL    H9913197   7.828   0.966   1.516 -0.6651 -0.6565  1.6429
   60MOL   H10013198   0.046   0.810   1.586  1.1225 -1.6096 -0.9229
   60MOL   C10113199   7.710   0.791   1.472  0.5355  0.4248  0.9463
   60MOL   C10213200   7.602   0.860   1.554  0.3166 -0.1716  0.2586
   60MOL   O10313201   7.506   0.909   1.497 -0.1316 -0.3338 -0.1058
   60MOL   C10413202   7.620   0.839   1.701 -0.7763  0.6742 -0.1983
   60MOL   C10513203   7.726   0.635   1.491 -0.3071  0.5904 -0.2103
   60MOL   H10613204   7.689   0.809   1.367 -0.2513  1.3979  1.2683
   60MOL   H10713205   7.724   0.809   1.714 -0.5948  0.4528 -2.0784
   60MOL   H10813206   7.610   0.930   1.760 -2.1200  0.3631  0.0708
   60MOL   H10913207   7.559   0.757   1.739  2.6118 -1.5296  0.7279
   60MOL   H11013208   7.738   0.612   1.597 -0.6498  0.2508 -0.2428
   60MOL   H11113209   7.823   0.614   1.446  1.1267 -0.1065  3.1146
   60MOL   C11213210   7.609   0.545   1.427 -0.2861  0.8891  0.1807
   60MOL   C11313211   7.567   0.438   1.535  0.1528  0.5788 -0.3082
   60MOL   O11413212   7.641   0.345   1.570 -0.0199 -0.8196 -0.5274
   60MOL   C11513213   7.429   0.457   1.598  0.2699  0.5104 -0.2023
   60MOL   C11613214   7.649   0.470   1.296 -0.2087 -0.1650  0.2378
   60MOL   H11713215   7.525   0.611   1.408 -0.4579  0.5358 -0.2812
   60MOL   H11813216   7.349   0.449   1.525  0.2169 -2.2478  0.0811
   60MOL   H11913217   7.418   0.378   1.674 -0.2074 -0.8738 -1.6841
   60MOL   H12013218   7.429   0.553   1.649 -0.7562 -0.6157  2.0349
   60MOL   H12113219   7.670   0.367   1.326  2.2067  0.6146  1.4147
   60MOL   H12213220   7.743   0.503   1.252 -0.6587 -0.3036 -0.8327
   60MOL   C12313221   7.533   0.477   1.190  0.2613  0.1432  0.0036
   60MOL   C12413222   7.544   0.353   1.098  0.6176 -0.1117  0.4478
   60MOL   O12513223   7.600   0.362   0.989  0.3489 -0.2842  0.2034
   60MOL   C12613224   7.481   0.231   1.161  0.0713 -0.2362  0.0633
   60MOL   C12713225   7.521   0.613   1.111 -0.0512  0.9935 -1.1542
   60MOL   H12813226   7.437   0.476   1.242 -0.4024 -2.2285 -1.1975
   60MOL   H12913227   7.405   0.188   1.097  2.2750 -1.3520 -1.8543
   60MOL   H13013228   7.557   0.153   1.160 -1.1967 -1.4813 -1.6979
   60MOL   H13113229   7.441   0.246   1.262  0.5766 -1.5900  0.4788
   60MOL   H13213230   7.615   0.626   1.056  1.2379  1.3195  1.0822
   60MOL   H13313231   7.519   0.689   1.188 -3.1694  1.5936 -1.7620
   60MOL   C13413232   7.393   0.618   1.021 -0.3286 -0.0814 -0.0514
   60MOL   C13513233   7.422   0.683   0.887 -0.6102  0.5171 -0.3720
   60MOL   O13613234   7.437   0.806   0.882 -0.1801  0.0603  0.7309
   60MOL   C13713235   7.448   0.589   0.760  0.2243  0.6563 -0.4215
   60MOL   C13813236   7.271   0.669   1.101  0.2575  0.3306 -0.3045
   60MOL   H13913237   7.384   0.517   0.981  1.4389 -0.4790  0.5212
   60MOL   H14013238   7.528   0.617   0.692  1.0832 -0.0250  0.3071
   60MOL   H14113239   7.474   0.488   0.792 -0.8763  0.4566 -0.1315
   60MOL   H14213240   7.363   0.577   0.692 -0.5539  1.5332  0.3883
   60MOL   H14313241   7.287   0.772   1.133  0.8855  0.6605 -1.6482
   60MOL   H14413242   7.277   0.626   1.202  2.0750  0.7163 -0.2254
   60MOL   C14513243   7.133   0.632   1.036  0.2024  0.8201  0.1357
   60MOL   C14613244   7.102   0.483   1.047  0.5196  0.2797  0.1476
   60MOL   O14713245   7.182   0.397   1.071  0.2012  0.5983 -0.2556
   60MOL   C14813246   6.957   0.439   1.038 -0.4407  0.8056 -0.1234
   60MOL   C14913247   7.104   0.697   0.899 -0.7534  0.5027  0.0753
   60MOL   H15013248   7.054   0.668   1.102 -1.0604 -2.0743  0.2641
   60MOL   H15113249   6.953   0.348   0.979  1.4020  0.2171  0.6198
   60MOL   H15213250   6.919   0.422   1.139 -1.6613 -0.7912 -0.8245
   60MOL   H15313251   6.884   0.508   0.996 -0.7788  0.1794 -0.5650
   60MOL   H15413252   7.004   0.663   0.873 -0.0938  0.0389 -1.9266
   60MOL   H15513253   7.174   0.655   0.827  0.6028 -0.6066  2.0059
   60MOL   C15613254   7.103   0.852   0.897  0.3843 -0.5783 -0.1486
   60MOL   C15713255   6.981   0.905   0.969  0.2664  0.4764  0.0988
   60MOL   O15813256   6.861   0.863   0.940 -0.7988  0.9117  0.1782
   60MOL   C15913257   7.003   1.008   1.080 -0.3736  0.4095  0.8142
   60MOL   C16013258   7.115   0.901   0.752 -0.3249  0.1024  0.2404
   60MOL   H16113259   7.184   0.884   0.963 -0.4180  2.5377 -0.5983
   60MOL   H16213260   7.100   1.028   1.125 -0.3702 -0.4104  1.1767
   60MOL   H16313261   6.963   1.104   1.047 -0.2340  0.6775  1.4087
   60MOL   H16413262   6.941   0.968   1.160 -1.6759  1.2958  0.2710
   60MOL   H16513263   7.022   0.872   0.703 -0.7377  0.0975  1.0224
   60MOL   H16613264   7.193   0.850   0.696  0.2913  0.8047  0.4527
   60MOL   C16713265   7.134   1.052   0.736 -0.0592  0.3367  0.1402
   60MOL   C16813266   7.095   1.083   0.588 -0.8389  0.7936 -0.2101
   60MOL   O16913267   7.178   1.060   0.504  0.1674 -0.7064  0.1093
   60MOL   C17013268   6.974   1.170   0.567  0.9742 -0.7201 -0.4312
   60MOL   C17113269   7.275   1.112   0.776  0.1901 -0.9310 -0.0512
   60MOL   H17213270   7.053   1.105   0.787  0.3471  0.6769  0.4370
   60MOL   H17313271   6.900   1.159   0.647  1.0779  0.3391 -0.1802
   60MOL   H17413272   7.004   1.273   0.583  0.6864 -0.7768  0.5032
   60MOL   H17513273   6.928   1.157   0.469 -0.6849 -2.5342  0.5475
   60MOL   H17613274   7.327   1.148   0.687  1.7569  0.9436  1.5720
   60MOL   H17713275   7.333   1.023   0.800  1.1681 -0.0318  0.9850
   60MOL   C17813276   7.275   1.224   0.880 -0.0629  0.2979 -0.0831
   60MOL   C17913277   7.200   1.354   0.833  0.0344  0.7346 -0.2543
   60MOL   O18013278   7.261   1.436   0.765 -0.0751 -0.1925  0.0023
   60MOL   C18113279   7.063   1.372   0.879  0.3742  0.8504 -0.3067
   60MOL   C18213280   7.415   1.262   0.929 -0.3641 -0.0850 -0.4892
   60MOL   H18313281   7.217   1.184   0.964  2.0592 -2.8858 -0.0155
   60MOL   H18413282   7.014   1.461   0.838 -2.4108 -0.7018 -0.4293
   60MOL   H18513283   7.013   1.283   0.841  1.4035  0.1789 -0.0963
   60MOL   H18613284   7.057   1.369   0.988 -0.4069 -0.7130 -0.3783
   60MOL   H18713285   7.422   1.364   0.966  2.5782 -0.5201  0.2912
   60MOL   H18813286   7.470   1.268   0.835 -0.9285  1.1478 -0.7478
   60MOL   C18913287   7.491   1.169   1.028  0.8025  0.1982  0.1024
   60MOL   C19013288   7.418   1.139   1.156  0.2143  0.0672 -0.5975
   60MOL   O19113289   7.333   1.214   1.209  0.3313  0.5148 -0.1470
   60MOL   C19213290   7.466   1.012   1.222 -0.0812  1.0054 -0.9300
   60MOL   C19313291   7.632   1.228   1.050 -0.3722  0.0511  0.3333
   60MOL   H19413292   7.496   1.069   0.985 -2.1597  0.4251 -0.8714
   60MOL   H19513293   7.514   0.946   1.150 -3.2054 -2.1241 -0.3302
   60MOL   H19613294   7.528   1.051   1.302 -1.5263 -0.4963  0.9902
   60MOL   H19713295   7.379   0.957   1.257  1.1831 -2.3285 -2.8099
   60MOL   H19813296   7.680   1.165   1.125  2.5336  0.1839 -1.3744
   60MOL   H19913297   7.622   1.323   1.103 -0.2680  0.2782 -0.0563
   60MOL   C20013298   7.721   1.238   0.926 -0.2464 -0.6988 -0.0349
   60MOL   C20113299   7.720   1.111   0.836  0.4929  0.1267  0.2976
   60MOL   O20213300   7.786   1.014   0.862  0.9165 -0.0297 -0.1263
   60MOL   C20313301   7.622   1.120   0.713  0.3836  1.0515 -0.4912
   60MOL   C20413302   0.029   1.274   0.966  0.0058 -0.8171  0.2854
   60MOL   H20513303   7.679   1.325   0.876 -0.8234 -0.2301  1.2499
   60MOL   H20613304   7.657   1.064   0.626  1.2199  0.8930 -0.0554
   60MOL   H20713305   7.521   1.087   0.734  0.8445 -2.2899 -3.0284
   60MOL   H20813306   7.625   1.226   0.686  1.1855  1.3872  0.8405
   60MOL   H20913307   0.087   1.300   0.878 -0.7810  0.7588  0.2084
   60MOL   H21013308   0.082   1.188   1.006  1.4098  0.0205  0.2611
   60MOL   C21113309   0.040   1.403   1.063 -0.1089 -0.1396  0.4474
   60MOL   C21213310   7.817   1.530   1.003 -0.4651 -0.3446 -0.0831
   60MOL   O21313311   0.021   1.563   0.894  0.6246  0.5203 -0.3041
   60MOL   C21413312   7.719   1.612   1.083 -0.3551 -0.4235 -0.3241
   60MOL   C21513313   0.181   1.443   1.100 -0.4381  0.2917 -0.2748
   60MOL   H21613314   7.828   1.398   1.158  1.9719 -1.1323  1.6158
   60MOL   H21713315   7.762   1.694   1.140  0.6128 -0.6957 -0.6601
   60MOL   H21813316   7.644   1.668   1.027  0.3911  0.4760 -0.4292
   60MOL   H21913317   7.660   1.541   1.141 -0.5327  0.4339  0.5529
   60MOL   H22013318   0.247   1.451   1.013  1.0704 -0.0290  0.8309
   60MOL   H22113319   0.221   1.369   1.169 -2.5221  0.3287  0.9987
   60MOL   H22213320   0.169   1.536   1.156  0.7765  0.3891 -0.1670
   61MOL     C113321   2.272   7.312   7.538 -0.1372 -0.0705  0.2777
   61MOL     C213322   2.296   7.396   7.407 -0.5270 -0.0979 -0.2875
   61MOL     O313323   2.288   7.342   7.294  0.0601 -0.2143 -0.1749
   61MOL     C413324   2.297   7.548   7.415 -0.6215 -0.4433  0.1998
   61MOL     C513325   2.357   7.177   7.551  0.4123  0.3320 -0.5681
   61MOL     H613326   2.292   7.375   7.624 -0.5249  0.4140  0.0184
   61MOL     H713327   2.342   7.577   7.509 -1.7111  2.5283 -0.1593
   61MOL     H813328   2.351   7.595   7.332 -2.8447  1.0452 -0.4370
   61MOL     H913329   2.200   7.595   7.421  0.9977  2.7511  2.3941
   61MOL    H1013330   2.376   7.161   7.657  0.8399 -0.4861 -0.7687
   61MOL    H1113331   2.458   7.192   7.513  0.0202 -0.3966 -1.9246
   61MOL    H1213332   2.164   7.297   7.545 -0.5480  1.7036 -1.5807
   61MOL    C1313333   2.301   7.055   7.483  0.3575  0.0498  0.3477
   61MOL    C1413334   2.173   7.000   7.546 -0.2139 -1.0847  0.5009
   61MOL    O1513335   2.077   6.966   7.473  0.3671 -0.5107 -0.0109
   61MOL    C1613336   2.158   7.014   7.694 -0.3725  0.3053 -0.4438
   61MOL    C1713337   2.404   6.937   7.486 -0.2635 -0.5428  0.4994
   61MOL    H1813338   2.273   7.085   7.382 -0.5532  0.6989  0.7802
   61MOL    H1913339   2.168   7.122   7.698  1.2788  0.1225  0.8627
   61MOL    H2013340   2.059   6.990   7.735 -0.9487 -0.0903 -2.0477
   61MOL    H2113341   2.243   6.980   7.754 -0.7595 -2.6556 -1.4977
   61MOL    H2213342   2.353   6.848   7.447  0.9035 -1.5993  1.3385
   61MOL    H2313343   2.438   6.920   7.588 -3.2516 -0.1702  1.6068
   61MOL    C2413344   2.533   6.960   7.396 -0.3731  1.5043 -0.4814
   61MOL    C2513345   2.484   6.988   7.251 -0.3829 -0.4000 -0.2331
   61MOL    O2613346   2.436   6.904   7.179  0.2759  0.0368 -0.2429
   61MOL    C2713347   2.508   7.122   7.191 -1.1489  0.3683 -0.3802
   61MOL    C2813348   2.636   6.836   7.415 -0.5738  0.8036  0.6120
   61MOL    H2913349   2.588   7.046   7.436 -0.4355  0.8265  1.0824
   61MOL    H3013350   2.545   7.117   7.089 -2.1655 -0.0807 -0.7265
   61MOL    H3113351   2.411   7.170   7.175 -1.4183  0.0587  0.2849
   61MOL    H3213352   2.577   7.167   7.262 -1.9261 -3.0953  2.7099
   61MOL    H3313353   2.598   6.752   7.359  0.5586  0.6268  0.0879
   61MOL    H3413354   2.621   6.815   7.521  0.5477 -0.8747  0.4537
   61MOL    C3513355   2.786   6.865   7.382  0.4456 -0.0741 -0.2449
   61MOL    C3613356   2.838   6.967   7.488  1.1727 -0.2664  0.5453
   61MOL    O3713357   2.831   7.093   7.469 -0.2680  0.9090 -0.1782
   61MOL    C3813358   2.904   6.909   7.615 -0.1165 -0.5630  0.3493
   61MOL    C3913359   2.810   6.920   7.238 -0.5488 -0.4029 -0.2246
   61MOL    H4013360   2.849   6.778   7.394  0.9561 -0.0824 -2.8966
   61MOL    H4113361   2.996   6.858   7.585 -0.4711  0.2001 -2.1926
   61MOL    H4213362   2.940   6.984   7.685  1.6431 -0.2547 -0.8484
   61MOL    H4313363   2.836   6.841   7.665 -1.2109  0.1477 -0.1452
   61MOL    H4413364   2.909   6.965   7.232 -0.1434 -1.2489  0.1575
   61MOL    H4513365   2.744   7.007   7.233  0.3750  0.3455  0.3743
   61MOL    C4613366   2.796   6.813   7.127  0.0862 -0.4410  0.4006
   61MOL    C4713367   2.914   6.720   7.144 -0.0209 -0.5839 -0.0284
   61MOL    O4813368   3.025   6.753   7.106 -0.0961  0.2405  0.5895
   61MOL    C4913369   2.881   6.583   7.203  0.0051  0.4279  0.6622
   61MOL    C5013370   2.775   6.872   6.985 -0.5815 -0.4440  0.4300
   61MOL    H5113371   2.703   6.761   7.150  0.3014 -0.8002  0.4656
   61MOL    H5213372   2.871   6.507   7.125 -2.6181  0.6049  0.7824
   61MOL    H5313373   2.953   6.547   7.276  1.2771  0.9275 -0.3143
   61MOL    H5413374   2.784   6.591   7.252  0.6847  1.6744  1.8285
   61MOL    H5513375   2.865   6.857   6.927 -1.1475  0.1305 -0.6101
   61MOL    H5613376   2.768   6.980   6.995  2.8517 -0.1009 -0.2138
   61MOL    C5713377   2.649   6.834   6.913  0.0937  0.2347 -0.0700
   61MOL    C5813378   2.598   6.690   6.910 -0.1061  0.4025 -0.5822
   61MOL    O5913379   2.655   6.602   6.852 -0.6310 -0.1344  0.1576
   61MOL    C6013380   2.479   6.657   6.995 -0.0557 -0.0225 -0.5234
   61MOL    C6113381   2.648   6.895   6.766 -0.4293  0.1829 -0.2137
   61MOL    H6213382   2.573   6.893   6.965  0.1077  0.7669 -0.6387
   61MOL    H6313383   2.398   6.730   7.001  0.3333  0.3160  0.6711
   61MOL    H6413384   2.435   6.565   6.954  2.9610 -1.1540 -1.3789
   61MOL    H6513385   2.498   6.652   7.102 -1.6644 -1.3533 -0.2738
   61MOL    H6613386   2.651   6.820   6.687 -0.8898  1.1799 -1.1981
   61MOL    H6713387   2.734   6.961   6.756 -0.2799 -0.0466 -0.4529
   61MOL    C6813388   2.538   6.997   6.744 -0.3092  0.0560 -0.1497
   61MOL    C6913389   2.404   6.926   6.764 -0.2038 -0.1028  0.1501
   61MOL    O7013390   2.387   6.819   6.706  0.2392  0.1307  0.1020
   61MOL    C7113391   2.299   6.999   6.839 -0.7093  0.7639  0.1012
   61MOL    C7213392   2.552   7.073   6.606  0.6879 -0.0436 -0.4799
   61MOL    H7313393   2.549   7.071   6.822  2.2050 -0.6333  0.1778
   61MOL    H7413394   2.212   6.939   6.867 -1.1833  1.9235  1.1376
   61MOL    H7513395   2.343   7.028   6.934  1.9884  2.0731 -1.4740
   61MOL    H7613396   2.271   7.084   6.777  4.2892  1.1740 -1.8112
   61MOL    H7713397   2.632   7.147   6.615  1.7299 -1.2281  0.4186
   61MOL    H7813398   2.461   7.132   6.600  1.0552  0.9027  2.3592
   61MOL    C7913399   2.577   6.997   6.472  0.1526  0.3479 -0.5754
   61MOL    C8013400   2.725   6.956   6.447 -0.5887  0.8124  0.3365
   61MOL    O8113401   2.821   7.026   6.444  0.0432 -0.2972 -0.2985
   61MOL    C8213402   2.748   6.806   6.407 -0.3645 -0.0798 -0.1533
   61MOL    C8313403   2.506   7.058   6.348 -0.3487 -0.1469 -0.0794
   61MOL    H8413404   2.531   6.898   6.473  0.0039  0.4145 -0.8652
   61MOL    H8513405   2.785   6.739   6.485  1.0590  1.2717  0.3540
   61MOL    H8613406   2.674   6.744   6.356  0.9763 -2.2540  0.4594
   61MOL    H8713407   2.823   6.803   6.328  2.9189 -1.2409  2.8762
   61MOL    H8813408   2.399   7.046   6.360 -0.4279  0.5994 -0.0411
   61MOL    H8913409   2.523   6.991   6.263 -2.4974 -1.0328  0.1683
   61MOL    C9013410   2.537   7.209   6.315 -0.4727  0.1431  0.4159
   61MOL    C9113411   2.458   7.251   6.187  0.6967 -0.1673 -0.9386
   61MOL    O9213412   2.491   7.213   6.073  0.4348  0.2871  0.1241
   61MOL    C9313413   2.346   7.347   6.218 -0.7126  0.0893 -0.0404
   61MOL    C9413414   2.692   7.253   6.309 -0.3190  0.2883 -0.3118
   61MOL    H9513415   2.485   7.261   6.396  1.1218  0.4306  1.2702
   61MOL    H9613416   2.253   7.294   6.197 -1.6254  2.2740 -1.7380
   61MOL    H9713417   2.340   7.388   6.319  1.0157 -0.4725  0.3049
   61MOL    H9813418   2.332   7.431   6.149  0.8401  2.0606  1.9793
   61MOL    H9913419   2.746   7.191   6.238  0.0982  1.3283 -0.9044
   61MOL   H10013420   2.728   7.241   6.412 -1.2352  0.6694  0.0543
   61MOL   C10113421   2.730   7.400   6.267 -0.3119  0.1573 -0.0538
   61MOL   C10213422   2.882   7.428   6.232  0.0291 -0.4883 -0.1390
   61MOL   O10313423   2.953   7.489   6.310 -0.4343 -0.4343  0.5055
   61MOL   C10413424   2.935   7.379   6.099  0.2770  0.0211 -0.3856
   61MOL   C10513425   2.683   7.510   6.368  0.3747  0.4501 -0.5524
   61MOL   H10613426   2.677   7.425   6.175  0.2225  2.9736  0.3385
   61MOL   H10713427   2.898   7.280   6.072  0.0928 -0.3706  1.2440
   61MOL   H10813428   2.907   7.453   6.024  1.9066  1.4136  0.3522
   61MOL   H10913429   3.040   7.349   6.105 -0.3688 -2.5037 -1.1596
   61MOL   H11013430   2.743   7.513   6.459  0.4676 -1.2647 -0.5420
   61MOL   H11113431   2.583   7.482   6.401  0.4014  1.7156  0.6299
   61MOL   C11213432   2.675   7.645   6.296 -0.3904 -0.4611 -0.2825
   61MOL   C11313433   2.687   7.763   6.398  0.8965  0.1731 -0.1509
   61MOL   O11413434   2.587   7.827   6.436 -0.0482 -0.2877  0.4069
   61MOL   C11513435   2.835   7.818   6.435  0.2236  0.7988 -0.3062
   61MOL   C11613436   2.545   7.657   6.211  0.4251  0.2484  0.6275
   61MOL   H11713437   2.761   7.652   6.230 -1.2658 -0.0041 -1.3870
   61MOL   H11813438   2.837   7.835   6.543  1.6025 -0.7564 -0.0706
   61MOL   H11913439   2.913   7.749   6.404  0.1164  0.0897  0.9627
   61MOL   H12013440   2.861   0.072   6.392  0.2204  0.5942 -0.7662
   61MOL   H12113441   2.458   7.680   6.273 -1.7562  1.1102 -2.6570
   61MOL   H12213442   2.525   7.553   6.183  2.1353 -0.1517  0.8531
   61MOL   C12313443   2.554   7.746   6.085 -0.0373 -0.1787 -0.2454
   61MOL   C12413444   2.420   7.786   6.028  0.6239  0.4442  0.3159
   61MOL   O12513445   2.367   7.722   5.939 -0.4143  0.2816  0.1308
   61MOL   C12613446   2.346   0.061   6.082  0.1897 -0.0932 -0.3081
   61MOL   C12713447   2.648   7.701   5.971 -1.2202  0.1034 -0.3541
   61MOL   H12813448   2.595   0.003   6.107  0.4882 -0.2488 -0.8978
   61MOL   H12913449   2.369   0.161   6.045 -1.5789  0.3449 -0.2495
   61MOL   H13013450   2.239   0.042   6.074 -0.0090  0.6555  0.5232
   61MOL   H13113451   2.369   0.073   6.188  1.8725 -0.0551 -0.6612
   61MOL   H13213452   2.585   7.660   5.892 -0.8838 -0.1385 -0.4982
   61MOL   H13313453   2.697   7.606   5.990 -2.8695 -0.3745  1.7003
   61MOL   C13413454   2.744   7.792   5.896  0.0272  0.8822  0.7117
   61MOL   C13513455   2.859   0.002   5.983 -0.1427 -0.8511 -0.0180
   61MOL   O13613456   2.847   0.093   6.065  0.2931 -0.2419  0.0541
   61MOL   C13713457   2.997   7.797   5.954  0.1066  0.7840  0.3295
   61MOL   C13813458   2.680   0.051   5.801  0.5285 -0.5135  0.1228
   61MOL   H13913459   2.794   7.714   5.837  1.0355  1.3257  0.9739
   61MOL   H14013460   3.063   7.815   6.039 -1.6854  0.5749  1.8164
   61MOL   H14113461   2.983   7.689   5.944 -0.0766  0.8848 -0.5023
   61MOL   H14213462   3.031   0.003   5.863  1.4139  0.4571  0.6370
   61MOL   H14313463   2.721   0.152   5.806  1.7247 -0.8804 -1.7191
   61MOL   H14413464   2.576   0.068   5.826 -0.2404 -1.6626 -2.1537
   61MOL   C14513465   2.682   0.012   5.651  0.6131 -0.5156  0.6118
   61MOL   C14613466   2.828   7.829   5.601  0.2528  0.4915  0.0822
   61MOL   O14713467   2.924   0.058   5.626 -0.1308 -0.2379 -0.2391
   61MOL   C14813468   2.847   7.709   5.509 -0.1880 -0.4021  0.3690
   61MOL   C14913469   2.614   0.128   5.576  0.1937  0.0630  0.1530
   61MOL   H15013470   2.615   7.770   5.635 -0.6297  0.6718 -0.6629
   61MOL   H15113471   2.829   7.614   5.561  1.9978 -0.7988  0.4363
   61MOL   H15213472   2.786   7.712   5.419 -2.4279 -0.2767  1.8292
   61MOL   H15313473   2.955   7.703   5.498 -0.1952  0.3237 -0.1041
   61MOL   H15413474   2.671   0.220   5.589  1.8577 -0.7806 -0.9895
   61MOL   H15513475   2.518   0.149   5.623  1.3174 -1.0111  3.0411
   61MOL   C15613476   2.590   0.096   5.426 -0.2607 -0.1530  0.4532
   61MOL   C15713477   2.591   0.223   5.339  0.2905 -0.0033  0.4911
   61MOL   O15813478   2.513   0.315   5.362 -0.3584 -0.7998  0.3817
   61MOL   C15913479   2.697   0.231   5.233 -0.4199  0.2638  0.3693
   61MOL   C16013480   2.459   0.008   5.415 -0.1723 -1.2071  0.3060
   61MOL   H16113481   2.678   0.047   5.385 -0.2977 -1.0456  1.4265
   61MOL   H16213482   2.695   0.321   5.171 -0.5978 -0.5510 -0.8395
   61MOL   H16313483   2.798   0.226   5.275 -1.0478 -1.9728  1.6465
   61MOL   H16413484   2.690   0.151   5.159  4.2072  0.6686 -0.7072
   61MOL   H16513485   2.370   0.062   5.448  1.9831  1.9976  1.0254
   61MOL   H16613486   2.461   7.782   5.500 -1.4582 -1.1494  0.3853
   61MOL   C16713487   2.427   7.772   5.292 -0.0350  0.2014  0.6074
   61MOL   C16813488   2.548   7.692   5.230 -0.0504  0.1080  0.0966
   61MOL   O16913489   2.622   7.740   5.147 -0.3012 -0.1388 -0.1328
   61MOL   C17013490   2.564   7.551   5.275  0.4156 -0.9484  0.2998
   61MOL   C17113491   2.346   0.022   5.192  0.0613  0.1513  0.2031
   61MOL   H17213492   2.368   7.686   5.327  2.2838 -1.7099 -0.0468
   61MOL   H17313493   2.630   7.495   5.209  1.3476  1.5914 -1.0120
   61MOL   H17413494   2.610   7.560   5.373  1.1628  0.8658 -0.2021
   61MOL   H17513495   2.471   7.496   5.287 -1.0484  1.2680 -0.3832
   61MOL   H17613496   2.420   0.084   5.139 -1.4443  0.9354 -1.0346
   61MOL   H17713497   2.277   0.081   5.252  0.8791  1.8964 -0.5102
   61MOL   C17813498   2.262   7.776   5.087 -0.0740 -0.1723  0.7033
   61MOL   C17913499   2.331   7.755   4.951  0.5520 -0.2836 -0.0132
   61MOL   O18013500   2.345   7.641   4.910 -0.1186  0.1747 -0.4463
   61MOL   C18113501   2.363   0.045   4.873  0.0776  0.2151  0.1934
   61MOL   C18213502   2.119   7.822   5.066  1.1766 -0.3945  0.3117
   61MOL   H18313503   2.250   7.674   5.124  0.0603 -0.7641 -0.8564
   61MOL   H18413504   2.334   0.134   4.929 -1.0270 -0.5282  0.8504
   61MOL   H18513505   2.470   0.038   4.858  0.2950  0.8250  1.3971
   61MOL   H18613506   2.306   0.049   4.780  1.8977  1.4483 -0.8894
   61MOL   H18713507   2.128   0.082   5.031 -0.9114 -0.1778  0.3440
   61MOL   H18813508   2.073   7.841   5.163  1.1811 -0.2317  0.2812
   61MOL   C18913509   2.025   7.725   4.989  0.0055 -0.5586 -1.1414
   61MOL   C19013510   1.956   7.811   4.879 -0.3076 -1.0631 -0.2162
   61MOL   O19113511   1.862   0.056   4.892  0.1277 -0.3009 -0.0335
   61MOL   C19213512   1.983   7.788   4.734 -0.0381 -0.4320  0.8385
   61MOL   C19313513   1.927   7.648   5.088  0.4108 -0.5905 -0.1784
   61MOL   H19413514   2.097   7.654   4.948  1.0504 -0.8584  1.1754
   61MOL   H19513515   1.900   7.731   4.691 -0.9313 -0.0773  2.0491
   61MOL   H19613516   2.002   0.043   4.687 -0.5922 -0.6692  0.1153
   61MOL   H19713517   2.067   7.720   4.720 -1.1181 -1.1536 -2.8446
   61MOL   H19813518   1.844   7.712   5.116  0.5008 -0.5175 -0.0792
   61MOL   H19913519   1.970   7.641   5.187 -2.8628  0.6524  1.3968
   61MOL   C20013520   1.876   7.513   5.029  0.5201 -0.3380 -0.1437
   61MOL   C20113521   1.834   7.507   4.876  0.0820  0.1291 -0.8474
   61MOL   O20213522   1.903   7.457   4.789 -0.1528  0.0048 -0.1407
   61MOL   C20313523   1.698   7.555   4.845 -0.5721 -0.4740  0.8898
   61MOL   C20413524   1.768   7.445   5.119  0.2088 -0.0878 -0.1314
   61MOL   H20513525   1.959   7.443   5.032 -1.8367 -3.1970  0.8367
   61MOL   H20613526   1.673   7.583   4.743  1.1840 -0.9217  0.3188
   61MOL   H20713527   1.630   7.471   4.859 -2.5579  0.7146 -1.2813
   61MOL   H20813528   1.672   7.628   4.921 -0.1978  0.2812  0.3016
   61MOL   H20913529   1.679   7.506   5.106 -0.1536 -0.5892 -0.0282
   61MOL   H21013530   1.782   7.459   5.226 -0.7508  0.9271 -0.1276
   61MOL   C21113531   1.737   7.291   5.088  0.1374  0.4941  0.2618
   61MOL   C21213532   1.596   7.263   5.120  0.3643  0.5324 -0.3434
   61MOL   O21313533   1.539   7.323   5.212 -0.7690  0.3394 -0.7177
   61MOL   C21413534   1.529   7.149   5.046  0.0342 -0.5240 -0.3067
   61MOL   C21513535   1.839   7.207   5.178  0.3950  0.2745  0.4412
   61MOL   H21613536   1.756   7.275   4.982  2.1948 -1.8411  0.9185
   61MOL   H21713537   1.478   7.082   5.115 -0.5032  0.2609  0.0551
   61MOL   H21813538   1.445   7.195   4.994  1.2214  0.5339 -1.3123
   61MOL   H21913539   1.595   7.084   4.988  1.0254 -0.1535  0.4066
   61MOL   H22013540   1.826   7.203   5.286 -0.6751 -0.2426  0.2990
   61MOL   H22113541   1.944   7.230   5.159  0.1490 -0.0341 -1.4631
   61MOL   H22213542   1.815   7.103   5.155  0.5861  0.5872 -1.2414
   62MOL     C113543   2.009   6.566   7.533 -1.0834 -0.5588  0.6086
   62MOL     C213544   2.075   6.641   7.654  0.0440  0.5667 -0.0256
   62MOL     O313545   2.196   6.650   7.663 -0.0133 -0.4141  0.4359
   62MOL     C413546   1.975   6.673   7.760 -0.7123 -0.3486 -0.4933
   62MOL     C513547   2.103   6.459   7.474 -0.7357  0.1210  0.0114
   62MOL     H613548   1.910   6.530   7.559 -2.2772  2.0300 -0.1086
   62MOL     H713549   2.023   6.717   0.006 -2.4004  2.3345 -0.8619
   62MOL     H813550   1.898   6.743   7.732  0.2210 -0.5397 -3.6676
   62MOL     H913551   1.932   6.579   7.795 -0.4400  0.5618  2.4696
   62MOL    H1013552   2.043   6.371   7.450  0.2829 -0.2929 -1.0614
   62MOL    H1113553   2.166   6.427   7.557  0.0733  0.7948 -0.3309
   62MOL    H1213554   1.974   6.640   7.461  0.0491 -2.6575 -2.1552
   62MOL    C1313555   2.192   6.508   7.358 -0.2064 -0.4887  0.3789
   62MOL    C1413556   2.109   6.570   7.248  0.6992  1.4909  0.1180
   62MOL    O1513557   2.043   6.503   7.167  0.1485  0.1708  0.2843
   62MOL    C1613558   2.108   6.720   7.232  0.3595  0.2560 -0.0314
   62MOL    C1713559   2.270   6.382   7.296  0.1239  0.4863  0.4407
   62MOL    H1813560   2.267   6.583   7.384  1.0950 -1.6078 -0.0840
   62MOL    H1913561   2.025   6.756   7.172  1.9022 -0.0117 -2.4048
   62MOL    H2013562   2.100   6.763   7.332 -2.3765  0.7646 -0.4579
   62MOL    H2113563   2.198   6.757   7.183  1.4879  0.4518  2.0953
   62MOL    H2213564   2.312   6.416   7.201 -0.4105  0.2643  0.1203
   62MOL    H2313565   2.203   6.302   7.264 -0.5562  2.1919 -2.6084
   62MOL    C2413566   2.375   6.317   7.389 -0.6424  0.2361 -0.4473
   62MOL    C2513567   2.485   6.420   7.414 -0.4230  0.4806  0.1616
   62MOL    O2613568   2.554   6.448   7.314  0.1316 -0.7596  0.0283
   62MOL    C2713569   2.527   6.462   7.550 -0.1202  0.6341 -0.1845
   62MOL    C2813570   2.433   6.183   7.330  0.0408 -0.2403  0.4600
   62MOL    H2913571   2.323   6.282   7.478  1.2234 -3.9325 -0.8514
   62MOL    H3013572   2.567   6.563   7.543 -1.4740  1.2543  0.7082
   62MOL    H3113573   2.429   6.476   7.596  1.3013 -0.1441  3.2996
   62MOL    H3213574   2.581   6.401   7.623 -2.3872 -1.6659 -0.3366
   62MOL    H3313575   2.482   6.203   7.234 -0.4693 -1.3081 -0.0277
   62MOL    H3413576   2.346   6.119   7.315 -0.5843  0.2320  1.9595
   62MOL    C3513577   2.539   6.105   7.412 -0.7163  0.1182 -0.4909
   62MOL    C3613578   2.479   6.077   7.544  0.0373 -0.1990  0.5167
   62MOL    O3713579   2.482   6.150   7.641 -0.6010  0.2658 -0.4253
   62MOL    C3813580   2.403   5.948   7.557 -0.2744 -0.2145 -0.7005
   62MOL    C3913581   2.682   6.174   7.423 -0.3359 -0.1192 -0.4651
   62MOL    H4013582   2.556   6.006   7.370 -1.5134 -1.4302  2.6939
   62MOL    H4113583   2.469   5.887   7.619 -1.4010 -1.2082 -0.4590
   62MOL    H4213584   2.306   5.968   7.603  0.4988  1.8842  0.0986
   62MOL    H4313585   2.384   5.909   7.458 -0.1457  0.2630 -0.9135
   62MOL    H4413586   2.676   6.250   7.501  1.7211 -1.7797  1.3866
   62MOL    H4513587   2.704   6.222   7.328 -0.7974  1.8703  0.4225
   62MOL    C4613588   2.805   6.079   7.450 -0.3698 -0.3532  0.1098
   62MOL    C4713589   2.802   6.009   7.585  0.8960  0.9971 -0.5314
   62MOL    O4813590   2.830   6.058   7.695 -0.4151  0.4803  0.1046
   62MOL    C4913591   2.763   5.863   7.590  0.6615 -0.0566 -0.0716
   62MOL    C5013592   2.928   6.168   7.444 -0.6695 -0.2876 -0.4964
   62MOL    H5113593   2.810   6.005   7.370  0.9995 -0.5370  0.3543
   62MOL    H5213594   2.716   5.813   7.506 -2.0140 -0.6860  1.7464
   62MOL    H5313595   2.850   5.798   7.604  0.5010 -0.6641 -1.7297
   62MOL    H5413596   2.687   5.864   7.667  0.9604  1.3899  0.2230
   62MOL    H5513597   2.921   6.250   7.516  1.0114  1.1620 -1.9255
   62MOL    H5613598   2.920   6.214   7.346 -2.0633  1.3452  0.3705
   62MOL    C5713599   3.066   6.097   7.458 -1.0394  0.1844 -0.0797
   62MOL    C5813600   3.178   6.199   7.474 -0.3539  0.9676  0.1719
   62MOL    O5913601   3.196   6.274   7.381  0.1661  0.5121  0.5341
   62MOL    C6013602   3.250   6.221   7.605 -0.4131 -0.6635  0.1846
   62MOL    C6113603   3.091   6.004   7.335  0.2454  0.6174 -0.0037
   62MOL    H6213604   3.076   6.040   7.551  1.5700  2.0559  0.8317
   62MOL    H6313605   3.330   6.293   7.585  0.3572 -2.5718 -4.0808
   62MOL    H6413606   3.182   6.271   7.674  1.4992  1.1786  0.7980
   62MOL    H6513607   3.287   6.127   7.646 -0.0581 -0.0229  1.3361
   62MOL    H6613608   3.037   6.043   7.248 -2.1254 -1.9159  0.2595
   62MOL    H6713609   3.036   5.910   7.346  0.0666  0.6053 -0.9446
   62MOL    C6813610   3.230   5.969   7.290 -0.0726 -0.2539  0.9387
   62MOL    C6913611   3.238   5.904   7.154  0.4721  0.2716  0.4524
   62MOL    O7013612   3.278   5.792   7.134 -0.1460  0.4239 -0.3907
   62MOL    C7113613   3.191   5.997   7.038 -0.4245  0.6802 -0.3362
   62MOL    C7213614   3.308   5.897   7.397 -0.6909 -0.2250 -0.1191
   62MOL    H7313615   3.284   6.064   7.290  0.9982 -0.8454  0.1931
   62MOL    H7413616   3.083   6.009   7.036 -0.4197  0.6271 -1.1676
   62MOL    H7513617   3.227   6.098   7.053 -1.5413  1.0669 -0.1847
   62MOL    H7613618   3.235   5.968   6.943  2.5216  1.4858  0.7340
   62MOL    H7713619   3.279   5.793   7.392  1.0923 -0.6979 -1.3182
   62MOL    H7813620   3.271   5.934   7.492 -1.1095 -2.2737  0.5334
   62MOL    C7913621   3.463   5.903   7.389  0.3134 -0.2444  0.2675
   62MOL    C8013622   3.539   5.805   7.478  0.3736  0.8760  0.0770
   62MOL    O8113623   3.636   5.839   7.544  0.8655 -0.1340  0.1122
   62MOL    C8213624   3.492   5.658   7.477  0.6921  0.0114 -0.3935
   62MOL    C8313625   3.505   6.049   7.410 -0.7358  0.5890 -0.2250
   62MOL    H8413626   3.482   5.881   7.284 -2.5462 -0.9891 -0.1328
   62MOL    H8513627   3.426   5.646   7.390 -0.0895  0.1693  0.1709
   62MOL    H8613628   3.583   5.600   7.463  0.3892 -0.8652  1.1928
   62MOL    H8713629   3.444   5.628   7.570 -0.7262 -0.1208 -1.1451
   62MOL    H8813630   3.550   6.062   7.509 -2.0785 -0.1750  0.5062
   62MOL    H8913631   3.415   6.109   7.419 -1.5877 -0.4100 -1.8096
   62MOL    C9013632   3.589   6.105   7.295 -0.5870 -0.4633  0.3252
   62MOL    C9113633   3.730   6.037   7.294  0.4619  0.9086  0.6248
   62MOL    O9213634   3.755   5.942   7.222  0.5048  0.4048 -0.3211
   62MOL    C9313635   3.841   6.086   7.387  0.5118 -0.6519  0.7855
   62MOL    C9413636   3.594   6.267   7.300 -0.4345  0.0275  0.4852
   62MOL    H9513637   3.546   6.078   7.199 -1.2377  2.6568 -0.3327
   62MOL    H9613638   3.927   6.018   7.387  1.6508  0.7205 -2.0950
   62MOL    H9713639   3.871   6.190   7.373  0.4774 -0.6059  1.0507
   62MOL    H9813640   3.800   6.077   7.488  2.0054 -0.3235  1.4466
   62MOL    H9913641   3.674   6.314   7.357  1.4389 -1.2988 -0.9859
   62MOL   H10013642   3.506   6.300   7.355  0.4174 -0.4919  2.1811
   62MOL   C10113643   3.610   6.334   7.162 -0.4658 -0.5589 -0.4278
   62MOL   C10213644   3.759   6.342   7.119 -0.6862  0.1876 -0.1469
   62MOL   O10313645   3.805   6.264   7.039 -0.3360  0.2368  0.0064
   62MOL   C10413646   3.841   6.448   7.187 -0.2803  0.5004 -0.3349
   62MOL   C10513647   3.548   6.471   7.170 -0.1994  0.2243 -0.1517
   62MOL   H10613648   3.563   6.290   7.073  0.7319  2.4141 -2.6218
   62MOL   H10713649   3.943   6.447   7.151 -0.3920  0.4110 -0.6497
   62MOL   H10813650   3.803   6.550   7.178 -1.0064  0.2959  0.3430
   62MOL   H10913651   3.861   6.422   7.291 -0.9042  0.7144 -0.1567
   62MOL   H11013652   3.583   6.540   7.094  1.5908  1.1171  1.4171
   62MOL   H11113653   3.571   6.516   7.267 -0.2324  0.8555 -0.4326
   62MOL   C11213654   3.396   6.475   7.157 -0.1449  0.1436  0.1558
   62MOL   C11313655   3.351   6.417   7.020 -0.2867 -0.8925  0.4093
   62MOL   O11413656   3.428   6.418   6.924 -0.0932  0.3606  0.1853
   62MOL   C11513657   3.212   6.365   7.001 -0.5871  1.1221 -0.2252
   62MOL   C11613658   3.338   6.623   7.167 -0.0379  0.2909 -0.1795
   62MOL   H11713659   3.361   6.403   7.231 -0.3709 -1.1474 -1.1869
   62MOL   H11813660   3.134   6.439   7.018 -0.0802  1.8793 -1.0669
   62MOL   H11913661   3.212   6.311   6.906  1.7639 -0.0578  0.3938
   62MOL   H12013662   3.207   6.287   7.076 -0.4893  2.3053  1.0261
   62MOL   H12113663   3.247   6.637   7.109 -0.9450  1.9543  1.5612
   62MOL   H12213664   3.407   6.682   7.106  0.8124 -2.0578 -1.5500
   62MOL   C12313665   3.330   6.691   7.302  0.4172 -0.2822  0.6775
   62MOL   C12413666   3.244   6.618   7.402  0.4236 -0.9158 -0.4958
   62MOL   O12513667   3.127   6.647   7.429 -0.3738  0.2272  0.6990
   62MOL   C12613668   3.319   6.532   7.497  0.4763  0.2740  0.0501
   62MOL   C12713669   3.301   6.844   7.288  0.3229 -0.4505  0.0786
   62MOL   H12813670   3.431   6.682   7.343  1.5394  2.1133 -1.4432
   62MOL   H12913671   3.390   6.584   7.561 -1.1836  1.1774  1.1803
   62MOL   H13013672   3.254   6.483   7.569  0.2571  0.0560 -0.2912
   62MOL   H13113673   3.383   6.460   7.444  0.5634 -0.0555  0.5970
   62MOL   H13213674   3.195   6.865   7.284  0.2742  0.1509  2.8902
   62MOL   H13313675   3.328   6.879   7.188  0.0911 -0.7122 -0.0739
   62MOL   C13413676   3.369   6.924   7.398 -0.6457  0.0016 -0.5640
   62MOL   C13513677   3.260   7.012   7.462  0.0191  0.2640 -0.8076
   62MOL   O13613678   3.238   6.998   7.583 -0.2886 -0.2792  0.7902
   62MOL   C13713679   3.201   7.119   7.371  0.1514 -1.2204  0.2799
   62MOL   C13813680   3.499   6.995   7.346  0.9114  0.4285 -0.5975
   62MOL   H13913681   3.396   6.852   7.475  1.9707  0.3414 -1.1229
   62MOL   H14013682   3.189   7.216   7.420 -0.1822 -0.5743 -1.0450
   62MOL   H14113683   3.265   7.134   7.284 -0.0648 -0.5667  0.2279
   62MOL   H14213684   3.108   7.084   7.327  0.4112 -1.6018  0.0307
   62MOL   H14313685   3.473   7.100   7.359 -2.1273 -0.1398 -1.5771
   62MOL   H14413686   3.520   6.969   7.242  1.8319 -1.5075  0.0499
   62MOL   C14513687   3.620   6.982   7.436 -0.0353  0.0458 -0.2189
   62MOL   C14613688   3.667   6.835   7.429 -0.2477 -0.6387 -0.3729
   62MOL   O14713689   3.648   6.768   7.524  0.2528 -0.4923 -0.3570
   62MOL   C14813690   3.735   6.791   7.301 -0.0312  1.2898 -0.9901
   62MOL   C14913691   3.603   7.040   7.580  0.2406  0.1035 -0.1439
   62MOL   H15013692   3.702   7.038   7.391  0.4574 -0.7737 -0.3470
   62MOL   H15113693   3.659   6.783   7.224  0.9661 -1.3993 -1.7539
   62MOL   H15213694   3.820   6.850   7.264 -0.6627  1.4753 -2.1577
   62MOL   H15313695   3.777   6.692   7.318 -1.7490  0.8334  0.7459
   62MOL   H15413696   3.698   7.016   7.627  1.1879 -1.8177 -2.9501
   62MOL   H15513697   3.524   6.985   7.632  1.3982 -1.9714 -0.5673
   62MOL   C15613698   3.571   7.195   7.607  0.4388 -0.2037  0.1230
   62MOL   C15713699   3.695   7.277   7.575 -0.2025  0.5550  0.0622
   62MOL   O15813700   3.796   7.259   7.649  0.0203  0.1197  0.0704
   62MOL   C15913701   3.698   7.351   7.447  0.4034  0.3972 -0.7435
   62MOL   C16013702   3.534   7.227   7.753 -0.0553 -0.1804 -0.3112
   62MOL   H16113703   3.488   7.228   7.544  0.1217 -0.7315  0.2518
   62MOL   H16213704   3.750   7.446   7.436  1.3043 -0.1164 -0.8822
   62MOL   H16313705   3.750   7.290   7.374  0.3014 -0.8884  0.2498
   62MOL   H16413706   3.592   7.365   7.422  0.0283  1.2866  1.2147
   62MOL   H16513707   3.531   7.332   7.780  1.4127 -0.2902  0.3176
   62MOL   H16613708   3.618   7.186   7.809  0.6117 -0.5084 -1.5270
   62MOL   C16713709   3.403   7.173   7.813 -0.3490 -0.2547 -1.0429
   62MOL   C16813710   3.293   7.270   7.800 -0.0362  0.8238 -0.4535
   62MOL   O16913711   3.301   7.391   7.811  0.5431  0.1009 -0.1250
   62MOL   C17013712   3.160   7.205   7.797  0.5816 -0.1214 -0.6267
   62MOL   C17113713   3.418   7.119   0.113 -0.5503 -0.6366 -0.3293
   62MOL   H17213714   3.371   7.090   7.750  0.7496 -0.6311 -1.1119
   62MOL   H17313715   3.087   7.279   7.829  0.3449 -0.0623 -1.3026
   62MOL   H17413716   3.133   7.166   7.699 -1.0199 -0.9202  0.1122
   62MOL   H17513717   3.164   7.120   0.023  0.9463 -0.0358 -0.5380
   62MOL   H17613718   3.332   7.145   0.175  0.2461 -0.2172  0.6244
   62MOL   H17713719   3.505   7.168   0.157 -0.5714  0.6352 -1.6739
   62MOL   C17813720   3.438   6.965   0.106  0.3329 -0.0569  0.2408
   62MOL   C17913721   3.312   6.892   0.061  0.2207 -1.1294 -0.0936
   62MOL   O18013722   3.211   6.914   0.120  0.3377  0.1694  0.1342
   62MOL   C18113723   3.325   6.778   7.813 -0.4970  0.1350  0.0554
   62MOL   C18213724   3.494   6.899   0.232  0.0946 -0.3112  1.0361
   62MOL   H18313725   3.517   6.960   0.031  0.7592 -0.3948  0.7100
   62MOL   H18413726   3.281   6.685   0.009 -1.4297  1.3071  1.9004
   62MOL   H18513727   3.256   6.809   7.735  1.3533  2.1222 -0.8450
   62MOL   H18613728   3.427   6.774   7.774  0.5634 -0.9293  2.7979
   62MOL   H18713729   3.422   6.914   0.313 -1.7108  0.2104 -0.6227
   62MOL   H18813730   3.577   6.968   0.253  1.1040 -1.5847  1.2605
   62MOL   C18913731   3.550   6.757   0.203 -0.0490  0.7944 -0.8667
   62MOL   C19013732   3.538   6.668   0.328  0.4516  0.5910  0.1156
   62MOL   O19113733   3.628   6.650   0.409 -0.2637 -0.1128 -0.5918
   62MOL   C19213734   3.393   6.617   0.350  0.6471 -0.1882 -0.2067
   62MOL   C19313735   3.698   6.758   0.158 -0.0685 -0.6201  0.0815
   62MOL   H19413736   3.492   6.701   0.130 -0.0196 -0.1907 -0.1484
   62MOL   H19513737   3.341   6.653   0.261  0.1984 -2.2746 -0.8045
   62MOL   H19613738   3.389   6.509   0.361  0.9575 -0.2957 -1.1513
   62MOL   H19713739   3.355   6.656   0.444  0.5695 -1.7010  0.4065
   62MOL   H19813740   3.761   6.794   0.239 -0.0954  0.0430 -0.1835
   62MOL   H19913741   3.703   6.831   0.076  1.2992  0.1020  0.7875
   62MOL   C20013742   3.743   6.622   0.103 -0.0137  0.1816  0.4092
   62MOL   C20113743   3.900   6.610   0.103  0.1332 -0.2342  0.5763
   62MOL   O20213744   3.958   6.530   0.174 -0.0002  0.0749 -0.6535
   62MOL   C20313745   3.986   6.699   0.006  0.0286  0.0513 -0.4895
   62MOL   C20413746   3.679   6.601   7.807 -0.4813  0.3622  0.0096
   62MOL   H20513747   3.708   6.546   0.173  0.0920  0.9553  1.3172
   62MOL   H20613748   3.994   6.801   0.044 -4.2823 -0.5751  2.3626
   62MOL   H20713749   4.084   6.652   7.839  0.2495 -0.0687  2.2833
   62MOL   H20813750   3.929   6.692   7.755 -1.3266  0.5588  0.2930
   62MOL   H20913751   3.739   6.674   7.753  1.1483  0.2621  1.6124
   62MOL   H21013752   3.577   6.639   7.800 -0.6375  0.1016  0.8189
   62MOL   C21113753   3.693   6.460   7.749  0.3472 -0.3393 -0.0490
   62MOL   C21213754   3.758   6.472   7.612 -0.7796 -0.4813  1.3771
   62MOL   O21313755   3.696   6.491   7.512 -0.6370  0.9220 -0.2391
   62MOL   C21413756   3.903   6.444   7.615 -0.3171 -0.0569  0.3910
   62MOL   C21513757   3.552   6.395   7.734 -0.4800  0.1096 -0.2551
   62MOL   H21613758   3.752   6.396   7.815  2.0217 -0.5722 -1.7467
   62MOL   H21713759   3.929   6.372   7.538  1.5013  0.6674  0.2911
   62MOL   H21813760   3.958   6.537   7.604 -1.6215  0.4608 -2.0970
   62MOL   H21913761   3.932   6.401   7.711  1.0273  0.0068  0.0272
   62MOL   H22013762   3.492   6.434   7.816 -0.4185  2.0844 -1.1256
   62MOL   H22113763   3.546   6.286   7.735 -2.7943  0.2096  0.9813
   62MOL   H22213764   3.503   6.432   7.644 -1.0778  0.0020  0.0182
   63MOL     C113765   3.605   5.184   4.900 -0.1953 -1.2093 -0.0931
   63MOL     C213766   3.703   5.290   4.844  0.0212  0.4895 -0.4522
   63MOL     O313767   3.682   5.409   4.860  0.2742  0.1738  0.4248
   63MOL     C413768   3.826   5.248   4.768  0.0255  0.3941 -0.2558
   63MOL     C513769   3.500   5.246   4.986  0.8293  0.0224 -0.1844
   63MOL     H613770   3.550   5.144   4.815 -2.3296  1.4152 -0.0368
   63MOL     H713771   3.829   5.310   4.678  0.0996 -0.5708 -0.9296
   63MOL     H813772   3.919   5.275   4.817  1.4635 -1.2076 -2.0218
   63MOL     H913773   3.822   5.140   4.755 -0.8907  0.1651  1.7451
   63MOL    H1013774   3.425   5.168   4.997  0.8019  0.0396 -0.2508
   63MOL    H1113775   3.450   5.329   4.936 -0.3533 -1.8267 -2.1810
   63MOL    H1213776   3.648   5.101   4.956  0.2040 -1.7669 -1.1908
   63MOL    C1313777   3.540   5.293   5.126 -0.9863  0.8715  0.1096
   63MOL    C1413778   3.618   5.195   5.213 -0.0462  0.4754  0.2956
   63MOL    O1513779   3.738   5.212   5.253 -0.1571  0.4825  0.0160
   63MOL    C1613780   3.544   5.060   5.265 -0.4818 -0.2461 -0.1541
   63MOL    C1713781   3.425   5.354   5.211  0.5755  0.7222  0.3206
   63MOL    H1813782   3.621   5.364   5.109  0.0537 -0.3915 -0.3336
   63MOL    H1913783   3.444   5.084   5.301  0.3314  2.3812  0.4304
   63MOL    H2013784   3.537   4.989   5.182  0.5645 -2.4297  1.5780
   63MOL    H2113785   3.608   5.023   5.345  0.6435  0.8203 -0.5503
   63MOL    H2213786   3.369   5.270   5.252  0.1431  0.9134  0.1164
   63MOL    H2313787   3.345   5.402   5.156 -1.4689 -0.8695  1.8303
   63MOL    C2413788   3.481   5.460   5.315  0.4919  0.1006  0.8168
   63MOL    C2513789   3.366   5.481   5.418  0.2773 -0.0426 -0.0995
   63MOL    O2613790   3.310   5.594   5.429 -0.5174  0.1188 -0.4028
   63MOL    C2713791   3.325   5.368   5.515 -0.1123 -0.5351 -0.3587
   63MOL    C2813792   3.530   5.592   5.236 -0.7152  0.2139 -0.2084
   63MOL    H2913793   3.567   5.415   5.364  0.5247 -1.1303 -0.3613
   63MOL    H3013794   3.218   5.355   5.499 -0.4680  0.8207  0.8354
   63MOL    H3113795   3.380   5.274   5.510  1.7191  0.3744  2.0577
   63MOL    H3213796   3.336   5.402   5.618 -0.8632  0.0062 -0.4511
   63MOL    H3313797   3.445   5.629   5.178 -1.9546  0.3158  1.6122
   63MOL    H3413798   3.601   5.572   5.157 -1.1518 -0.7232 -0.3679
   63MOL    C3513799   3.608   5.699   5.314 -0.4037 -0.1574  0.2027
   63MOL    C3613800   3.664   5.811   5.218 -0.2895  0.7937 -1.1485
   63MOL    O3713801   3.737   5.784   5.125 -0.1469 -0.3043  0.6153
   63MOL    C3813802   3.651   5.956   5.252 -0.1858  0.3812 -0.1470
   63MOL    C3913803   3.731   5.642   5.403 -0.6262  0.0876 -0.6079
   63MOL    H4013804   3.540   5.765   5.369  0.4101  0.5440  0.3830
   63MOL    H4113805   3.759   5.971   5.263 -0.3862  1.4579  0.3240
   63MOL    H4213806   3.615   6.028   5.178  0.4243 -0.4828 -1.3132
   63MOL    H4313807   3.619   5.975   5.354  0.2076  1.0129 -0.1431
   63MOL    H4413808   3.827   5.686   5.378 -0.3354 -0.0926  0.1894
   63MOL    H4513809   3.730   5.534   5.386 -1.2681  0.1059 -0.7296
   63MOL    C4613810   3.693   5.647   5.550 -1.1548 -1.0519  0.4623
   63MOL    C4713811   3.662   5.790   5.595 -0.0088  0.2613 -0.0291
   63MOL    O4813812   3.740   5.877   5.554  0.4130 -0.1962 -0.5325
   63MOL    C4913813   3.525   5.815   5.654  0.5217 -0.0350 -0.6233
   63MOL    C5013814   3.806   5.601   5.645 -0.3651  0.4625  0.3954
   63MOL    H5113815   3.598   5.598   5.572 -0.0187 -2.4562  2.3634
   63MOL    H5213816   3.504   5.726   5.713  1.5517 -0.9320 -1.6151
   63MOL    H5313817   3.520   5.903   5.719  1.3748  0.2764 -0.9739
   63MOL    H5413818   3.456   5.817   5.570 -1.3396  0.8631  0.8722
   63MOL    H5513819   3.766   5.595   5.746 -1.4624 -0.3305 -0.0660
   63MOL    H5613820   3.877   5.682   5.660 -0.4702  0.6035  0.1335
   63MOL    C5713821   3.882   5.463   5.624 -0.7547  0.9292 -0.0364
   63MOL    C5813822   3.814   5.338   5.684 -0.4504 -0.4788  0.5673
   63MOL    O5913823   3.796   5.313   5.805  0.2537  1.0144 -0.1614
   63MOL    C6013824   3.768   5.234   5.583 -0.4993  0.3011 -0.6004
   63MOL    C6113825   4.035   5.469   5.663  0.3584 -0.2318  0.2522
   63MOL    H6213826   3.880   5.441   5.517 -2.1043  0.5476  0.0630
   63MOL    H6313827   3.689   5.279   5.523 -1.3469  0.4433  0.6176
   63MOL    H6413828   3.851   5.203   5.519 -0.0241 -0.1699  0.2268
   63MOL    H6513829   3.738   5.141   5.631  1.0375  1.1094  2.0068
   63MOL    H6613830   4.072   5.366   5.665 -0.3641 -0.4885  0.7186
   63MOL    H6713831   4.044   5.517   5.760 -2.0500  3.1155 -1.0586
   63MOL    C6813832   4.133   5.550   5.578 -0.2319  0.1781  0.2190
   63MOL    C6913833   4.128   5.495   5.435  0.4269 -0.1034 -0.1552
   63MOL    O7013834   4.135   5.374   5.404  0.0182 -0.6331  0.1243
   63MOL    C7113835   4.136   5.591   5.320  0.9424 -0.1859 -0.0295
   63MOL    C7213836   4.275   5.535   5.634  0.3974 -0.4160 -0.2618
   63MOL    H7313837   4.102   5.654   5.573  1.4368  0.7002  0.5355
   63MOL    H7413838   4.132   5.695   5.352  1.5070 -0.5585  1.2988
   63MOL    H7513839   4.234   5.572   5.276  0.6568  0.4046 -0.9516
   63MOL    H7613840   4.053   5.569   5.252 -0.4070 -0.0125  1.5316
   63MOL    H7713841   4.334   5.573   5.550  1.0084  1.0252  0.8030
   63MOL    H7813842   4.308   5.432   5.646  0.1679 -0.5199 -0.5271
   63MOL    C7913843   4.300   5.630   5.759  0.6713  0.7595  0.9736
   63MOL    C8013844   4.279   5.779   5.723  0.3430 -0.0886  0.6579
   63MOL    O8113845   4.165   5.818   5.735  0.7113  0.0372  0.3641
   63MOL    C8213846   4.381   5.868   5.658 -0.0965  0.1282 -0.1774
   63MOL    C8313847   4.444   5.586   5.810  0.9519  0.2021 -0.1123
   63MOL    H8413848   4.231   5.606   5.839 -1.1170  0.0470 -0.7353
   63MOL    H8513849   4.403   5.948   5.729 -0.9492  0.9881 -0.8819
   63MOL    H8613850   4.478   5.818   5.652  0.0273 -0.0085  2.2415
   63MOL    H8713851   4.356   5.909   5.561  1.0926 -0.1976 -0.6302
   63MOL    H8813852   4.519   5.611   5.734  0.0557 -1.0299 -1.4251
   63MOL    H8913853   4.453   5.478   5.824 -0.2944 -0.0178 -0.9557
   63MOL    C9013854   4.480   5.657   5.942  0.4935  0.3727 -0.1742
   63MOL    C9113855   4.629   5.672   5.968  0.1052  0.0641 -0.1746
   63MOL    O9213856   4.698   5.567   5.979 -0.5630 -0.4691  0.5479
   63MOL    C9313857   4.692   5.805   5.953 -0.3129 -0.3381  0.2634
   63MOL    C9413858   4.407   5.607   6.071  0.1408 -0.3080 -0.0559
   63MOL    H9513859   4.434   5.755   5.925 -0.8294  0.0376  1.3408
   63MOL    H9613860   4.677   5.842   5.851  0.2876 -2.0802 -0.4892
   63MOL    H9713861   4.649   5.871   6.028  1.7433 -0.7537  1.8591
   63MOL    H9813862   4.797   5.800   5.980 -0.0535 -3.1571 -1.0020
   63MOL    H9913863   4.475   5.583   6.153  0.5186  2.1059  0.3701
   63MOL   H10013864   4.357   5.511   6.061 -0.3833 -0.0508  0.0476
   63MOL   C10113865   4.304   5.709   6.122  0.2666  0.2825 -0.6124
   63MOL   C10213866   4.359   5.841   6.188  0.2134  0.6603  0.9098
   63MOL   O10313867   4.475   5.856   6.219 -0.4278  0.1602  0.3131
   63MOL   C10413868   4.257   5.953   6.219  0.0497  0.3966 -0.0728
   63MOL   C10513869   4.220   5.639   6.228  0.9872 -0.3625 -0.2065
   63MOL   H10613870   4.246   5.755   6.042 -1.1470 -1.9056 -0.8637
   63MOL   H10713871   4.280   6.033   6.148  2.0852  0.2540  0.4094
   63MOL   H10813872   4.158   5.915   6.194  0.4747 -0.0901 -1.0309
   63MOL   H10913873   4.254   5.965   6.327 -0.9515 -3.1978  0.3527
   63MOL   H11013874   4.191   5.708   6.307 -1.6927  1.5833 -2.7940
   63MOL   H11113875   4.277   5.568   6.288  1.4011  0.4740  0.4162
   63MOL   C11213876   4.086   5.577   6.180 -0.5103  0.2535  0.1735
   63MOL   C11313877   3.993   5.684   6.121  0.8783 -0.1374 -0.3201
   63MOL   O11413878   3.949   5.774   6.193 -0.5018  0.0226 -0.0519
   63MOL   C11513879   3.956   5.676   5.975 -0.1310 -0.0351  0.6988
   63MOL   C11613880   4.012   5.503   6.291 -0.1328 -0.8540  0.5787
   63MOL   H11713881   4.099   5.508   6.097  0.1925  2.5943 -1.6783
   63MOL   H11813882   3.906   5.583   5.948  0.5761 -0.2595  0.1358
   63MOL   H11913883   3.894   5.761   5.946  1.9754  1.8404  1.4904
   63MOL   H12013884   4.042   5.693   5.910 -0.7668  0.8350  0.0776
   63MOL   H12113885   3.911   5.543   6.288  0.3260  0.2222 -1.2253
   63MOL   H12213886   4.045   5.513   6.394  1.0031  1.2536  0.0409
   63MOL   C12313887   3.992   5.352   6.256 -0.1460 -0.4076  0.4765
   63MOL   C12413888   4.121   5.281   6.239  0.7385  0.0702  0.7093
   63MOL   O12513889   4.137   5.202   6.152 -0.8498 -0.7355  0.1739
   63MOL   C12613890   4.230   5.304   6.343  0.6102  0.6774  0.5082
   63MOL   C12713891   3.892   5.329   6.136  0.0977  0.0129 -0.0744
   63MOL   H12813892   3.947   5.304   6.343  1.2227 -1.1121  0.8151
   63MOL   H12913893   4.197   5.364   6.428  3.8362  0.7588  1.7517
   63MOL   H13013894   4.262   5.205   6.375  3.3978  1.2378 -0.4572
   63MOL   H13113895   4.320   5.346   6.297  0.8819 -1.7619 -1.3011
   63MOL   H13213896   3.942   5.301   6.044  1.2955 -1.1961  0.9176
   63MOL   H13313897   3.845   5.424   6.110 -0.1739 -0.3998 -1.0894
   63MOL   C13413898   3.768   5.239   6.158 -0.2977 -0.4152  0.2637
   63MOL   C13513899   3.674   5.295   6.264  0.1879  0.0713  0.3796
   63MOL   O13613900   3.689   5.267   6.379 -0.1096 -0.5426  0.0216
   63MOL   C13713901   3.558   5.394   6.227 -1.2128 -0.5369 -0.1723
   63MOL   C13813902   3.806   5.093   6.184  0.5710  0.2644  0.0728
   63MOL   H13913903   3.707   5.246   6.067  1.7160  0.9019 -1.0319
   63MOL   H14013904   3.501   5.423   6.315  0.1926 -2.2019  1.3338
   63MOL   H14113905   3.595   5.485   6.180 -0.4938 -0.6150  0.2362
   63MOL   H14213906   3.496   5.327   6.168 -3.0409  0.3152  0.7326
   63MOL   H14313907   3.729   5.024   6.217  0.4277  0.6652  0.5670
   63MOL   H14413908   3.882   5.079   6.260 -1.4287  0.0667  2.0735
   63MOL   C14513909   3.860   5.005   6.063  0.8906 -0.6544 -0.1337
   63MOL   C14613910   3.743   4.962   5.966 -0.0035  0.2448 -0.3711
   63MOL   O14713911   3.624   4.979   6.000 -0.0359  0.0703 -0.2547
   63MOL   C14813912   3.774   4.887   5.837  0.3340  0.4264  0.2114
   63MOL   C14913913   3.941   4.886   6.112  0.5883 -0.0110 -0.1412
   63MOL   H15013914   3.933   5.068   6.012  0.7467  0.0829  0.5556
   63MOL   H15113915   3.748   4.961   5.761  1.5987  0.4647 -0.1968
   63MOL   H15213916   3.881   4.867   5.827  0.4687  1.3612 -0.3293
   63MOL   H15313917   3.705   4.805   5.823 -0.5646  0.8492  2.0140
   63MOL   H15413918   4.034   4.926   6.152 -0.3147  3.6620 -1.5595
   63MOL   H15513919   3.960   4.830   6.021 -0.6687 -0.5656 -0.0801
   63MOL   C15613920   3.884   4.791   6.220  0.4407  0.5205 -0.1678
   63MOL   C15713921   3.992   4.738   6.320  0.1635 -0.3332 -0.1354
   63MOL   O15813922   4.043   4.627   6.316  0.1676  0.1920 -0.1746
   63MOL   C15913923   4.041   4.831   6.433  0.0951  0.4305  0.0967
   63MOL   C16013924   3.797   4.673   6.159 -0.0932  0.1684 -0.5076
   63MOL   H16113925   3.817   4.853   6.280 -1.5822 -1.7146  0.0017
   63MOL   H16213926   4.123   4.812   6.502 -0.1245 -0.4841  0.1017
   63MOL   H16313927   4.065   4.930   6.392  1.6680  0.1029  0.1851
   63MOL   H16413928   3.952   4.854   6.491 -1.3447 -1.7936 -1.1666
   63MOL   H16513929   3.869   4.617   6.099  2.8385  0.2640  2.7469
   63MOL   H16613930   3.721   4.721   6.097  0.0893  0.1043 -0.7804
   63MOL   C16713931   3.719   4.589   6.263 -0.8445 -0.1209  0.3673
   63MOL   C16813932   3.718   4.449   6.213 -0.1327 -0.5021  0.1051
   63MOL   O16913933   3.627   4.417   6.139 -0.0528  0.4432  0.1617
   63MOL   C17013934   3.803   4.349   6.281  0.2896 -0.3628  0.1842
   63MOL   C17113935   3.576   4.634   6.292 -0.5505 -0.7136  0.2769
   63MOL   H17213936   3.779   4.599   6.353  0.2641  0.9886 -0.4862
   63MOL   H17313937   3.750   4.281   6.349 -2.3856  0.7962 -0.6594
   63MOL   H17413938   3.836   4.280   6.203 -1.0183  0.4488 -1.1176
   63MOL   H17513939   3.888   4.400   6.326 -0.1159  1.2439 -0.8349
   63MOL   H17613940   3.531   4.569   6.367  0.0693  0.4373  1.6610
   63MOL   H17713941   3.505   4.619   6.210 -0.1305  0.2453 -0.2686
   63MOL   C17813942   3.554   4.781   6.345 -0.2417  0.3201  0.5848
   63MOL   C17913943   3.639   4.819   6.468 -0.6303 -0.3246  0.7175
   63MOL   O18013944   3.700   4.738   6.532  0.6498  0.1152 -0.5204
   63MOL   C18113945   3.640   4.965   6.510  0.4095  0.4949  0.7462
   63MOL   C18213946   3.404   4.796   6.375  0.2791 -0.5922  0.6652
   63MOL   H18313947   3.580   4.842   6.258 -0.4732 -0.7070 -0.2290
   63MOL   H18413948   3.744   5.000   6.507  0.4725  0.3288  0.9903
   63MOL   H18513949   3.590   5.033   6.441  3.4650  0.9767 -1.0897
   63MOL   H18613950   3.600   4.982   6.610  0.0883  2.8159  0.2416
   63MOL   H18713951   3.392   4.850   6.469  1.6459 -0.2893  0.6815
   63MOL   H18813952   3.361   4.699   6.398  1.0137 -0.8419  0.9843
   63MOL   C18913953   3.329   4.880   6.265 -0.0405 -0.1040 -0.0409
   63MOL   C19013954   3.320   5.025   6.309 -0.0519 -0.3736 -0.2494
   63MOL   O19113955   3.394   5.110   6.251 -0.1798 -0.0408 -0.0375
   63MOL   C19213956   3.222   5.066   6.418 -0.4844 -0.3099  0.2394
   63MOL   C19313957   3.192   4.819   6.238 -0.1956  0.1977  0.5023
   63MOL   H19413958   3.389   4.875   6.174  0.7267  1.2447  0.3803
   63MOL   H19513959   3.257   5.009   6.504 -2.0214 -2.8553 -0.7671
   63MOL   H19613960   3.242   5.172   6.434  1.1744 -0.6363  0.4249
   63MOL   H19713961   3.117   5.052   6.392 -0.1850 -0.4726 -0.9079
   63MOL   H19813962   3.123   4.820   6.323  0.5541 -2.5345  1.1980
   63MOL   H19913963   3.197   4.710   6.230 -0.9370  0.1811  0.2079
   63MOL   C20013964   3.125   4.874   6.110 -0.2173 -0.0794 -0.2848
   63MOL   C20113965   2.984   4.811   6.104 -0.0752  0.4269  0.4616
   63MOL   O20213966   2.952   4.701   6.148  0.2024 -0.2709 -0.2873
   63MOL   C20313967   2.876   4.904   6.051  0.0294  0.3317 -0.3281
   63MOL   C20413968   3.199   4.860   5.973  0.0512  0.3734  0.0133
   63MOL   H20513969   3.107   4.980   6.129  2.5209  0.8254 -2.3738
   63MOL   H20613970   2.911   5.006   6.065  0.7668 -0.1289  1.3225
   63MOL   H20713971   2.857   4.877   5.947  1.4616  2.3956 -1.1580
   63MOL   H20813972   2.783   4.894   6.107  0.4992 -0.0226  0.3847
   63MOL   H20913973   3.127   4.842   5.893 -0.1756  1.3405 -0.0033
   63MOL   H21013974   3.262   4.771   5.979  0.3390  0.3949 -2.2724
   63MOL   C21113975   3.284   4.980   5.934 -0.1365  0.1813 -0.2648
   63MOL   C21213976   3.202   5.116   5.932 -0.1283  0.0369 -0.1713
   63MOL   O21313977   3.095   5.119   5.882  0.0776  0.3839  0.7945
   63MOL   C21413978   3.258   5.234   6.008 -0.0686  0.7778 -0.2604
   63MOL   C21513979   3.349   4.962   5.795 -0.6864 -0.0732 -0.2931
   63MOL   H21613980   3.367   5.002   6.001  0.2381  0.5975 -0.8535
   63MOL   H21713981   3.210   5.243   6.106 -0.5906 -0.3179 -0.4036
   63MOL   H21813982   3.365   5.222   6.021  0.0176 -0.3346 -1.8639
   63MOL   H21913983   3.236   5.323   5.949 -2.9086 -1.0029 -1.9907
   63MOL   H22013984   3.324   5.046   5.730  0.1513  2.6664  2.7638
   63MOL   H22113985   3.309   4.870   5.752 -1.2179  0.2693 -0.5335
   63MOL   H22213986   3.457   4.949   5.799 -0.5695  0.6216 -1.1161
   64MOL     C113987   4.195   1.870   2.248  0.3147 -0.4383  0.1248
   64MOL     C213988   4.059   1.908   2.193 -0.2581 -0.3959 -0.0415
   64MOL     O313989   3.956   1.924   2.260  0.6309 -0.2008  0.5844
   64MOL     C413990   4.063   1.937   2.046  0.6846 -0.6519  0.5566
   64MOL     C513991   4.201   1.849   2.401 -0.2020 -0.3069  0.5825
   64MOL     H613992   4.237   1.786   2.192 -0.4259 -0.3785 -0.5295
   64MOL     H713993   4.114   1.852   1.999  0.4797 -1.7664  2.3000
   64MOL     H813994   3.966   1.946   1.997  1.5319  3.3565 -0.5353
   64MOL     H913995   4.123   2.026   2.025 -0.7271  0.2417  0.2943
   64MOL    H1013996   4.288   1.786   2.418 -0.1912 -0.7275 -1.0407
   64MOL    H1113997   4.119   1.784   2.432 -0.9751 -0.0413 -0.8707
   64MOL    H1213998   4.255   1.959   2.234  1.2762 -0.8925  1.2847
   64MOL    C1313999   4.221   1.984   2.474  0.1156  0.5344 -0.1957
   64MOL    C1414000   4.260   1.960   2.621  0.3972  0.0745  0.1499
   64MOL    O1514001   4.368   2.011   2.662  0.6961  0.3832 -0.1077
   64MOL    C1614002   4.188   1.856   2.713  0.0063 -0.0747  0.1679
   64MOL    C1714003   4.113   2.095   2.464  0.1606  0.1313  0.1720
   64MOL    H1814004   4.302   2.039   2.426 -0.5411  1.1978 -0.5541
   64MOL    H1914005   4.204   1.865   2.820 -1.8913 -0.8229  0.5384
   64MOL    H2014006   4.082   1.881   2.701  0.1834  0.3167 -0.5544
   64MOL    H2114007   4.211   1.756   2.675  1.2801  0.5243 -0.6633
   64MOL    H2214008   4.019   2.042   2.482 -1.8526  3.3642 -0.2399
   64MOL    H2314009   4.090   2.117   2.360 -0.4905 -1.2401  0.0115
   64MOL    C2414010   4.126   2.217   2.555 -1.1357  0.9169  0.4747
   64MOL    C2514011   4.045   2.205   2.685 -0.2602  0.2412 -0.0140
   64MOL    O2614012   3.936   2.148   2.682 -0.2349  0.1900  0.7550
   64MOL    C2714013   4.102   2.257   2.809 -0.2642 -0.1148  0.7439
   64MOL    C2814014   4.073   2.342   2.480  0.7556  0.0895 -0.5740
   64MOL    H2914015   4.231   2.248   2.563 -0.0853 -1.5421 -2.5854
   64MOL    H3014016   4.119   2.362   2.789  0.6672 -0.1269  1.3978
   64MOL    H3114017   4.019   2.239   2.877 -0.3829 -0.0324  0.6183
   64MOL    H3214018   4.203   2.222   2.832  0.1187 -0.8600 -1.8797
   64MOL    H3314019   4.132   2.382   2.398  2.2487  0.3676  0.6124
   64MOL    H3414020   4.082   2.419   2.556  2.1629 -1.5815  1.0003
   64MOL    C3514021   3.926   2.349   2.437  0.3813 -0.1013 -0.2382
   64MOL    C3614022   3.892   2.275   2.306  0.0936 -0.4619  0.3834
   64MOL    O3714023   3.955   2.304   2.202  0.5954  0.5708 -0.1806
   64MOL    C3814024   3.765   2.191   2.302  0.0229  0.4235  0.5202
   64MOL    C3914025   3.889   2.496   2.416  0.2004 -0.6335 -0.8259
   64MOL    H4014026   3.863   2.315   2.519 -1.4664  2.7693 -0.4202
   64MOL    H4114027   3.754   2.114   2.378  0.3584  1.3805  1.5583
   64MOL    H4214028   3.676   2.255   2.304 -0.7927 -0.6232 -1.3167
   64MOL    H4314029   3.771   2.135   2.209  0.5104  0.9930  0.2085
   64MOL    H4414030   3.802   2.507   2.351  1.5354  2.0805 -2.2501
   64MOL    H4514031   3.971   2.546   2.365 -0.0759 -0.2765 -0.9272
   64MOL    C4614032   3.851   2.566   2.550  0.0813 -0.2179 -0.4501
   64MOL    C4714033   3.718   2.525   2.614  0.1359 -0.3153  0.1101
   64MOL    O4814034   3.627   2.463   2.549 -0.4022  0.9585 -0.0887
   64MOL    C4914035   3.714   2.536   2.766  0.4050 -0.2595  0.4243
   64MOL    C5014036   3.854   2.724   2.529 -0.1301 -0.4821 -0.6183
   64MOL    H5114037   3.930   2.544   2.622 -1.0289 -0.3185  0.7635
   64MOL    H5214038   3.629   2.594   2.802  0.5137  0.6320 -0.7189
   64MOL    H5314039   3.716   2.442   2.821 -1.2908  1.0476  2.8063
   64MOL    H5414040   3.804   2.587   2.803 -0.8701  0.3187  2.7800
   64MOL    H5514041   3.753   2.760   2.509  0.5189  1.4590 -0.5512
   64MOL    H5614042   3.900   2.737   2.432  0.3797 -0.8749 -0.4276
   64MOL    C5714043   3.917   2.819   2.631 -0.3403 -0.2230  0.5784
   64MOL    C5814044   3.823   2.932   2.654 -0.6914  0.9375  0.0549
   64MOL    O5914045   3.737   2.930   2.740  0.5694 -0.0708  0.1490
   64MOL    C6014046   3.836   3.070   2.586  0.0008 -1.1681  0.0861
   64MOL    C6114047   4.052   2.865   2.579 -0.7277 -0.0367  0.5971
   64MOL    H6214048   3.930   2.774   2.729 -0.9780 -0.5790  0.4991
   64MOL    H6314049   3.820   3.144   2.664 -0.5865 -0.5007 -0.6522
   64MOL    H6414050   3.926   3.081   2.525 -0.4570  0.6885 -0.2910
   64MOL    H6514051   3.753   3.071   2.515  0.3444 -2.0527 -0.3306
   64MOL    H6614052   4.088   2.941   2.648  0.0341  0.5121 -0.3875
   64MOL    H6714053   4.045   2.899   2.476 -1.7842  1.7727  1.2475
   64MOL    C6814054   4.167   2.748   2.595 -0.2510 -0.8357  0.6003
   64MOL    C6914055   4.200   2.703   2.731 -0.0759  0.3777 -0.3208
   64MOL    O7014056   4.177   2.585   2.759  0.0609  0.4457  0.0310
   64MOL    C7114057   4.249   2.809   2.829  0.1153  0.2579  0.4529
   64MOL    C7214058   4.297   2.782   2.517  0.4489  0.8704  0.0925
   64MOL    H7314059   4.126   2.656   2.552 -1.2525  1.0355 -2.5887
   64MOL    H7414060   4.197   2.903   2.810  0.2314 -0.0776 -1.6135
   64MOL    H7514061   4.244   2.800   2.937 -2.2382 -1.2309  0.2705
   64MOL    H7614062   4.353   2.828   2.804  0.0942  0.1036  0.2476
   64MOL    H7714063   4.387   2.732   2.552  0.1771  0.3895  0.1111
   64MOL    H7814064   4.308   2.888   2.537 -0.8896  1.0354  0.0222
   64MOL    C7914065   4.282   2.760   2.366 -0.1699  0.5805  0.0888
   64MOL    C8014066   4.394   2.659   2.319 -0.5406  0.4276 -0.1426
   64MOL    O8114067   4.375   2.536   2.312  0.4429  0.0174 -0.3812
   64MOL    C8214068   4.533   2.721   2.299 -0.0828  0.8586  0.0557
   64MOL    C8314069   4.273   2.891   2.274  0.1020 -0.3756  0.1960
   64MOL    H8414070   4.192   2.706   2.338 -1.2300  0.4089  3.5774
   64MOL    H8514071   4.571   2.779   2.384  3.2595  1.8722 -2.0164
   64MOL    H8614072   4.610   2.646   2.281 -1.5546 -0.7648  0.4262
   64MOL    H8714073   4.527   2.791   2.216 -1.0710  1.1419  0.3627
   64MOL    H8814074   4.370   2.938   2.257 -0.4774  1.1462  0.9861
   64MOL    H8914075   4.228   2.974   2.329  0.0244  0.3951 -1.0156
   64MOL    C9014076   4.204   2.884   2.143  0.5265  0.1118 -0.1685
   64MOL    C9114077   4.050   2.851   2.158  0.1007  0.1541  0.6329
   64MOL    O9214078   4.003   2.739   2.159 -0.1046 -0.6213  0.1683
   64MOL    C9314079   3.959   2.966   2.180  0.3782  0.2950 -0.5266
   64MOL    C9414080   4.272   2.787   2.037  0.0951  0.6397  0.1677
   64MOL    H9514081   4.193   2.984   2.101 -0.2821  0.2367  0.3262
   64MOL    H9614082   4.002   3.058   2.140 -3.1542  2.2177 -0.1870
   64MOL    H9714083   3.864   2.941   2.133  0.5678 -2.5601  0.5360
   64MOL    H9814084   3.952   2.982   2.288  0.1089  2.7056 -0.8713
   64MOL    H9914085   4.247   2.682   2.050 -0.2090  0.7947  0.8352
   64MOL   H10014086   4.379   2.781   2.059  0.1129  1.2396  0.2500
   64MOL   C10114087   4.253   2.823   1.885 -0.7170  0.4321  0.0790
   64MOL   C10214088   4.296   2.971   1.854 -0.1931 -0.8622  0.1007
   64MOL   O10314089   4.213   3.061   1.858 -0.3642  0.1413 -0.4136
   64MOL   C10414090   4.444   3.006   1.852  0.0379  0.2647 -0.2174
   64MOL   C10514091   4.119   2.787   1.814  0.3621  0.0624  0.5281
   64MOL   H10614092   4.323   2.768   1.823 -1.3776  0.7457 -0.9651
   64MOL   H10714093   4.459   3.097   1.795  1.8330 -1.0188 -1.8814
   64MOL   H10814094   4.493   3.017   1.948 -0.9859  0.5642  0.2728
   64MOL   H10914095   4.493   2.926   1.795  1.0482  0.7918 -0.1060
   64MOL   H11014096   4.054   2.868   1.846 -1.5167 -1.8318  1.6072
   64MOL   H11114097   4.090   2.694   1.863 -0.7187 -0.6463 -1.4091
   64MOL   C11214098   4.118   2.778   1.657  0.1293 -0.3555  0.2589
   64MOL   C11314099   3.984   2.833   1.596 -0.3579  0.4232  0.1701
   64MOL   O11414100   3.881   2.764   1.596  0.0315  0.4006 -0.0811
   64MOL   C11514101   3.984   2.967   1.524  0.6827  0.0415 -0.7594
   64MOL   C11614102   4.138   2.631   1.610  0.0642 -0.3620 -0.3931
   64MOL   H11714103   4.207   2.833   1.626 -1.1026  2.0237  0.8593
   64MOL   H11814104   3.937   3.034   1.596 -0.0570  0.4424 -1.6048
   64MOL   H11914105   4.087   3.002   1.526  1.1552 -1.3359  0.1033
   64MOL   H12014106   3.932   2.971   1.429  0.7161 -0.7672 -0.8212
   64MOL   H12114107   4.042   2.580   1.604 -0.5858  0.9358 -1.2017
   64MOL   H12214108   4.184   2.584   1.697 -0.0187 -0.4638 -0.4034
   64MOL   C12314109   4.227   2.599   1.490 -0.2516 -0.1281  0.5793
   64MOL   C12414110   4.375   2.595   1.533  0.1584 -0.0290 -0.1926
   64MOL   O12514111   4.442   2.699   1.538 -0.4779  0.3014  0.1188
   64MOL   C12614112   4.421   2.469   1.604  0.6230 -0.1937 -0.0204
   64MOL   C12714113   4.182   2.692   1.373  0.0205  0.3011  0.5697
   64MOL   H12814114   4.195   2.498   1.464 -0.0575 -0.3936  1.3765
   64MOL   H12914115   4.502   2.435   1.540  1.4316  1.1266  0.2895
   64MOL   H13014116   4.461   2.488   1.704  0.5185 -2.4443  0.4973
   64MOL   H13114117   4.339   2.397   1.603  0.7312 -0.3099 -0.6757
   64MOL   H13214118   4.187   2.798   1.396 -2.1851  0.6081 -0.3049
   64MOL   H13314119   4.076   2.671   1.368  0.1083  0.2301 -1.8557
   64MOL   C13414120   4.254   2.682   1.235 -0.1917  0.2711 -0.0459
   64MOL   C13514121   4.399   2.739   1.221  0.1336  0.4534 -0.1013
   64MOL   O13614122   4.485   2.663   1.163 -0.2145  0.1872  1.0515
   64MOL   C13714123   4.430   2.887   1.256 -0.1462  0.5457 -0.3453
   64MOL   C13814124   4.160   2.747   1.120  0.3741 -0.6686  0.4095
   64MOL   H13914125   4.267   2.575   1.222 -1.9342  0.4617 -3.9397
   64MOL   H14014126   4.333   2.937   1.260  0.8777  2.6970 -1.6409
   64MOL   H14114127   4.468   2.905   1.356  0.6218 -3.2016  0.1200
   64MOL   H14214128   4.499   2.922   1.180  0.8777  1.6418  1.0822
   64MOL   H14314129   4.225   2.783   1.040 -0.7357 -1.1644 -0.7323
   64MOL   H14414130   4.110   2.833   1.166 -0.7356 -0.8936 -0.3725
   64MOL   C14514131   4.048   2.655   1.055 -0.0463  0.2455  0.0989
   64MOL   C14614132   4.115   2.551   0.967  0.4861  0.0049 -0.2543
   64MOL   O14714133   4.145   2.577   0.851  0.0888  0.6594  0.2353
   64MOL   C14814134   4.137   2.413   1.022 -0.2328 -0.0517 -0.3283
   64MOL   C14914135   3.949   2.748   0.975  0.0150  0.2761  0.0076
   64MOL   H15014136   3.992   2.615   1.140 -1.6240 -0.4093 -1.2147
   64MOL   H15114137   4.232   2.375   0.985 -0.3780 -1.7399  0.9543
   64MOL   H15214138   4.133   2.399   1.130 -1.4169 -3.7315 -0.7640
   64MOL   H15314139   4.055   2.352   0.983 -0.4512 -0.0942  0.1948
   64MOL   H15414140   4.012   2.815   0.917 -0.4506  0.6139 -0.1086
   64MOL   H15514141   3.889   2.804   1.047  0.3574  1.1349 -0.3632
   64MOL   C15614142   3.848   2.672   0.889 -0.3659  0.6288 -0.6573
   64MOL   C15714143   3.815   2.749   0.766 -0.4654 -0.5712 -0.0995
   64MOL   O15814144   3.783   2.869   0.772 -0.3911 -0.3890 -0.4003
   64MOL   C15914145   3.814   2.678   0.628 -0.5950  0.3938 -0.5447
   64MOL   C16014146   3.711   2.603   0.944  0.3853 -0.7978 -0.0125
   64MOL   H16114147   3.912   2.596   0.844 -2.4433 -2.1280  0.8932
   64MOL   H16214148   3.731   2.608   0.636 -1.8653  1.8482 -0.7995
   64MOL   H16314149   3.806   2.752   0.549  0.6367  1.3229  0.1731
   64MOL   H16414150   3.908   2.622   0.623 -1.0986 -0.6327  0.8957
   64MOL   H16514151   3.737   2.514   1.001  0.5489  0.6212  2.1726
   64MOL   H16614152   3.651   2.566   0.861 -0.4439  1.7099 -0.5724
   64MOL   C16714153   3.631   2.692   1.039  0.2408 -0.2956 -0.2511
   64MOL   C16814154   3.683   2.695   1.182  0.2429  0.1947  0.3024
   64MOL   O16914155   3.740   2.598   1.226  0.2501 -0.1504  0.5824
   64MOL   C17014156   3.638   2.804   1.276  0.2513  0.4320  0.5869
   64MOL   C17114157   3.480   2.668   1.025  0.8106 -0.3921 -0.1808
   64MOL   H17214158   3.640   2.799   1.017  0.4708 -0.2412  0.1032
   64MOL   H17314159   3.534   2.791   1.308  0.0786  0.6511  0.1376
   64MOL   H17414160   3.696   2.808   1.368 -0.5982 -0.4013  1.1711
   64MOL   H17514161   3.641   2.899   1.223 -1.4393  0.4017  0.3820
   64MOL   H17614162   3.466   2.654   0.918 -0.4977  0.1965 -0.0934
   64MOL   H17714163   3.433   2.763   1.052 -0.2250 -0.2912 -2.2389
   64MOL   C17814164   3.402   2.567   1.105  0.8465  0.5231 -0.4729
   64MOL   C17914165   3.426   2.426   1.067  0.5400 -0.0757  0.5186
   64MOL   O18014166   3.409   2.395   0.946 -0.1891  0.0696 -0.2047
   64MOL   C18114167   3.492   2.332   1.168  0.0337 -0.7290 -0.5255
   64MOL   C18214168   3.250   2.609   1.112  0.9389  0.3021  0.3609
   64MOL   H18314169   3.440   2.588   1.205 -0.6621 -1.4868  0.5375
   64MOL   H18414170   3.443   2.235   1.159 -0.9558  0.0562 -4.7932
   64MOL   H18514171   3.597   2.336   1.140  0.2485  1.8572  0.4902
   64MOL   H18614172   3.474   2.383   1.263  0.7411 -0.2730 -0.6301
   64MOL   H18714173   3.237   2.688   1.187  0.8595  1.4092 -0.8143
   64MOL   H18814174   3.188   2.536   1.164 -0.5180  1.4909  0.3501
   64MOL   C18914175   3.188   2.645   0.970 -0.5938 -0.0453 -0.1992
   64MOL   C19014176   3.097   2.761   0.987 -0.1069  0.2980 -0.3689
   64MOL   O19114177   2.977   2.749   0.961 -0.4695  0.0193  0.3886
   64MOL   C19214178   3.155   2.893   1.031 -0.1275 -0.1206 -0.3580
   64MOL   C19314179   3.114   2.529   0.904  0.3187  0.1539  0.1619
   64MOL   H19414180   3.259   2.691   0.901 -1.3551  1.7501  0.2144
   64MOL   H19514181   3.257   2.908   0.995  0.4668  2.0657  2.0967
   64MOL   H19614182   3.106   2.980   0.987 -1.3992 -0.2642  0.7575
   64MOL   H19714183   3.152   2.911   1.138  0.0802 -1.4361 -0.1126
   64MOL   H19814184   3.005   2.529   0.913  0.4203  0.0299  1.4427
   64MOL   H19914185   3.137   2.437   0.956  3.2680  0.9693  0.4044
   64MOL   C20014186   3.156   2.490   0.760  0.8959 -0.4739  0.1265
   64MOL   C20114187   3.103   2.594   0.657  0.2392 -0.1196 -0.4163
   64MOL   O20214188   3.180   2.648   0.582 -0.0637 -0.4670 -0.5915
   64MOL   C20314189   2.952   2.604   0.650  0.2517  0.7881 -0.1539
   64MOL   C20414190   3.108   2.343   0.724  0.3635 -0.1360  0.6402
   64MOL   H20514191   3.264   2.485   0.746  0.6566 -0.8813 -1.6867
   64MOL   H20614192   2.910   2.682   0.586 -1.0547 -0.1495 -0.4525
   64MOL   H20714193   2.931   2.512   0.595  0.9269  0.0657  0.7876
   64MOL   H20814194   2.904   2.596   0.747  0.9799 -0.9278  0.0754
   64MOL   H20914195   3.000   2.335   0.711  0.8726 -0.8718 -3.7505
   64MOL   H21014196   3.123   2.281   0.812  0.2660 -0.8770  0.1367
   64MOL   C21114197   3.171   2.285   0.596  0.2046 -0.4836 -0.7252
   64MOL   C21214198   3.070   2.213   0.507 -0.5709 -0.1848  0.7535
   64MOL   O21314199   3.017   2.107   0.541 -0.2906 -0.3215  0.2833
   64MOL   C21414200   3.040   2.265   0.367  0.2939 -0.7720  0.2342
   64MOL   C21514201   3.281   2.187   0.629 -0.0425 -0.3675 -1.0316
   64MOL   H21614202   3.236   2.356   0.544  0.6674 -1.3068 -1.2837
   64MOL   H21714203   2.944   2.314   0.352  0.7027  0.3534  1.1979
   64MOL   H21814204   3.122   2.335   0.347 -1.4580  0.9739 -1.0431
   64MOL   H21914205   3.061   2.184   0.297 -1.9234  0.2393 -1.6864
   64MOL   H22014206   3.345   2.237   0.702 -1.3591 -0.1966  0.0322
   64MOL   H22114207   3.347   2.160   0.547  3.0962  2.6030  0.4123
   64MOL   H22214208   3.252   2.096   0.683  1.1807  0.6296  1.4059
   65MOL     C114209   4.977   7.091   0.584 -0.1734  0.5074 -0.0218
   65MOL     C214210   4.963   6.938   0.595 -0.1898  0.1034 -0.5485
   65MOL     O314211   4.964   6.869   0.490 -0.7344 -0.3526  0.0566
   65MOL     C414212   4.970   6.871   0.729  0.3107  0.1227  0.0908
   65MOL     C514213   4.973   7.137   0.439 -0.4206  0.6864 -0.0413
   65MOL     H614214   4.900   7.135   0.648 -1.9259 -0.2208 -1.5990
   65MOL     H714215   4.963   6.764   0.708 -0.8948  0.6234 -2.2210
   65MOL     H814216   5.062   6.895   0.782  0.2503 -0.1589  0.3231
   65MOL     H914217   4.889   6.887   0.800  0.5445  0.7004  0.2256
   65MOL    H1014218   4.883   7.090   0.401 -0.3635 -0.6655  1.4608
   65MOL    H1114219   5.054   7.098   0.377  1.4342  2.5992  1.0910
   65MOL    H1214220   5.074   7.118   0.626 -0.1513  2.7575 -1.4101
   65MOL    C1314221   4.960   7.282   0.418 -0.8320  0.3752 -0.4201
   65MOL    C1414222   4.927   7.312   0.275 -0.2907 -0.8515  0.0824
   65MOL    O1514223   4.998   7.271   0.187  0.7529  0.2560 -0.3431
   65MOL    C1614224   4.800   7.387   0.250 -0.2821  0.8368  0.0191
   65MOL    C1714225   5.090   7.353   0.460 -0.4250 -0.1252  0.0193
   65MOL    H1814226   4.883   7.328   0.479  0.9921  2.7790  0.1323
   65MOL    H1914227   4.732   7.334   0.317 -0.6124 -0.7824 -1.5537
   65MOL    H2014228   4.818   7.491   0.274 -1.1266  0.9670  0.1024
   65MOL    H2114229   4.772   7.381   0.145  1.6762 -0.2092 -0.4616
   65MOL    H2214230   5.156   7.364   0.374 -0.0217  0.3257  0.3842
   65MOL    H2314231   5.151   7.280   0.514 -1.0739 -0.4731  0.2946
   65MOL    C2414232   5.075   7.479   0.543 -0.1579  0.8632 -0.2249
   65MOL    C2514233   5.123   7.607   0.465 -0.2037 -0.0153 -0.3930
   65MOL    O2614234   5.046   7.700   0.454 -0.6770 -0.3611 -0.1731
   65MOL    C2714235   5.271   7.618   0.434 -0.8155 -0.7059  0.5736
   65MOL    C2814236   5.152   7.469   0.679  0.1805  0.3213  0.4767
   65MOL    H2914237   4.967   7.484   0.558  0.1012  2.1290  1.5015
   65MOL    H3014238   5.316   7.520   0.421  0.1385 -0.1860 -0.1314
   65MOL    H3114239   5.275   7.674   0.341 -2.1902 -0.3335  0.7263
   65MOL    H3214240   5.326   7.674   0.510  2.0096 -0.6749 -1.3987
   65MOL    H3314241   5.259   7.471   0.659  0.5961 -0.0265  2.5868
   65MOL    H3414242   5.132   7.377   0.733  1.2130  0.0863  0.4644
   65MOL    C3514243   5.127   7.586   0.771 -0.1621 -0.1051  0.2160
   65MOL    C3614244   5.224   7.588   0.892  0.8737 -0.1357  0.3184
   65MOL    O3714245   5.278   7.482   0.928 -0.0309 -0.9018  0.3924
   65MOL    C3814246   5.257   7.724   0.949 -0.1900 -0.0750 -0.5584
   65MOL    C3914247   4.978   7.610   0.813  0.2756  0.7520 -0.7820
   65MOL    H4014248   5.163   7.671   0.713  0.1816 -0.2413  0.2248
   65MOL    H4114249   5.363   7.738   0.969 -0.5475  0.2369  1.2058
   65MOL    H4214250   5.240   7.800   0.873 -3.3218 -0.3951 -0.2837
   65MOL    H4314251   5.186   7.742   1.030 -0.5748 -0.4829 -0.8005
   65MOL    H4414252   4.916   7.622   0.724 -1.2252  0.5643  0.2031
   65MOL    H4514253   4.979   7.701   0.873 -1.2538  0.9599 -1.0537
   65MOL    C4614254   4.913   7.509   0.912  0.0115  0.8384  0.0244
   65MOL    C4714255   4.887   7.374   0.843  0.1195  0.5443 -0.6274
   65MOL    O4814256   4.837   7.375   0.733  0.5167 -0.0887  0.2031
   65MOL    C4914257   4.937   7.245   0.896  0.0325 -0.5569  0.7462
   65MOL    C5014258   4.795   7.571   0.978  0.1752 -0.4252 -0.0286
   65MOL    H5114259   4.993   7.482   0.982 -2.4893 -2.1911  1.8182
   65MOL    H5214260   4.979   7.254   0.996 -0.4692 -1.5795  1.0551
   65MOL    H5314261   4.857   7.172   0.906 -0.8532  0.2055 -0.6536
   65MOL    H5414262   5.000   7.199   0.820 -0.9863 -0.3443 -0.2431
   65MOL    H5514263   4.726   7.615   0.906 -1.3699  0.8934  2.1790
   65MOL    H5614264   4.839   7.650   1.040  1.6359 -1.1751 -0.1105
   65MOL    C5714265   4.709   7.481   1.072 -0.2361 -0.2764  0.3003
   65MOL    C5814266   4.562   7.525   1.090 -0.0918 -0.0625 -0.4706
   65MOL    O5914267   4.525   7.642   1.072  0.0951  0.3158 -0.0036
   65MOL    C6014268   4.455   7.421   1.130 -0.4236  0.4778  0.2112
   65MOL    C6114269   4.780   7.461   1.208 -0.3814  0.1355 -0.2314
   65MOL    H6214270   4.704   7.376   1.043 -0.7920  0.0006 -0.6290
   65MOL    H6314271   4.363   7.474   1.153 -1.2667 -0.7667 -0.2393
   65MOL    H6414272   4.432   7.347   1.054 -0.5542  0.2014  0.5202
   65MOL    H6514273   4.493   7.355   1.208 -3.9659  0.4109  1.9722
   65MOL    H6614274   4.876   7.414   1.189  0.3861  1.4837  0.1951
   65MOL    H6714275   4.730   7.379   1.260 -0.3419  1.1375  1.4094
   65MOL    C6814276   4.798   7.584   1.300 -0.6501  0.0068 -0.7555
   65MOL    C6914277   4.939   7.635   1.316 -0.0326  0.4213  0.0856
   65MOL    O7014278   5.038   7.563   1.287  0.1327 -0.7874 -0.3916
   65MOL    C7114279   4.952   7.782   1.348 -0.3191 -0.2398 -0.4187
   65MOL    C7214280   4.728   7.578   1.445 -0.5049 -0.3938 -0.3334
   65MOL    H7314281   4.750   7.663   1.243  0.1342  2.2810  1.6010
   65MOL    H7414282   4.921   0.015   1.275  1.8486 -0.7602 -1.9208
   65MOL    H7514283   4.905   7.798   1.444 -1.3878  0.5172 -1.0572
   65MOL    H7614284   5.060   7.800   1.353 -0.6425  1.7025 -0.1449
   65MOL    H7714285   4.628   7.536   1.433 -1.4625  1.5049  0.7945
   65MOL    H7814286   4.709   7.682   1.469  3.0158  0.3688 -0.6391
   65MOL    C7914287   4.791   7.493   1.563  0.3225 -0.3152  0.0484
   65MOL    C8014288   4.846   7.351   1.528  0.0044  0.2744  1.0163
   65MOL    O8114289   4.765   7.265   1.497 -0.2454 -0.1339  0.4694
   65MOL    C8214290   4.992   7.319   1.523  0.6334  0.4366  0.3669
   65MOL    C8314291   4.686   7.477   1.688  0.5054 -0.2226  0.0295
   65MOL    H8414292   4.883   7.546   1.586 -0.2715  1.1095 -0.8243
   65MOL    H8514293   5.002   7.212   1.540  1.8095  0.6502  1.0446
   65MOL    H8614294   5.026   7.337   1.421 -0.6218  0.6969 -0.0233
   65MOL    H8714295   5.040   7.377   1.602  0.9685  0.3798  0.2052
   65MOL    H8814296   4.615   7.398   1.663 -0.6832  1.0296 -0.6842
   65MOL    H8914297   4.621   7.565   1.687 -2.0634 -2.0420 -0.8012
   65MOL    C9014298   4.757   7.452   1.826 -0.9258 -0.4167  0.3692
   65MOL    C9114299   4.653   7.386   1.922  0.0716 -0.0991 -0.0717
   65MOL    O9214300   4.590   7.459   1.994 -0.3470  0.1141 -0.3794
   65MOL    C9314301   4.640   7.235   1.943 -0.4702 -0.3109  0.7766
   65MOL    C9414302   4.813   7.580   1.879  0.3355  0.2051  0.3908
   65MOL    H9514303   4.844   7.386   1.824 -2.3307 -2.3810  1.9874
   65MOL    H9614304   4.649   7.193   2.043 -1.6721 -0.6948  0.7353
   65MOL    H9714305   4.552   7.187   1.900 -0.9678 -0.1974  1.6484
   65MOL    H9814306   4.719   7.181   1.892 -1.2952 -0.4382 -0.4094
   65MOL    H9914307   4.739   7.660   1.887  1.8559  1.6167  0.8395
   65MOL   H10014308   4.875   7.626   1.801 -0.0751  0.0340 -0.0370
   65MOL   C10114309   4.883   7.576   2.022  0.1100  0.3405  0.7447
   65MOL   C10214310   4.908   7.718   2.068  0.1468  0.5471 -0.2025
   65MOL   O10314311   4.984   7.790   2.008 -0.2101 -0.3795  0.7529
   65MOL   C10414312   4.838   7.767   2.192  0.1570 -0.2812  0.3170
   65MOL   C10514313   5.018   7.492   2.022  0.8769  0.8815 -0.0046
   65MOL   H10614314   4.815   7.531   2.094 -1.0825 -1.0831 -1.2307
   65MOL   H10714315   4.738   7.794   2.158  0.8723  1.0986 -0.6909
   65MOL   H10814316   4.834   7.690   2.270 -4.2935 -0.9851 -0.4674
   65MOL   H10914317   4.870   0.020   2.235  1.1729  0.0494 -1.1197
   65MOL   H11014318   5.094   7.539   2.084  3.3650  1.3293 -3.2333
   65MOL   H11114319   5.061   7.498   1.922  1.8934  1.7458  0.4778
   65MOL   C11214320   4.995   7.341   2.047  0.5262  0.7421 -0.0306
   65MOL   C11314321   4.951   7.310   2.192  0.8971 -0.0032  0.1330
   65MOL   O11414322   4.858   7.229   2.213  0.1525  0.1081 -0.0762
   65MOL   C11514323   5.024   7.376   2.304  0.1857  0.0773 -0.7209
   65MOL   C11614324   5.118   7.253   2.009 -0.4375 -0.0981 -0.1951
   65MOL   H11714325   4.907   7.311   1.991  1.2045  0.0216 -0.7353
   65MOL   H11814326   5.052   7.475   2.268  2.0326  0.0857  0.7024
   65MOL   H11914327   4.955   7.386   2.388  0.2887 -0.8662 -0.5225
   65MOL   H12014328   5.111   7.315   2.327 -1.5459 -1.8299  1.0145
   65MOL   H12114329   5.202   7.296   2.064 -1.3625  4.2971 -2.0257
   65MOL   H12214330   5.154   7.290   1.913  2.0822  1.4189  1.2591
   65MOL   C12314331   5.104   7.102   2.002 -0.1971  0.4492 -0.3543
   65MOL   C12414332   5.241   7.035   1.998 -0.3940 -0.6267 -0.2519
   65MOL   O12514333   5.303   7.038   1.890  0.2351  0.7962 -0.0275
   65MOL   C12614334   5.305   6.968   2.129 -0.6039 -0.1059  0.5983
   65MOL   C12714335   4.997   7.048   1.908  0.6960 -0.2471  0.3165
   65MOL   H12814336   5.063   7.062   2.095  1.6533  1.1400  0.8050
   65MOL   H12914337   5.228   6.965   2.206  0.8334 -0.2993  2.0671
   65MOL   H13014338   5.350   6.870   2.111 -1.8692 -0.6504  0.3673
   65MOL   H13114339   5.382   7.040   2.157 -0.2861  1.0363 -2.9158
   65MOL   H13214340   5.008   7.094   1.810 -3.0646 -3.1783 -1.6277
   65MOL   H13314341   4.901   7.090   1.938 -0.1329 -0.8719 -1.4241
   65MOL   C13414342   4.978   6.891   1.876  0.0641  0.5746 -0.2553
   65MOL   C13514343   4.853   6.878   1.787  0.1306  0.1377  0.2831
   65MOL   O13614344   4.735   6.884   1.823  0.0033 -0.2297  0.1133
   65MOL   C13714345   4.882   6.873   1.636 -0.0711  0.0751  0.6237
   65MOL   C13814346   4.958   6.806   2.002  0.6141  0.1991  0.0291
   65MOL   H13914347   5.066   6.859   1.821  0.1125 -1.8185  1.1386
   65MOL   H14014348   4.966   6.932   1.603 -0.5353 -0.1181 -0.9514
   65MOL   H14114349   4.884   6.770   1.600 -0.7945 -0.0122  0.8266
   65MOL   H14214350   4.803   6.920   1.578  1.0141 -1.3140 -2.0547
   65MOL   H14314351   4.902   6.870   2.070  1.4386  1.1980 -0.2228
   65MOL   H14414352   5.057   6.810   2.047 -0.3212  0.6224  2.1104
   65MOL   C14514353   4.909   6.657   1.982 -0.0603  0.5462  0.6211
   65MOL   C14614354   4.777   6.621   2.041 -0.6415  0.0495  0.0484
   65MOL   O14714355   4.741   6.653   2.159 -0.4204  0.3737 -0.8411
   65MOL   C14814356   4.689   6.531   1.950  0.3574 -1.0605 -0.3540
   65MOL   C14914357   5.019   6.558   2.024  0.2727  0.9546  0.6081
   65MOL   H15014358   4.907   6.643   1.874 -2.5109  0.0674  0.7128
   65MOL   H15114359   4.672   6.599   1.866 -1.0451 -0.7112  0.2041
   65MOL   H15214360   4.742   6.439   1.924  1.9867 -0.1982 -0.1674
   65MOL   H15314361   4.591   6.514   1.995  0.1979  1.8021  0.5061
   65MOL   H15414362   4.985   6.456   2.009 -2.8848  1.6037  3.0124
   65MOL   H15514363   5.033   6.577   2.130 -1.6721  0.9570  0.8759
   65MOL   C15614364   5.157   6.558   1.956 -0.0582 -0.4910 -0.1996
   65MOL   C15714365   5.151   6.557   1.802 -0.2752 -0.2168 -0.7498
   65MOL   O15814366   5.203   6.650   1.747  0.4999  0.2011 -0.2967
   65MOL   C15914367   5.085   6.443   1.720  0.3008 -0.1123 -0.2790
   65MOL   C16014368   5.251   6.442   1.989 -0.1956 -0.0956  0.0012
   65MOL   H16114369   5.202   6.651   1.991  0.1499 -0.2885 -0.9863
   65MOL   H16214370   5.065   6.459   1.614 -0.3047 -1.8772 -0.4501
   65MOL   H16314371   5.148   6.356   1.738 -0.1316  0.1191  2.6057
   65MOL   H16414372   4.985   6.429   1.761 -0.2087 -1.3570 -1.8861
   65MOL   H16514373   5.341   6.455   1.929 -0.6154 -1.5882 -1.0074
   65MOL   H16614374   5.214   6.348   1.948  1.3985 -0.1493 -1.3397
   65MOL   C16714375   5.283   6.417   2.140  0.6636 -0.2688 -0.2295
   65MOL   C16814376   5.319   6.542   2.217  0.2002 -0.0141  0.0225
   65MOL   O16914377   5.384   6.633   2.157 -0.5400 -0.0009 -0.0304
   65MOL   C17014378   5.303   6.536   2.371  0.0224 -0.1312  0.2696
   65MOL   C17114379   5.388   6.302   2.167 -0.4048  0.2787 -0.1716
   65MOL   H17214380   5.194   6.376   2.188 -0.6302  1.0756 -1.4010
   65MOL   H17314381   5.236   6.610   2.413  2.5903  1.4361  1.7024
   65MOL   H17414382   5.261   6.438   2.397 -2.0614  0.6192 -0.1630
   65MOL   H17514383   5.401   6.552   2.416  0.0529  0.2333  0.0757
   65MOL   H17614384   5.377   6.241   2.077  1.2851  1.8999 -1.5197
   65MOL   H17714385   5.349   6.239   2.247 -0.7679  0.3159 -0.3166
   65MOL   C17814386   5.539   6.337   2.165  0.8297 -0.5148  0.2371
   65MOL   C17914387   5.584   6.391   2.028 -0.2831 -0.7034  0.4704
   65MOL   O18014388   5.542   6.341   1.928 -0.2564  0.0012  0.2111
   65MOL   C18114389   5.679   6.510   2.031  0.4508  0.4339 -0.5902
   65MOL   C18214390   5.627   6.215   2.192  0.2940 -0.3333  0.3140
   65MOL   H18314391   5.558   6.425   2.226 -0.3871 -0.0278 -0.0729
   65MOL   H18414392   5.772   6.482   2.079  1.0188  1.8575 -0.8228
   65MOL   H18514393   5.708   6.537   1.929  1.6670 -1.5842 -0.7956
   65MOL   H18614394   5.635   6.596   2.082  0.2348  0.4365 -0.7822
   65MOL   H18714395   5.711   6.213   2.121 -0.9392  0.3020 -1.1947
   65MOL   H18814396   5.576   6.124   2.160  1.4326 -0.9083  0.0650
   65MOL   C18914397   5.676   6.200   2.337  0.6472 -0.2800  0.4947
   65MOL   C19014398   5.562   6.164   2.436  0.1355 -0.2187 -0.2761
   65MOL   O19114399   5.485   6.248   2.488 -0.2108  0.2468  0.1690
   65MOL   C19214400   5.536   6.008   2.454 -0.2446  0.9164 -0.4145
   65MOL   C19314401   5.761   6.320   2.386 -0.5700 -0.2167 -0.3925
   65MOL   H19414402   5.736   6.110   2.347  0.8266  0.0427  2.6145
   65MOL   H19514403   5.570   5.972   2.551  0.9698 -1.9250 -1.8117
   65MOL   H19614404   5.430   5.984   2.443 -0.3855  0.6396  1.4300
   65MOL   H19714405   5.594   5.961   2.374 -3.2352 -2.2183 -0.8820
   65MOL   H19814406   5.702   6.400   2.432 -2.0406 -1.9004  0.7276
   65MOL   H19914407   5.819   6.367   2.306  0.0191  0.8610  0.6647
   65MOL   C20014408   5.874   6.280   2.491 -0.1042 -0.1602  0.2367
   65MOL   C20114409   5.914   6.402   2.572 -0.0064  0.2589 -0.2229
   65MOL   O20214410   5.931   6.512   2.520  0.2233 -0.1815 -0.1303
   65MOL   C20314411   5.931   6.384   2.724  0.3826 -0.2827  0.6907
   65MOL   C20414412   5.995   6.209   2.421 -0.4869 -0.0728 -0.1917
   65MOL   H20514413   5.831   6.212   2.564  0.8658 -0.8865  0.1354
   65MOL   H20614414   5.885   6.286   2.737 -0.8127  0.3298  1.0723
   65MOL   H20714415   6.037   6.373   2.749  0.0816 -1.0633  1.6321
   65MOL   H20814416   5.893   6.475   2.770 -0.6085 -0.6666  0.6354
   65MOL   H20914417   6.000   6.268   2.330 -2.2175 -0.5622 -0.6214
   65MOL   H21014418   5.965   6.109   2.390  1.1024 -1.4602  2.5088
   65MOL   C21114419   6.116   6.194   2.509 -0.2844 -0.3025 -0.1714
   65MOL   C21214420   6.237   6.159   2.424 -0.1251  0.3093  0.2322
   65MOL   O21314421   6.320   6.075   2.458  0.3360 -0.0931 -0.1454
   65MOL   C21414422   6.258   6.240   2.294 -0.6245  0.2462  0.3336
   65MOL   C21514423   6.093   6.100   2.631 -0.1908  0.8045  0.7562
   65MOL   H21614424   6.136   6.293   2.550 -0.7318 -0.7291  1.0919
   65MOL   H21714425   6.174   6.298   2.255 -0.4005  1.1744  1.2027
   65MOL   H21814426   6.346   6.302   2.309  1.9026 -2.0501 -4.0762
   65MOL   H21914427   6.280   6.166   2.217 -1.6078 -2.0535  2.2212
   65MOL   H22014428   6.180   6.062   2.685  0.1221  3.7255  2.4405
   65MOL   H22114429   6.021   6.023   2.606  0.4180  0.9795 -1.6596
   65MOL   H22214430   6.054   6.150   2.720  0.8150 -2.3869  3.0819
   66MOL     C114431   3.313   4.680   6.776  0.3138  0.5669 -0.5737
   66MOL     C214432   3.239   4.821   6.785  0.5473 -0.1275  0.6682
   66MOL     O314433   3.293   4.919   6.739  0.1409  0.4113 -0.1001
   66MOL     C414434   3.096   4.822   6.842  0.4852 -0.1291  0.1951
   66MOL     C514435   3.236   4.571   6.697 -0.1950 -1.0365  0.4522
   66MOL     H614436   3.402   4.700   6.716  1.1889  1.7088  1.0638
   66MOL     H714437   3.019   4.757   6.798 -1.0420  2.4492 -1.0597
   66MOL     H814438   3.098   4.795   6.947  1.6871  4.8102  1.5441
   66MOL     H914439   3.063   4.924   6.827  1.2739 -0.3975 -4.1694
   66MOL    H1014440   3.223   4.606   6.595  0.2693 -1.0025  0.4029
   66MOL    H1114441   3.136   4.574   6.740  0.4004  1.9012  1.7787
   66MOL    H1214442   3.345   4.649   6.876 -2.2694  0.9514  0.4307
   66MOL    C1314443   3.300   4.425   6.696  0.4587 -0.4957 -1.2348
   66MOL    C1414444   3.266   4.340   6.817 -0.7007  0.0135 -0.2763
   66MOL    O1514445   3.167   4.270   6.820  0.4414 -0.3783 -0.5578
   66MOL    C1614446   3.365   4.356   6.938  0.0275 -0.7415  0.2507
   66MOL    C1714447   3.446   4.425   6.646 -0.3627 -0.0229  0.5366
   66MOL    H1814448   3.246   4.366   6.621 -0.2935 -1.6694  0.2096
   66MOL    H1914449   3.470   4.349   6.911 -0.1708 -0.3254 -0.6297
   66MOL    H2014450   3.352   4.449   6.993  1.8637 -0.2258 -0.1743
   66MOL    H2114451   3.338   4.277   7.009 -1.2272 -1.9736 -1.5287
   66MOL    H2214452   3.501   4.477   6.724 -1.0531  0.9218  0.4092
   66MOL    H2314453   3.442   4.486   6.555  0.5896 -2.7112 -1.3617
   66MOL    C2414454   3.521   4.301   6.598  0.8103 -0.0169 -0.3604
   66MOL    C2514455   3.428   4.197   6.522  0.1944 -0.0617 -0.6162
   66MOL    O2614456   3.360   4.116   6.582  0.3106 -0.4113 -0.1806
   66MOL    C2714457   3.425   4.191   6.369 -0.0926 -0.3366 -0.3954
   66MOL    C2814458   3.593   4.231   6.711 -0.0071  0.4265 -0.0985
   66MOL    H2914459   3.584   4.327   6.514  1.0294  0.9747  0.0984
   66MOL    H3014460   3.525   4.199   6.326  1.0012  1.0861  2.2663
   66MOL    H3114461   3.377   4.097   6.339  1.7437 -0.9233 -1.5418
   66MOL    H3214462   3.367   4.276   6.334  2.0668  1.4625  0.3062
   66MOL    H3314463   3.646   4.145   6.669 -1.1142 -0.3029 -0.0295
   66MOL    H3414464   3.519   4.184   6.777  1.8732 -0.5407  1.3580
   66MOL    C3514465   3.699   4.310   6.787 -0.5868 -0.2992  0.2753
   66MOL    C3614466   3.826   4.339   6.705  0.0346 -0.1853  0.4826
   66MOL    O3714467   3.912   4.255   6.696  0.0277  0.7411 -0.7737
   66MOL    C3814468   3.837   4.480   6.641  0.6689  0.3836 -0.0932
   66MOL    C3914469   3.733   4.218   6.911 -0.6247  0.6059 -0.8967
   66MOL    H4014470   3.655   4.402   6.823  1.1981  0.6715  0.0361
   66MOL    H4114471   3.745   4.536   6.661  1.6549  2.5035 -1.4041
   66MOL    H4214472   3.927   4.525   6.684  1.9345 -0.9264 -1.3430
   66MOL    H4314473   3.827   4.476   6.533 -0.3345 -0.1674  0.0076
   66MOL    H4414474   3.792   4.138   6.866 -0.8531 -0.8171  1.2342
   66MOL    H4514475   3.640   4.178   6.952 -0.9933  0.4483 -1.8909
   66MOL    C4614476   3.827   4.278   7.009 -0.5442 -0.0530 -0.2386
   66MOL    C4714477   3.877   4.175   7.113  0.5303 -0.0634 -0.1338
   66MOL    O4814478   3.858   4.197   7.231 -0.1720 -0.1147 -0.3264
   66MOL    C4914479   3.990   4.086   7.065  0.8042  0.3196 -0.3125
   66MOL    C5014480   3.775   4.415   7.075 -0.1494  0.1328 -0.0522
   66MOL    H5114481   3.913   4.313   6.952 -0.0092  1.0099  1.1658
   66MOL    H5214482   4.050   4.142   6.994  1.5684  0.5000  0.4661
   66MOL    H5314483   4.062   4.049   7.138 -0.4333 -0.1950  0.6831
   66MOL    H5414484   3.949   3.993   7.024 -1.6881  0.9659  0.6118
   66MOL    H5514485   3.671   4.392   7.101 -0.5162  0.9354 -0.8128
   66MOL    H5614486   3.773   4.492   6.998 -3.7378 -0.0628 -0.2372
   66MOL    C5714487   3.862   4.487   7.187  0.0078 -0.0493 -0.1596
   66MOL    C5814488   3.774   4.597   7.254 -0.3796  0.2093  0.3031
   66MOL    O5914489   3.681   4.658   7.202  0.5900 -0.6747 -0.0502
   66MOL    C6014490   3.803   4.632   7.399 -0.4195 -0.1049  0.2717
   66MOL    C6114491   3.998   4.539   7.139  0.2306  0.4789 -0.3379
   66MOL    H6214492   3.877   4.410   7.263 -0.9617 -1.1357 -1.0520
   66MOL    H6314493   3.769   4.731   7.426  0.0205  0.0973  0.0920
   66MOL    H6414494   3.757   4.562   7.469  0.3516 -0.6685  0.2320
   66MOL    H6514495   3.910   4.643   7.420 -0.1880  5.0711 -2.7789
   66MOL    H6614496   4.009   4.641   7.176 -0.9209  0.2792  0.5940
   66MOL    H6714497   3.999   4.547   7.030  2.3152  0.5060 -0.3379
   66MOL    C6814498   4.121   4.461   7.181 -0.0866 -0.4331 -0.4355
   66MOL    C6914499   4.125   4.438   7.329 -0.5235  0.6117 -0.1053
   66MOL    O7014500   4.114   4.532   7.411  0.5783 -0.1691 -0.3032
   66MOL    C7114501   4.141   4.304   7.386  0.6620 -0.0524  0.6705
   66MOL    C7214502   4.249   4.535   7.133  0.6740 -0.7026 -0.1589
   66MOL    H7314503   4.116   4.364   7.132  0.9251  0.0915 -1.6205
   66MOL    H7414504   4.229   4.306   7.450  1.2543  0.9385 -0.1761
   66MOL    H7514505   4.054   4.276   7.447  0.0697  0.7841  0.2284
   66MOL    H7614506   4.164   4.231   7.308 -0.4413  2.4454 -2.0742
   66MOL    H7714507   4.264   4.619   7.201 -1.7805 -0.5940  0.3007
   66MOL    H7814508   4.230   4.580   7.036 -3.3247 -0.0037  0.8459
   66MOL    C7914509   4.372   4.435   7.136  0.2770 -0.0094 -0.0202
   66MOL    C8014510   4.502   4.510   7.159  0.0451  0.3187 -0.1269
   66MOL    O8114511   4.545   4.605   7.090  0.1926 -0.2686 -0.5697
   66MOL    C8214512   4.558   4.493   7.302 -0.1691  1.0807 -0.0178
   66MOL    C8314513   4.374   4.351   7.008 -0.3375  0.1278 -0.3866
   66MOL    H8414514   4.371   4.359   7.214  1.1737  0.0367  0.0453
   66MOL    H8514515   4.602   4.586   7.338 -0.0273 -0.2418  3.4652
   66MOL    H8614516   4.468   4.475   7.362  0.7891 -3.4189  0.2836
   66MOL    H8714517   4.628   4.411   7.318 -0.6432  0.8812  1.1621
   66MOL    H8814518   4.452   4.394   6.946 -0.3146 -1.2523 -1.3281
   66MOL    H8914519   4.277   4.351   6.960 -0.8278 -1.5825  0.5398
   66MOL    C9014520   4.398   4.206   7.030 -0.7318 -0.5179 -0.0809
   66MOL    C9114521   4.539   4.179   7.095 -0.3083  0.4385 -0.7894
   66MOL    O9214522   4.641   4.228   7.046  0.4479  0.3293 -0.2928
   66MOL    C9314523   4.538   4.096   7.222  0.7907 -0.1439 -0.2650
   66MOL    C9414524   4.369   4.131   6.895 -1.0615 -0.1425  0.0923
   66MOL    H9514525   4.325   4.167   7.101 -0.0290 -1.3919  0.1648
   66MOL    H9614526   4.623   4.111   7.289  0.0737  1.2765  0.3435
   66MOL    H9714527   4.450   4.120   7.281  2.1347 -0.5721  1.9984
   66MOL    H9814528   4.527   3.992   7.191 -1.2037 -0.3418  0.9940
   66MOL    H9914529   4.438   4.175   6.823 -0.7803 -1.3349 -0.3857
   66MOL   H10014530   4.273   4.170   6.863  0.0631  2.5183 -0.1557
   66MOL   C10114531   4.385   3.971   6.895 -0.5601  0.0338  0.1355
   66MOL   C10214532   4.412   3.923   6.749 -0.0839 -0.3156 -0.2319
   66MOL   O10314533   4.321   3.875   6.679 -0.2359 -0.5595  0.2347
   66MOL   C10414534   4.554   3.927   6.701 -0.7494 -0.4601 -0.3667
   66MOL   C10514535   4.271   3.891   6.968  0.6740  0.9759  0.8512
   66MOL   H10614536   4.474   3.948   6.954  1.3253  2.1779 -1.7723
   66MOL   H10714537   4.628   3.945   6.780 -0.0383 -0.1522 -1.0920
   66MOL   H10814538   4.578   3.839   6.642  1.7188  0.4843 -0.8369
   66MOL   H10914539   4.556   4.020   6.643 -0.7157 -0.1553  0.1144
   66MOL   H11014540   4.187   3.891   6.899 -0.1337 -0.4017  1.7888
   66MOL   H11114541   4.228   3.944   7.054 -2.4018  0.0087 -0.0294
   66MOL   C11214542   4.299   3.756   7.046 -0.4957 -0.1262  0.4771
   66MOL   C11314543   4.366   3.654   6.960 -0.0692  0.1424  0.0736
   66MOL   O11414544   4.489   3.635   6.981 -0.2689 -0.8484 -0.2902
   66MOL   C11514545   4.282   3.593   6.848 -0.1477 -0.2315 -0.0264
   66MOL   C11614546   4.177   3.715   7.124 -0.0306 -0.3456  0.1757
   66MOL   H11714547   4.382   3.782   7.112  0.6654  0.7963 -1.3078
   66MOL   H11814548   4.241   3.498   6.883  1.5802 -0.8102  0.4935
   66MOL   H11914549   4.208   3.662   6.808 -0.2002 -0.3369 -0.1098
   66MOL   H12014550   4.342   3.557   6.765 -1.3491 -3.0518  0.2736
   66MOL   H12114551   4.127   3.644   7.058 -0.3961 -1.1461  1.2937
   66MOL   H12214552   4.115   3.804   7.126 -1.1922 -1.1769  2.8138
   66MOL   C12314553   4.199   3.652   7.264  0.5362  0.2288  0.4571
   66MOL   C12414554   4.195   3.499   7.267 -0.3301 -0.4901  0.3780
   66MOL   O12514555   4.129   3.436   7.186  0.3402 -0.2195  0.7758
   66MOL   C12614556   4.268   3.429   7.379 -0.7215  0.2142 -0.3267
   66MOL   C12714557   4.093   3.707   7.365 -0.4491  0.1388 -0.3249
   66MOL   H12814558   4.296   3.681   7.304  1.6058 -1.0932 -1.1056
   66MOL   H12914559   4.315   3.493   7.453  0.2544 -1.3857  0.4679
   66MOL   H13014560   4.205   3.352   7.425 -0.0000 -0.4356 -0.4074
   66MOL   H13114561   4.350   3.376   7.330 -1.0525 -1.7569  1.1846
   66MOL   H13214562   4.108   3.655   7.460  2.6853  0.6630 -0.4592
   66MOL   H13314563   3.997   3.675   7.326 -0.1689  1.1328 -1.8802
   66MOL   C13414564   4.085   3.856   7.395 -0.2605 -0.0539  1.1819
   66MOL   C13514565   4.217   3.926   7.408 -0.0045  0.9922  0.4981
   66MOL   O13614566   4.265   3.991   7.317 -0.1169 -0.5067  0.1348
   66MOL   C13714567   4.302   3.905   7.536  0.5877 -0.0784 -0.2694
   66MOL   C13814568   3.999   3.902   7.512 -0.2682 -0.2412 -0.7556
   66MOL   H13914569   4.042   3.902   7.307  0.7544 -1.0484  0.1302
   66MOL   H14014570   4.321   3.799   7.548 -0.3278 -0.3879 -1.4356
   66MOL   H14114571   4.394   3.965   7.538 -0.2720  1.2342  0.7700
   66MOL   H14214572   4.252   3.939   7.627  2.2440  0.9378  0.2881
   66MOL   H14314573   4.018   4.008   7.529 -0.2355 -0.6629  1.9385
   66MOL   H14414574   4.017   3.848   7.604 -0.6873 -1.8310 -1.5835
   66MOL   C14514575   3.849   3.886   7.495  0.0316 -0.0104  0.2624
   66MOL   C14614576   3.774   3.993   7.573  0.0789 -0.8931 -0.2851
   66MOL   O14714577   3.794   4.021   7.692  0.8535 -0.1190 -0.2354
   66MOL   C14814578   3.669   4.068   7.493  0.1438 -0.1246  0.1698
   66MOL   C14914579   3.797   3.747   7.532 -0.1514  0.1817 -0.1083
   66MOL   H15014580   3.832   3.898   7.388  0.1115 -2.2534 -0.0309
   66MOL   H15114581   3.716   4.077   7.395 -1.8054  2.3538 -0.5931
   66MOL   H15214582   3.578   4.009   7.491  0.2027 -0.1911 -0.6913
   66MOL   H15314583   3.633   4.166   7.523  0.0379 -0.9421  2.7937
   66MOL   H15414584   3.778   3.762   7.638 -0.6758 -0.7129 -0.0719
   66MOL   H15514585   3.869   3.666   7.525 -1.2218 -0.7927  0.0945
   66MOL   C15614586   3.655   3.715   7.477 -0.3425 -0.2345  0.5874
   66MOL   C15714587   3.598   3.592   7.553  0.3542 -0.4895 -0.8056
   66MOL   O15814588   3.643   3.481   7.546 -0.2840 -0.8599 -0.6599
   66MOL   C15914589   3.467   3.621   7.624 -0.3967  0.2347 -0.0639
   66MOL   C16014590   3.665   3.689   7.326 -0.2393 -0.0077  0.0031
   66MOL   H16114591   3.588   3.801   7.475 -1.5779 -1.1579  1.8605
   66MOL   H16214592   3.397   3.683   7.568 -0.4895  0.8890  0.7695
   66MOL   H16314593   3.414   3.537   7.669  0.5354 -0.1444  0.3308
   66MOL   H16414594   3.481   3.677   7.717 -2.8408 -0.1995  0.6124
   66MOL   H16514595   3.722   3.596   7.316 -0.5689 -0.0598 -1.4753
   66MOL   H16614596   3.727   3.758   7.268 -1.6430  0.4699 -0.9477
   66MOL   C16714597   3.529   3.687   7.242  0.0384 -1.1976 -0.0294
   66MOL   C16814598   3.443   3.560   7.264  0.2701  0.4710 -0.2765
   66MOL   O16914599   3.490   3.448   7.271  0.1751  0.7043  0.0790
   66MOL   C17014600   3.295   3.582   7.274  0.2253  0.7104 -0.6115
   66MOL   C17114601   3.545   3.705   7.084  0.1544  0.2889  0.1196
   66MOL   H17214602   3.462   3.766   7.276 -0.5129 -0.3286 -3.0514
   66MOL   H17314603   3.272   3.685   7.249 -1.5594  1.0568  2.1999
   66MOL   H17414604   3.242   3.522   7.201 -0.6643 -1.8508  2.0264
   66MOL   H17514605   3.251   3.552   7.369  1.4972  1.4219  0.2296
   66MOL   H17614606   3.446   3.690   7.043  0.0286  0.2129  0.4452
   66MOL   H17714607   3.622   3.633   7.056  0.5238  0.4800  0.6198
   66MOL   C17814608   3.595   3.842   7.023  0.3487 -0.3859  0.0641
   66MOL   C17914609   3.530   3.963   7.094 -0.3958  0.0689 -0.1965
   66MOL   O18014610   3.595   4.014   7.187  0.1391  0.0261 -0.5372
   66MOL   C18114611   3.386   4.008   7.056  0.4036 -0.4621 -0.9813
   66MOL   C18214612   3.577   3.847   6.871  0.8026  0.7289  0.2065
   66MOL   H18314613   3.701   3.839   7.046  0.7060  0.4708 -1.4447
   66MOL   H18414614   3.378   4.048   6.955  2.2477 -0.5371 -1.1795
   66MOL   H18514615   3.335   3.913   7.040 -0.8075  0.1597 -0.9062
   66MOL   H18614616   3.334   4.053   7.141 -0.7997 -1.0398 -1.4056
   66MOL   H18714617   3.616   3.946   6.845 -0.6006  1.5964  1.3270
   66MOL   H18814618   3.471   3.843   6.848  1.1050 -0.3057 -1.0487
   66MOL   C18914619   3.643   3.737   6.780 -0.7509  0.0462  0.8231
   66MOL   C19014620   3.797   3.730   6.794 -0.4470  0.1446  0.4104
   66MOL   O19114621   3.862   3.814   6.863  0.0210 -0.2211 -0.2382
   66MOL   C19214622   3.873   3.617   6.713  0.6455  0.2224  0.4855
   66MOL   C19314623   3.603   3.775   6.634  0.1556 -0.1033  0.3049
   66MOL   H19414624   3.603   3.641   6.813 -0.6890  0.2466  1.5048
   66MOL   H19514625   3.945   3.669   6.649 -0.9440  1.7990 -0.0560
   66MOL   H19614626   3.908   3.538   6.779  2.8947  0.7095 -0.0722
   66MOL   H19714627   3.794   3.576   6.651 -0.6757  3.1347  0.1465
   66MOL   H19814628   3.688   3.766   6.567  1.0864  2.1626  1.1530
   66MOL   H19914629   3.576   3.880   6.633 -0.3839 -0.1780  2.6687
   66MOL   C20014630   3.487   3.687   6.575 -0.4944  0.2990  0.7470
   66MOL   C20114631   3.522   3.545   6.522  0.3750  0.0062  0.6172
   66MOL   O20214632   3.618   3.524   6.449  0.3403  0.5773  0.0870
   66MOL   C20314633   3.415   3.433   6.530 -0.3120  0.2079 -0.0876
   66MOL   C20414634   3.422   3.770   6.463 -0.1300  0.0433 -0.1686
   66MOL   H20514635   3.417   3.681   6.658 -2.0511  0.6765 -0.5180
   66MOL   H20614636   3.457   3.333   6.541 -0.4449  0.2649  1.0467
   66MOL   H20714637   3.347   3.440   6.616 -0.6220 -1.2389 -0.2067
   66MOL   H20814638   3.368   3.423   6.432 -1.6605  2.0546  0.3413
   66MOL   H20914639   3.388   3.869   6.494 -0.0950  0.2140 -0.6748
   66MOL   H21014640   3.331   3.715   6.437  0.9459 -2.7124  1.7168
   66MOL   C21114641   3.491   3.784   6.324 -0.1855 -0.0886 -0.0240
   66MOL   C21214642   3.612   3.884   6.324 -0.0430  0.3611 -0.4579
   66MOL   O21314643   3.621   3.972   6.407  0.4324 -0.2027 -0.5706
   66MOL   C21414644   3.712   3.868   6.210 -0.2057  0.3646  0.0198
   66MOL   C21514645   3.393   3.830   6.211 -0.3661 -0.1003  0.4484
   66MOL   H21614646   3.532   3.687   6.299 -0.7218 -0.2862 -0.1524
   66MOL   H21714647   3.745   3.971   6.206  0.5082  0.1220 -0.3679
   66MOL   H21814648   3.790   3.795   6.232 -0.1374 -0.1176 -1.7555
   66MOL   H21914649   3.676   3.846   6.110  0.3784 -0.0525 -0.0990
   66MOL   H22014650   3.315   3.756   6.194 -0.8639  0.8193 -1.3799
   66MOL   H22114651   3.442   3.846   6.115  1.9670  3.2577  2.1105
   66MOL   H22214652   3.332   3.918   6.231 -1.8367 -0.9981  0.0282
   67MOL     C114653   3.764   5.423   6.636  0.2476  0.2765  0.0914
   67MOL     C214654   3.632   5.480   6.674 -0.0728  0.4466 -0.1831
   67MOL     O314655   3.617   5.596   6.712 -0.0263  0.5125 -0.1317
   67MOL     C414656   3.512   5.395   6.699 -0.1262  0.8745 -0.2346
   67MOL     C514657   3.881   5.476   6.719 -0.1211  0.1749  1.2531
   67MOL     H614658   3.761   5.315   6.654 -1.1398  0.2831 -0.0922
   67MOL     H714659   3.528   5.291   6.672 -1.1810  0.5249  0.4672
   67MOL     H814660   3.472   5.391   6.801  2.2808  1.6723  0.7857
   67MOL     H914661   3.435   5.432   6.632 -0.5541  2.2524  0.9844
   67MOL    H1014662   3.851   5.457   6.822  1.4141 -0.5534  1.5774
   67MOL    H1114663   3.880   5.584   6.710 -1.6051  0.2622  2.2541
   67MOL    H1214664   3.783   5.452   6.532  1.1726  2.2461  0.7885
   67MOL    C1314665   4.018   5.411   6.691  0.4208 -0.3783 -0.0805
   67MOL    C1414666   4.018   5.258   6.717 -0.1263 -0.0960 -0.1166
   67MOL    O1514667   4.030   5.211   6.832 -0.5118  0.0693  0.8399
   67MOL    C1614668   3.983   5.164   6.603  0.1751 -0.0617  0.0348
   67MOL    C1714669   4.137   5.484   6.762  0.1936  0.2863  0.3929
   67MOL    H1814670   4.042   5.425   6.586 -1.6101  0.4454 -0.4593
   67MOL    H1914671   4.031   5.066   6.593  0.6020  0.2883 -1.5982
   67MOL    H2014672   3.875   5.147   6.605 -0.1137  1.7975  3.0822
   67MOL    H2114673   4.001   5.213   6.507 -0.4556  0.4562  0.1752
   67MOL    H2214674   4.229   5.427   6.752  1.5864  2.7946 -1.6699
   67MOL    H2314675   4.105   5.483   6.866  0.4982  5.1945  0.6208
   67MOL    C2414676   4.164   5.634   6.749  0.1986  0.4901 -0.0404
   67MOL    C2514677   4.182   5.684   6.606 -0.1688  0.7283 -0.9531
   67MOL    O2614678   4.238   5.613   6.524 -0.3824 -0.2093 -0.2099
   67MOL    C2714679   4.131   5.824   6.571  0.4825 -0.5167  0.4381
   67MOL    C2814680   4.273   5.677   6.852 -0.9206  0.3104  0.5826
   67MOL    H2914681   4.066   5.672   6.776 -0.9408 -2.0037 -0.5549
   67MOL    H3014682   4.210   5.897   6.589  2.1496 -2.8494  2.9534
   67MOL    H3114683   4.112   5.823   6.464 -2.1874 -0.3218  0.8657
   67MOL    H3214684   4.038   5.863   6.614  0.0563  1.9998 -2.5388
   67MOL    H3314685   4.315   5.771   6.818  1.9325 -1.9079 -2.3280
   67MOL    H3414686   4.351   5.602   6.863 -0.0197  1.1158 -0.2568
   67MOL    C3514687   4.206   5.698   6.989  0.9944 -0.0015 -0.0146
   67MOL    C3614688   4.100   5.811   6.988  0.3098  0.1075  1.0054
   67MOL    O3714689   4.095   5.897   6.898 -0.5079 -0.2384 -0.3606
   67MOL    C3814690   4.013   5.832   7.112 -0.6290  0.2031 -0.6295
   67MOL    C3914691   4.313   5.727   7.099  0.1612 -0.3248 -0.1865
   67MOL    H4014692   4.150   5.612   7.026  0.2942  0.2037 -0.5934
   67MOL    H4114693   4.021   5.756   7.190  0.8506 -0.4837 -1.4267
   67MOL    H4214694   4.014   5.934   7.151 -0.3542 -0.3456  0.8165
   67MOL    H4314695   3.908   5.826   7.083 -0.9374  1.6833  0.1329
   67MOL    H4414696   4.381   5.641   7.102  0.7665  0.1752  1.2376
   67MOL    H4514697   4.264   5.717   7.196 -2.5187 -0.0749 -1.5007
   67MOL    C4614698   4.398   5.865   7.098  0.2324  0.0399  0.2590
   67MOL    C4714699   4.499   5.867   6.986 -0.1146 -0.1073 -0.3037
   67MOL    O4814700   4.494   5.952   6.895 -0.3057  0.6181 -0.3161
   67MOL    C4914701   4.609   5.760   6.992 -0.0789  0.5856  0.2851
   67MOL    C5014702   4.450   5.883   7.239 -0.1557 -0.2305 -0.6344
   67MOL    H5114703   4.335   5.951   7.073 -1.1305 -1.9487 -3.6506
   67MOL    H5214704   4.620   5.708   7.087 -1.7797  1.0194  0.7485
   67MOL    H5314705   4.585   5.683   6.919  0.5652 -0.0951  0.7973
   67MOL    H5414706   4.706   5.792   6.954 -0.0290  0.4906  0.3329
   67MOL    H5514707   4.495   5.789   7.269  1.9999  0.0646 -2.7363
   67MOL    H5614708   4.359   5.879   7.298 -0.5259 -0.8891 -1.2501
   67MOL    C5714709   4.534   6.004   7.286  0.3150  0.5839  0.0844
   67MOL    C5814710   4.668   6.024   7.217 -0.6742  0.0060  0.2754
   67MOL    O5914711   4.752   5.936   7.196 -0.0306 -0.1538 -0.3269
   67MOL    C6014712   4.696   6.157   7.159  0.2355 -0.4058 -0.0079
   67MOL    C6114713   4.556   6.014   7.443 -0.0693  0.0675  0.9802
   67MOL    H6214714   4.480   6.091   7.250  3.1315  2.7544  0.8383
   67MOL    H6314715   4.686   6.160   7.050 -0.1799  0.8698  0.0642
   67MOL    H6414716   4.627   6.226   7.206 -0.8636 -0.5592 -1.3511
   67MOL    H6514717   4.794   6.197   7.186 -0.4665  2.0539 -0.9913
   67MOL    H6614718   4.621   5.936   7.482  3.3158  2.0705 -0.4393
   67MOL    H6714719   4.454   5.994   7.478 -0.6726  1.3200 -0.0218
   67MOL    C6814720   4.601   6.149   7.495 -0.5458 -0.3011 -0.3529
   67MOL    C6914721   4.733   6.138   7.568  0.2462  0.6138  0.1201
   67MOL    O7014722   4.737   6.108   7.692 -0.0823 -0.0680 -0.3159
   67MOL    C7114723   4.858   6.140   7.487 -0.9367  0.3041 -0.0198
   67MOL    C7214724   4.499   6.216   7.580  0.4074  0.4460 -0.4019
   67MOL    H7314725   4.632   6.211   7.411 -0.3318 -1.5866 -1.2388
   67MOL    H7414726   4.841   6.200   7.398  2.1168 -0.7127 -1.3725
   67MOL    H7514727   4.947   6.174   7.541 -1.2540 -1.0118  1.3964
   67MOL    H7614728   4.882   6.041   7.449  0.0113  0.6751 -0.4112
   67MOL    H7714729   4.476   6.153   7.667  0.3983  0.6298 -0.2721
   67MOL    H7814730   4.404   6.203   7.529  0.9027  0.2913 -1.2964
   67MOL    C7914731   4.532   6.371   7.604 -0.0077  0.0359 -0.6519
   67MOL    C8014732   4.476   6.415   7.742  0.5044  0.0277 -0.5505
   67MOL    O8114733   4.375   6.488   7.758 -0.4741  0.2493 -0.1994
   67MOL    C8214734   4.556   6.371   0.020 -0.0344 -0.4431  0.5454
   67MOL    C8314735   4.504   6.462   7.479 -0.5804  0.1798  0.2138
   67MOL    H8414736   4.636   6.395   7.623 -1.1024  4.0131  0.6786
   67MOL    H8514737   4.589   6.267   0.012  0.1668 -0.3011 -0.5168
   67MOL    H8614738   4.644   6.433   0.006  0.3883 -1.0816  0.3589
   67MOL    H8714739   4.518   6.404   0.117 -0.1359 -2.3910  1.1962
   67MOL    H8814740   4.554   6.424   7.390  1.6811  1.6137  0.8166
   67MOL    H8914741   4.544   6.563   7.492  1.3628 -0.4922 -0.4089
   67MOL    C9014742   4.358   6.492   7.437  0.3057  0.5842 -0.5089
   67MOL    C9114743   4.301   6.379   7.349 -0.1561 -0.0961 -0.5784
   67MOL    O9214744   4.368   6.302   7.289 -1.1266 -0.1242  0.8533
   67MOL    C9314745   4.157   6.360   7.333 -0.0924  0.2698 -0.2535
   67MOL    C9414746   4.341   6.626   7.358  1.2466 -0.0337  0.1616
   67MOL    H9514747   4.293   6.499   7.524  1.8306 -0.4950  0.7567
   67MOL    H9614748   4.087   6.411   7.399 -0.1952  1.3738 -1.1990
   67MOL    H9714749   4.127   6.380   7.230 -0.4202 -1.4280 -0.5099
   67MOL    H9814750   4.140   6.255   7.357 -0.4060  0.1857 -0.8251
   67MOL    H9914751   4.237   6.625   7.323  1.4647  1.3197 -0.5633
   67MOL   H10014752   4.410   6.629   7.274  0.0439  0.1414 -0.8475
   67MOL   C10114753   4.369   6.760   7.431 -0.4487  0.7518 -0.1263
   67MOL   C10214754   4.260   6.787   7.539  0.3588  0.1278  0.0190
   67MOL   O10314755   4.151   6.735   7.530 -0.3468 -0.3094 -0.2998
   67MOL   C10414756   4.298   6.878   7.656 -0.6883  0.0861 -0.3127
   67MOL   C10514757   4.373   6.884   7.334  0.7683  0.6513  0.5609
   67MOL   H10614758   4.471   6.761   7.468 -0.0224  2.4444 -1.3229
   67MOL   H10714759   4.356   6.829   7.734 -2.8389 -1.6581  0.2691
   67MOL   H10814760   4.372   6.947   7.618  2.8203 -2.0852  2.3053
   67MOL   H10914761   4.206   6.932   7.680 -0.6442  0.6468 -1.4032
   67MOL   H11014762   4.457   6.879   7.264 -0.6287  0.9647 -1.1835
   67MOL   H11114763   4.401   6.962   7.405  2.9262 -1.4718  2.1523
   67MOL   C11214764   4.241   6.917   7.261  0.3190 -0.0861  0.0550
   67MOL   C11314765   4.231   6.829   7.129  0.0133  0.2747 -0.2339
   67MOL   O11414766   4.318   6.818   7.052  0.0873  0.0589  0.2111
   67MOL   C11514767   4.096   6.769   7.095  0.4531  0.8013  0.0493
   67MOL   C11614768   4.233   7.065   7.221 -0.6711  0.4567 -0.5700
   67MOL   H11714769   4.151   6.886   7.314 -1.5005  0.2412 -2.7574
   67MOL   H11814770   4.033   6.830   7.031  0.5978  0.5557 -0.3335
   67MOL   H11914771   4.115   6.670   7.052  1.4818  0.4612  1.2525
   67MOL   H12014772   4.038   6.734   7.180  1.4816 -1.8285 -0.2836
   67MOL   H12114773   4.180   7.081   7.127 -0.1795 -0.4338 -0.9973
   67MOL   H12214774   4.336   7.095   7.205 -0.7512  0.4704 -1.0599
   67MOL   C12314775   4.152   7.155   7.317 -0.2195  0.2842  0.2249
   67MOL   C12414776   4.006   7.102   7.336 -0.5780  0.0501  0.7437
   67MOL   O12514777   3.925   7.099   7.244 -0.1301  0.2860 -0.3983
   67MOL   C12614778   3.974   7.020   7.463  0.4134 -0.5888  0.2931
   67MOL   C12714779   4.175   7.301   7.265  0.6828  0.0269 -0.4978
   67MOL   H12814780   4.200   7.152   7.414 -1.5203  2.3618  0.9718
   67MOL   H12914781   3.890   7.065   7.516 -1.0144  1.4778 -3.5530
   67MOL   H13014782   3.931   6.921   7.449 -1.2356  0.3809 -1.7713
   67MOL   H13114783   4.066   7.026   7.521  0.9055 -0.6063 -0.4864
   67MOL   H13214784   4.113   7.318   7.177 -0.3739 -1.1686  0.0018
   67MOL   H13314785   4.280   7.304   7.236  0.7840  0.0438 -0.1325
   67MOL   C13414786   4.152   7.412   7.373 -0.4164 -0.0377  0.3344
   67MOL   C13514787   4.131   7.542   7.298 -0.2398 -0.5495  0.3402
   67MOL   O13614788   4.221   7.612   7.252 -0.1680 -0.5296  0.3580
   67MOL   C13714789   3.992   7.590   7.289  0.4022 -0.3369 -0.4229
   67MOL   C13814790   4.266   7.421   7.483  0.6276  0.1827  0.0788
   67MOL   H13914791   4.062   7.373   7.423 -0.2758 -0.0612  0.5688
   67MOL   H14014792   3.916   7.514   7.269 -0.0205  0.4053 -1.6786
   67MOL   H14114793   3.965   7.640   7.382 -0.7873  0.1576 -1.0148
   67MOL   H14214794   3.987   7.662   7.208 -1.1014  0.1200  0.0489
   67MOL   H14314795   4.354   7.451   7.427  2.3128 -1.4594  1.7446
   67MOL   H14414796   4.273   7.319   7.520 -2.4781  0.0423  0.4168
   67MOL   C14514797   4.231   7.522   7.601  0.1395  0.1136 -0.1186
   67MOL   C14614798   4.352   7.552   7.688  0.7092  0.5222  0.6679
   67MOL   O14714799   4.460   7.490   7.691 -0.3608  0.8079 -0.3055
   67MOL   C14814800   4.327   7.670   7.781  0.7466 -0.2106  0.3010
   67MOL   C14914801   4.111   7.470   7.688  0.5529  0.1197 -0.0793
   67MOL   H15014802   4.215   7.621   7.557  1.3220  1.0429  1.4967
   67MOL   H15114803   4.258   7.742   7.738 -1.3152 -2.9403 -1.1296
   67MOL   H15214804   4.291   7.624   0.030  0.1552  0.1249  0.2360
   67MOL   H15314805   4.421   7.723   7.793 -0.3795  1.7009  0.7845
   67MOL   H15414806   4.042   7.422   7.619  0.6070 -0.5902  0.3540
   67MOL   H15514807   4.068   7.562   7.729 -0.7992  0.0252 -1.2577
   67MOL   C15614808   4.139   7.378   7.808 -0.4862  0.1991 -0.4553
   67MOL   C15714809   4.194   7.244   7.770  0.9051  0.2653 -0.1184
   67MOL   O15814810   4.140   7.177   7.683  0.2513  0.4882 -0.0133
   67MOL   C15914811   4.307   7.181   0.002  0.3852  0.1352 -0.7758
   67MOL   C16014812   4.015   7.368   0.057  0.3727 -0.0905 -0.0151
   67MOL   H16114813   4.214   7.428   0.028  0.6361 -0.9263 -0.8918
   67MOL   H16214814   4.400   7.224   7.806  1.1191 -0.7440  0.0100
   67MOL   H16314815   4.301   7.203   0.108 -2.2289  1.0781 -1.0966
   67MOL   H16414816   4.316   7.073   7.832 -1.1854  0.0151 -0.9767
   67MOL   H16514817   3.928   7.337   7.841  0.4451  1.3772 -0.9232
   67MOL   H16614818   3.980   7.469   0.079  1.1156  0.3738 -0.9630
   67MOL   C16714819   4.028   7.287   0.182 -0.0201 -0.2298 -0.5139
   67MOL   C16814820   3.893   7.194   0.195  0.3223  0.0775 -0.1053
   67MOL   O16914821   3.802   7.228   0.273 -0.5884  0.2530  0.1412
   67MOL   C17014822   3.891   7.074   0.095  0.1193 -0.7202  0.0274
   67MOL   C17114823   4.068   7.356   0.314 -0.0165  0.1471 -0.3126
   67MOL   H17214824   4.109   7.215   0.170  1.2483  1.2423 -0.8999
   67MOL   H17314825   3.859   7.082   7.834  0.7266  0.0302 -0.1105
   67MOL   H17414826   3.994   7.044   0.078 -0.3523 -2.8353  0.7814
   67MOL   H17514827   3.837   6.988   0.136 -1.4832 -0.0457 -0.6362
   67MOL   H17614828   4.073   7.293   0.402  1.6211  0.9617  0.1787
   67MOL   H17714829   3.985   7.421   0.341 -0.3833 -0.9753  1.3314
   67MOL   C17814830   4.203   7.433   0.315 -0.0834  0.2173 -0.2218
   67MOL   C17914831   4.321   7.332   0.323  0.0203 -0.2992 -0.3112
   67MOL   O18014832   4.303   7.215   0.351 -0.1661 -0.2394 -0.1307
   67MOL   C18114833   4.464   7.383   0.310  0.2042  0.0416 -0.0593
   67MOL   C18214834   4.209   7.547   0.434  0.0680 -0.4090 -0.3728
   67MOL   H18314835   4.224   7.483   0.221  0.8422  0.8266  0.2975
   67MOL   H18414836   4.502   7.334   0.221  0.9450  0.6009 -0.0577
   67MOL   H18514837   4.469   7.492   0.304  0.6363  0.0855  0.8339
   67MOL   H18614838   4.518   7.350   0.399 -0.1428  0.9919  0.5175
   67MOL   H18714839   4.310   7.588   0.434 -0.1389  0.1341  1.4342
   67MOL   H18814840   4.201   7.505   0.535 -0.3456  0.9885  0.1922
   67MOL   C18914841   4.102   7.658   0.419 -0.2268 -0.3825  0.1049
   67MOL   C19014842   4.130   7.763   0.314  0.5826  0.4156 -0.2680
   67MOL   O19114843   4.242   7.781   0.268 -0.2343  0.2601  0.4645
   67MOL   C19214844   4.011   7.839   0.262 -0.1950  0.5934 -0.1863
   67MOL   C19314845   4.086   7.735   0.550 -0.9039 -0.3776 -0.1520
   67MOL   H19414846   4.003   7.613   0.405  0.0111 -1.9573  2.9668
   67MOL   H19514847   4.043   0.063   0.181  0.4657 -0.1148 -0.5026
   67MOL   H19614848   3.936   7.763   0.240  1.1641 -0.0972 -2.5095
   67MOL   H19714849   3.976   0.067   0.339  1.6702 -0.0625  1.3028
   67MOL   H19814850   4.026   7.825   0.534  0.5704  0.7161  0.2915
   67MOL   H19914851   4.182   7.775   0.583 -0.0039 -3.0541  0.5734
   67MOL   C20014852   4.011   7.650   0.661 -0.3640  0.5032  0.0282
   67MOL   C20114853   3.868   7.612   0.610  0.7241 -0.3826 -0.2368
   67MOL   O20214854   3.788   7.701   0.577 -0.2152 -0.1577  0.3133
   67MOL   C20314855   3.842   7.462   0.593  0.7102  0.0438 -0.3738
   67MOL   C20414856   4.006   7.727   0.798 -0.2620  0.3043  0.3820
   67MOL   H20514857   4.064   7.556   0.672 -1.6528 -0.2132  0.2852
   67MOL   H20614858   3.750   7.456   0.535 -0.8268  0.4660  1.9696
   67MOL   H20714859   3.913   7.407   0.531  0.6794  0.6510 -0.9689
   67MOL   H20814860   3.838   7.406   0.686  0.1624  0.2786 -0.2534
   67MOL   H20914861   3.929   7.669   0.849  0.5153 -0.1941  0.9960
   67MOL   H21014862   3.970   7.828   0.777 -0.8916 -0.3435 -1.7296
   67MOL   C21114863   4.140   7.722   0.876  0.1507 -0.3336 -0.2410
   67MOL   C21214864   4.210   7.591   0.895  0.4649 -0.0755  0.0572
   67MOL   O21314865   4.323   7.571   0.843 -0.0758  0.6235 -0.3652
   67MOL   C21414866   4.134   7.480   0.964 -0.0610 -0.4683 -0.3002
   67MOL   C21514867   4.130   7.790   1.006 -0.0287 -0.0160 -0.3375
   67MOL   H21614868   4.199   7.793   0.818  0.2023 -0.8495 -0.8300
   67MOL   H21714869   4.198   7.398   0.999 -1.2517 -0.0734  2.9687
   67MOL   H21814870   4.077   7.514   1.050  2.0175  0.1740  0.8511
   67MOL   H21914871   4.065   7.440   0.889  0.9709 -3.0122  0.0485
   67MOL   H22014872   4.228   7.804   1.052  0.7992 -3.5972 -0.8734
   67MOL   H22114873   4.070   7.735   1.079  0.1607 -0.4569 -0.5130
   67MOL   H22214874   4.085   0.044   0.979 -1.1722 -0.1241  1.1134
   68MOL     C114875   7.102   4.302   2.733 -0.4759  0.0850 -0.3877
   68MOL     C214876   7.189   4.313   2.610 -0.0566 -0.7548 -0.4242
   68MOL     O314877   7.300   4.368   2.615 -0.0600 -0.3521 -0.5204
   68MOL     C414878   7.141   4.232   2.487 -0.4358 -0.1064 -0.3784
   68MOL     C514879   7.171   4.269   2.862  0.6725 -0.4754  0.3961
   68MOL     H614880   7.067   4.404   2.748 -2.7086 -0.9604  1.8894
   68MOL     H714881   7.146   4.125   2.504 -1.1273 -0.5668 -2.8136
   68MOL     H814882   7.039   4.250   2.453 -0.0311 -1.2575 -2.2899
   68MOL     H914883   7.205   4.258   2.402  0.8466  0.4846  0.7559
   68MOL    H1014884   7.276   4.300   2.866  0.2735  0.7080  2.0983
   68MOL    H1114885   7.167   4.160   2.868  1.2958 -0.3689  3.7222
   68MOL    H1214886   7.009   4.246   2.720  0.5703 -2.2412  1.8060
   68MOL    C1314887   7.101   4.321   2.994  0.1398 -0.0872 -0.0382
   68MOL    C1414888   7.199   4.304   3.115 -0.2253  0.0909  0.4722
   68MOL    O1514889   7.256   4.196   3.134 -0.0298  0.1859  0.2001
   68MOL    C1614890   7.238   4.423   3.201 -0.1493  0.0475 -0.1237
   68MOL    C1714891   6.964   4.248   3.023  0.6873 -0.2406 -0.1673
   68MOL    H1814892   7.099   4.429   2.978  4.7982  0.0798 -0.2465
   68MOL    H1914893   7.187   4.518   3.186 -1.2174 -0.4597  0.2202
   68MOL    H2014894   7.219   4.398   3.305 -3.6384 -0.2397 -0.7468
   68MOL    H2114895   7.343   4.432   3.175 -0.1629  0.3420 -0.0761
   68MOL    H2214896   6.890   4.276   2.948 -1.3393 -1.3807  1.3536
   68MOL    H2314897   6.911   4.284   3.111 -0.7203 -1.6239 -0.4256
   68MOL    C2414898   6.970   4.097   3.022 -0.2969  0.5491 -0.5736
   68MOL    C2514899   6.920   4.038   2.894 -0.3009 -0.1383  0.0484
   68MOL    O2614900   6.811   4.072   2.845  0.3061 -0.5671  0.6307
   68MOL    C2714901   7.017   3.941   2.830 -0.0136  0.0361 -0.5328
   68MOL    C2814902   6.895   4.033   3.141  0.1604  0.4227  0.7539
   68MOL    H2914903   7.071   4.063   3.043 -0.8875  0.2599  2.0500
   68MOL    H3014904   6.954   3.863   2.789 -0.9103  0.4548  0.0371
   68MOL    H3114905   7.059   4.002   2.750 -0.6715  0.3679 -0.6260
   68MOL    H3214906   7.093   3.895   2.893 -1.1227  1.8043  2.1807
   68MOL    H3314907   6.894   3.925   3.125  0.7166  0.6471 -0.8579
   68MOL    H3414908   6.789   4.056   3.143 -0.4781 -2.2114 -0.4387
   68MOL    C3514909   6.962   4.066   3.277 -0.6759  0.4722  0.1662
   68MOL    C3614910   7.049   3.949   3.325  0.1560  0.4058 -0.4404
   68MOL    O3714911   7.029   3.832   3.296 -0.2763 -0.3901 -0.1584
   68MOL    C3814912   7.160   3.978   3.423  0.0791 -0.1523  0.0916
   68MOL    C3914913   6.858   4.099   3.375 -0.2034 -0.8976 -0.8374
   68MOL    H4014914   7.034   4.147   3.268 -0.0345 -0.0201  0.8181
   68MOL    H4114915   7.178   4.085   3.422  1.0581 -0.3090 -0.2218
   68MOL    H4214916   7.136   3.944   3.524  2.6904 -0.3665  0.6925
   68MOL    H4314917   7.243   3.930   3.370 -1.1552 -0.2924 -1.7606
   68MOL    H4414918   6.903   4.096   3.474 -2.2497  0.2735  0.1887
   68MOL    H4514919   6.784   4.019   3.382 -1.4896  0.3504  0.1925
   68MOL    C4614920   6.787   4.235   3.369 -0.0347  0.5345  0.0161
   68MOL    C4714921   6.875   4.354   3.413  0.0609 -0.0730 -0.2906
   68MOL    O4814922   6.980   4.331   3.465 -0.2589 -0.0243 -0.7209
   68MOL    C4914923   6.819   4.494   3.402 -0.0453 -0.1869  0.0412
   68MOL    C5014924   6.643   4.234   3.427 -0.3704  0.1570  0.0998
   68MOL    H5114925   6.770   4.260   3.264 -0.7539  0.0873  0.0271
   68MOL    H5214926   6.758   4.512   3.314  0.5321 -1.5046 -0.6615
   68MOL    H5314927   6.751   4.505   3.486  2.0950  3.6227  1.3779
   68MOL    H5414928   6.893   4.572   3.421 -0.6502  0.6916 -1.1669
   68MOL    H5514929   6.608   4.332   3.459 -0.0899 -0.3096  1.8645
   68MOL    H5614930   6.654   4.178   3.520  0.9788 -1.0852 -0.7906
   68MOL    C5714931   6.537   4.178   3.331  0.6384 -0.5393 -0.5742
   68MOL    C5814932   6.506   4.275   3.213 -0.0463  0.5049 -0.2497
   68MOL    O5914933   6.472   4.389   3.239  0.1014  0.0305  0.0097
   68MOL    C6014934   6.536   4.222   3.073  0.2539  0.2283 -0.5487
   68MOL    C6114935   6.397   4.148   3.407  0.6982 -0.3422  0.2986
   68MOL    H6214936   6.561   4.087   3.275 -2.5379 -2.5845  1.2498
   68MOL    H6314937   6.641   4.234   3.047  0.3945 -0.7853 -0.4902
   68MOL    H6414938   6.517   4.115   3.068 -1.3989  0.5117 -0.7940
   68MOL    H6514939   6.472   4.276   3.003  1.0817 -0.3725 -1.7952
   68MOL    H6614940   6.353   4.244   3.435 -0.9387 -1.2921  1.0794
   68MOL    H6714941   6.423   4.085   3.492  0.1275 -0.4581  0.3857
   68MOL    C6814942   6.289   4.097   3.307  0.8480 -0.2858  0.2179
   68MOL    C6914943   6.148   4.124   3.353  0.1211 -0.7861 -0.2340
   68MOL    O7014944   6.102   4.068   3.454  0.2828 -0.0453  0.2572
   68MOL    C7114945   6.062   4.224   3.274  0.0291 -0.1449 -0.2373
   68MOL    C7214946   6.309   3.943   3.293 -0.2305  0.2055 -0.5706
   68MOL    H7314947   6.292   4.146   3.210  0.8939 -1.8627 -0.5995
   68MOL    H7414948   6.042   4.316   3.328 -3.3418 -0.6704 -0.4605
   68MOL    H7514949   6.116   4.236   3.180  2.4930 -0.1795  1.1348
   68MOL    H7614950   5.963   4.188   3.247 -0.9268  0.9621  1.7067
   68MOL    H7714951   6.290   3.896   3.389  0.6401 -0.5938 -0.7778
   68MOL    H7814952   6.416   3.921   3.300  0.0572  2.3351  2.5312
   68MOL    C7914953   6.238   3.872   3.172  0.1022  0.1752  0.1082
   68MOL    C8014954   6.098   3.819   3.193 -0.3284  0.5398 -0.2345
   68MOL    O8114955   5.998   3.885   3.160 -0.1113  0.4431  0.7537
   68MOL    C8214956   6.078   3.689   3.273 -0.1090 -0.3935 -0.0151
   68MOL    C8314957   6.333   3.766   3.106 -0.6354 -0.1795 -0.1746
   68MOL    H8414958   6.226   3.957   3.105  0.4301 -1.4244 -2.0213
   68MOL    H8514959   6.060   3.606   3.205 -0.7268  0.6639 -1.1648
   68MOL    H8614960   6.165   3.674   3.337  0.7585 -1.0335 -1.3104
   68MOL    H8714961   5.996   3.701   3.344  0.7161  1.6641  0.6340
   68MOL    H8814962   6.322   3.667   3.149  1.4510 -0.0014  0.8216
   68MOL    H8914963   6.436   3.793   3.126  0.1552 -2.5877 -0.8406
   68MOL    C9014964   6.313   3.760   2.948  0.0519 -0.3706  0.8014
   68MOL    C9114965   6.394   3.872   2.879  0.1413  0.1957 -0.7540
   68MOL    O9214966   6.336   3.971   2.836 -0.3628 -0.0670  0.1420
   68MOL    C9314967   6.550   3.855   2.861  0.5078 -0.5579  0.0564
   68MOL    C9414968   6.169   3.740   2.901  0.6050 -0.6774  0.0305
   68MOL    H9514969   6.378   3.675   2.929  1.2793  0.8224 -0.4507
   68MOL    H9614970   6.594   3.888   2.767  0.5518  0.4615  0.4226
   68MOL    H9714971   6.601   3.904   2.945  0.1064 -1.4689  0.8403
   68MOL    H9814972   6.584   3.753   2.878  1.1956 -0.3411 -0.0026
   68MOL    H9914973   6.117   3.836   2.904 -1.0647 -1.5478 -0.2541
   68MOL   H10014974   6.104   3.690   2.973 -1.0454  1.0333 -0.2234
   68MOL   C10114975   6.151   3.678   2.758  0.3104 -0.0037  0.2577
   68MOL   C10214976   6.228   3.542   2.746  0.4246 -0.4700 -0.0819
   68MOL   O10314977   6.291   3.508   2.646  0.1730 -0.3827  0.5066
   68MOL   C10414978   6.192   3.438   2.844  0.2925  0.2201 -0.3931
   68MOL   C10514979   6.185   3.766   2.639 -0.4092 -0.2017 -0.1896
   68MOL   H10614980   6.046   3.648   2.753  0.4399 -0.1777 -1.5849
   68MOL   H10714981   6.255   3.417   2.931 -2.7543 -2.1126  1.3782
   68MOL   H10814982   6.094   3.469   2.883  0.5162  0.4610 -0.0163
   68MOL   H10914983   6.170   3.344   2.794  0.1187 -0.1772  0.4048
   68MOL   H11014984   6.293   3.769   2.620 -0.5255  3.0313 -0.7211
   68MOL   H11114985   6.161   3.870   2.660  1.8000  1.1815 -3.9042
   68MOL   C11214986   6.119   3.734   2.512  0.4613  0.1366  0.4887
   68MOL   C11314987   6.185   3.807   2.397 -0.4372  0.2291 -0.3518
   68MOL   O11414988   6.162   3.927   2.372 -0.0276 -0.0061 -0.2317
   68MOL   C11514989   6.297   3.730   2.329  0.4013 -0.8544  0.0645
   68MOL   C11614990   5.971   3.765   2.511  0.1113  0.2142  0.1623
   68MOL   H11714991   6.129   3.628   2.487 -2.4570  0.5682 -2.8304
   68MOL   H11814992   6.389   3.757   2.381  0.8266  0.6928 -1.4778
   68MOL   H11914993   6.286   3.622   2.338 -0.9253 -0.8798 -1.5951
   68MOL   H12014994   6.306   3.761   2.225 -0.9826 -0.1463  0.1461
   68MOL   H12114995   5.945   3.863   2.549 -0.8257 -0.0028  0.0955
   68MOL   H12214996   5.918   3.704   2.584  1.9204 -2.2234 -0.4854
   68MOL   C12314997   5.889   3.754   2.380 -0.0408 -0.1097  0.3385
   68MOL   C12414998   5.747   3.798   2.412 -0.4337 -0.1792  0.3757
   68MOL   O12514999   5.690   3.733   2.498 -0.2505 -0.2237  0.0829
   68MOL   C12615000   5.682   3.908   2.342  0.0393 -0.1582  0.0960
   68MOL   C12715001   5.906   3.611   2.314 -0.2260  0.2484 -0.5065
   68MOL   H12815002   5.931   3.822   2.306  0.6326 -0.7283  0.1365
   68MOL   H12915003   5.579   3.877   2.324  0.2094 -0.1556 -0.9325
   68MOL   H13015004   5.667   3.989   2.413  0.1697 -0.4337  0.4355
   68MOL   H13115005   5.744   3.943   2.259  1.4219  0.5039  1.3967
   68MOL   H13215006   5.858   3.525   2.361 -0.1344  0.3331 -0.2619
   68MOL   H13315007   6.013   3.589   2.316 -0.2643  0.1305  0.6610
   68MOL   C13415008   5.860   3.617   2.166  0.0943 -0.0992 -0.7683
   68MOL   C13515009   5.818   3.478   2.120 -0.6402  0.4272  0.0179
   68MOL   O13615010   5.899   3.415   2.061  0.1573 -0.2541 -0.1584
   68MOL   C13715011   5.684   3.425   2.153 -0.2476  0.5099  0.5013
   68MOL   C13815012   5.973   3.676   2.072 -0.9458  0.0515  0.7415
   68MOL   H13915013   5.764   3.670   2.169 -0.1058 -0.4854 -0.3011
   68MOL   H14015014   5.620   3.430   2.066  0.5193  3.0476  0.0399
   68MOL   H14115015   5.694   3.320   2.182  3.0002  0.7189  0.3883
   68MOL   H14215016   5.631   3.482   2.229  0.3477  0.3850  1.0242
   68MOL   H14315017   6.064   3.616   2.078 -1.1701 -0.7081 -2.5204
   68MOL   H14415018   6.014   3.767   2.118  0.0281  0.3075 -0.6170
   68MOL   C14515019   5.942   3.693   1.924 -0.7111  0.0070  0.1515
   68MOL   C14615020   6.068   3.731   1.847 -0.2914 -0.1643 -0.6392
   68MOL   O14715021   6.130   3.833   1.874  0.1882 -0.5795  0.0842
   68MOL   C14815022   6.107   3.644   1.731  0.0822  0.0142 -0.4608
   68MOL   C14915023   5.841   3.809   1.913  0.2485 -0.2188 -0.3054
   68MOL   H15015024   5.885   3.608   1.887 -0.8581  0.3874 -0.5160
   68MOL   H15115025   6.178   3.570   1.770  1.1432  1.5641  0.6135
   68MOL   H15215026   6.020   3.594   1.689  0.2697 -1.4613  0.8781
   68MOL   H15315027   6.152   3.704   1.652  0.9542 -0.1732 -0.1116
   68MOL   H15415028   5.900   3.894   1.948  0.9047 -0.3845 -0.9904
   68MOL   H15515029   5.768   3.782   1.989  0.1195 -1.5168 -0.8786
   68MOL   C15615030   5.770   3.834   1.781 -0.1568  0.2430 -0.3333
   68MOL   C15715031   5.698   3.711   1.732 -0.4088  0.6963 -0.7544
   68MOL   O15815032   5.754   3.633   1.651 -0.0134  0.0132 -0.1120
   68MOL   C15915033   5.553   3.689   1.774  0.2320  0.6876  0.4650
   68MOL   C16015034   5.850   3.900   1.666  0.2898  0.0538 -0.1939
   68MOL   H16115035   5.683   3.898   1.801 -0.8275 -0.8844  0.4251
   68MOL   H16215036   5.543   3.717   1.879 -1.5382 -0.1756  0.5430
   68MOL   H16315037   5.498   3.769   1.724  0.9989  0.8331 -0.1518
   68MOL   H16415038   5.518   3.589   1.748  1.8201 -0.5462  2.9251
   68MOL   H16515039   5.782   3.907   1.581 -0.6358 -1.7901  0.3701
   68MOL   H16615040   5.928   3.834   1.629  0.0208 -1.6511  2.1525
   68MOL   C16715041   5.912   4.043   1.698 -0.7563  0.0646 -0.1034
   68MOL   C16815042   5.803   4.139   1.748  0.5658 -0.0539  0.3283
   68MOL   O16915043   5.702   4.160   1.681  0.0364  0.3125  0.2172
   68MOL   C17015044   5.832   4.218   1.879 -0.1807 -0.3139  0.1451
   68MOL   C17115045   5.989   4.104   1.582 -0.1806  0.3779  0.0191
   68MOL   H17215046   5.997   4.032   1.764  0.7060  4.5623 -1.0711
   68MOL   H17315047   5.923   4.274   1.861 -0.1902 -1.2406 -3.2602
   68MOL   H17415048   5.747   4.284   1.897 -1.4676 -1.7513 -0.4685
   68MOL   H17515049   5.852   4.153   1.964 -1.5181  1.2151  1.6551
   68MOL   H17615050   5.919   4.140   1.506 -0.7823  0.2904  0.5285
   68MOL   H17715051   6.047   4.025   1.534 -0.3703  0.4357 -0.3076
   68MOL   C17815052   6.070   4.231   1.620  0.1000 -0.6092 -0.5020
   68MOL   C17915053   6.136   4.287   1.491  0.1004 -0.5081 -0.5097
   68MOL   O18015054   6.255   4.272   1.466  0.0591  0.5620  0.3564
   68MOL   C18115055   6.039   4.330   1.380  0.6632  0.1509  0.7203
   68MOL   C18215056   6.168   4.207   1.735 -0.5647  0.0832 -0.4553
   68MOL   H18315057   6.003   4.309   1.657 -0.0236 -0.7541 -0.4214
   68MOL   H18415058   5.936   4.328   1.418  0.1207  1.9001 -0.6342
   68MOL   H18515059   6.052   4.433   1.347 -0.1026 -0.2955 -1.0385
   68MOL   H18615060   6.056   4.271   1.290 -0.2455  0.9260  0.0243
   68MOL   H18715061   6.235   4.128   1.701 -0.0550  0.4172 -0.2384
   68MOL   H18815062   6.113   4.163   1.819 -0.2151 -1.5847 -1.0855
   68MOL   C18915063   6.249   4.329   1.786 -0.1512  0.3105 -0.3200
   68MOL   C19015064   6.390   4.285   1.840  0.1916  0.0544  0.1294
   68MOL   O19115065   6.428   4.301   1.952 -0.6806 -0.2645  0.3939
   68MOL   C19215066   6.487   4.251   1.727  0.6156  0.3407  0.2519
   68MOL   C19315067   6.169   4.422   1.887  0.2354 -0.6475  0.2938
   68MOL   H19415068   6.293   4.383   1.702  0.2079 -2.0539 -1.6956
   68MOL   H19515069   6.569   4.201   1.778  0.0904  0.6419  1.3987
   68MOL   H19615070   6.454   4.190   1.643 -1.5082  1.6500  0.1006
   68MOL   H19715071   6.535   4.345   1.699  0.6357 -0.6082 -3.1539
   68MOL   H19815072   6.242   4.468   1.954 -1.0671  2.5743 -0.3834
   68MOL   H19915073   6.114   4.350   1.948  1.1153 -0.5115  1.2610
   68MOL   C20015074   6.080   4.533   1.819  0.7384 -0.0844 -0.5120
   68MOL   C20115075   6.142   4.665   1.792 -0.1213  0.8205  0.5255
   68MOL   O20215076   6.165   4.740   1.883 -0.6617 -0.1575  0.0203
   68MOL   C20315077   6.163   4.710   1.646  0.0123 -0.3539  0.4270
   68MOL   C20415078   5.960   4.557   1.913 -0.3832  0.5841  0.0849
   68MOL   H20515079   6.035   4.492   1.729 -0.4337 -0.9219  0.4425
   68MOL   H20615080   6.121   4.636   1.578 -1.3966  0.2245  0.6603
   68MOL   H20715081   6.118   4.808   1.631  0.7655 -0.1171 -0.3514
   68MOL   H20815082   6.271   4.718   1.628  0.1042 -2.3393  0.0080
   68MOL   H20915083   5.998   4.612   1.999  1.2507 -1.0548  0.4229
   68MOL   H21015084   5.928   4.458   1.946  1.4120 -0.9796 -2.6965
   68MOL   C21115085   5.836   4.635   1.857 -0.1894 -0.3157  0.4265
   68MOL   C21215086   5.743   4.668   1.970  0.2313 -0.5386  0.1968
   68MOL   O21315087   5.725   4.583   2.064 -0.3500 -0.4252 -0.6261
   68MOL   C21415088   5.680   4.802   1.971  0.2425 -0.1910 -0.3229
   68MOL   C21515089   5.753   4.555   1.754  0.0202  0.1399  0.0369
   68MOL   H21615090   5.871   4.727   1.809 -0.3421 -1.0165 -1.0775
   68MOL   H21715091   5.595   4.815   2.037  0.5996  0.0649  0.0865
   68MOL   H21815092   5.762   4.874   1.973  0.7080 -0.6804 -1.0479
   68MOL   H21915093   5.641   4.844   1.878  2.7544  1.6872 -0.5825
   68MOL   H22015094   5.781   4.449   1.746  1.4822  0.4982  0.2665
   68MOL   H22115095   5.754   4.607   1.658  1.9797  0.2543  0.0934
   68MOL   H22215096   5.646   4.551   1.773 -0.0078 -1.5621 -0.3539
   69MOL     C115097   1.993   5.650   5.555 -0.4983  0.8545 -0.0224
   69MOL     C215098   1.995   5.608   5.702  0.0265 -0.0197  0.6841
   69MOL     O315099   2.005   5.494   5.739 -0.0964 -0.1903 -0.6585
   69MOL     C415100   1.998   5.713   5.809 -0.4858  0.0043  0.5645
   69MOL     C515101   2.104   5.746   5.522  0.2012  0.0526 -0.3849
   69MOL     H615102   2.019   5.555   5.508 -0.5071 -1.2424  3.9354
   69MOL     H715103   2.097   5.757   5.814 -0.1927 -0.5099 -0.4655
   69MOL     H815104   1.920   5.786   5.787 -1.0627 -0.5076  0.9059
   69MOL     H915105   1.966   5.673   5.905 -0.6892  1.9631  1.3214
   69MOL    H1015106   2.186   5.678   5.501  2.0990  1.3124  2.5236
   69MOL    H1115107   2.118   5.811   5.609  2.4113 -3.1787  1.7465
   69MOL    H1215108   1.887   5.673   5.542 -0.8660 -0.4409  0.5087
   69MOL    C1315109   2.082   5.836   5.401  0.1227  0.7191  0.3110
   69MOL    C1415110   2.085   5.754   5.272  0.8740  0.2333  0.3811
   69MOL    O1515111   2.177   5.685   5.237 -0.3492  0.0571 -0.0586
   69MOL    C1615112   1.971   5.782   5.180  0.1719 -0.0762  0.8526
   69MOL    C1715113   2.194   5.943   5.392 -0.3706 -0.0890 -0.0991
   69MOL    H1815114   1.994   5.899   5.409  2.0450  3.2534  2.5176
   69MOL    H1915115   1.896   5.705   5.163 -0.6528  1.1761 -1.3581
   69MOL    H2015116   1.913   5.868   5.213 -1.2509 -0.4683 -0.5313
   69MOL    H2115117   2.003   5.813   5.080 -0.1079  1.8268  1.3393
   69MOL    H2215118   2.286   5.886   5.386 -0.2189 -0.1967  2.5776
   69MOL    H2315119   2.200   5.986   5.492  0.1844 -2.6240  1.0064
   69MOL    C2415120   2.173   6.059   5.290 -0.1179 -0.3651 -0.0384
   69MOL    C2515121   2.310   6.125   5.253 -0.0493 -0.2614  0.2412
   69MOL    O2615122   2.332   6.246   5.257  0.3898 -0.2217  0.2233
   69MOL    C2715123   2.416   6.035   5.185 -0.0929 -0.3800 -0.9782
   69MOL    C2815124   2.069   6.162   5.344 -0.3850  0.3920 -0.2763
   69MOL    H2915125   2.147   6.007   5.198 -1.4038  1.7564 -0.9014
   69MOL    H3015126   2.492   6.093   5.133 -1.2988  0.6878 -1.5638
   69MOL    H3115127   2.463   5.974   5.262 -0.3641 -2.5262 -2.4563
   69MOL    H3215128   2.372   5.966   5.112  1.1829  1.0458 -3.1457
   69MOL    H3315129   2.117   6.205   5.431 -1.0813 -0.4024  0.5120
   69MOL    H3415130   1.983   6.109   5.386  0.4547 -0.5642  0.2700
   69MOL    C3515131   2.028   6.269   5.244 -0.2141 -0.0271  0.3168
   69MOL    C3615132   1.994   6.404   5.302  0.6554 -0.7497 -0.1712
   69MOL    O3715133   1.886   6.414   5.368  0.9171 -0.2017 -0.0030
   69MOL    C3815134   2.098   6.512   5.306 -0.8022  0.0423 -0.4613
   69MOL    C3915135   1.921   6.200   5.158 -0.2398 -0.6474 -0.7416
   69MOL    H4015136   2.110   6.299   5.178 -2.1747  1.2917 -1.5864
   69MOL    H4115137   2.098   6.563   5.402  0.9169 -0.7573 -0.0165
   69MOL    H4215138   2.200   6.474   5.315 -0.6973  0.8301  1.8769
   69MOL    H4315139   2.081   6.586   5.228 -0.2357  0.1346 -0.4944
   69MOL    H4415140   1.826   6.177   5.208 -1.4608  2.6319 -1.4606
   69MOL    H4515141   1.963   6.107   5.121 -1.1095 -1.0543 -0.7209
   69MOL    C4615142   1.903   6.277   5.023  0.7413  0.0288  0.4232
   69MOL    C4715143   1.779   6.227   4.950 -0.2052  0.3293 -0.1876
   69MOL    O4815144   1.784   6.145   4.851 -0.5899 -0.6818  0.2809
   69MOL    C4915145   1.645   6.259   5.014  0.5900  0.2992 -0.2424
   69MOL    C5015146   2.029   6.251   4.931 -0.5336  1.1353  0.1454
   69MOL    H5115147   1.903   6.383   5.046  0.7368 -0.1295  1.1715
   69MOL    H5215148   1.623   6.365   5.022  0.4041  0.3559 -1.4991
   69MOL    H5315149   1.563   6.212   4.960  0.3504  0.6227 -0.1575
   69MOL    H5415150   1.636   6.223   5.117  0.9631  0.4329 -0.1625
   69MOL    H5515151   2.022   6.163   4.868  3.4058  2.3455 -2.1737
   69MOL    H5615152   2.118   6.220   4.986 -2.4504 -2.2257  1.4886
   69MOL    C5715153   2.085   6.364   4.840  0.1808 -0.3375 -0.8621
   69MOL    C5815154   2.112   6.493   4.925 -0.8046 -0.0178  0.4473
   69MOL    O5915155   2.019   6.575   4.935 -0.7414 -0.1133  0.7154
   69MOL    C6015156   2.258   6.511   4.951 -0.8140  0.6613 -0.3602
   69MOL    C6115157   1.998   6.376   4.711 -0.4896  0.1521  0.2636
   69MOL    H6215158   2.184   6.332   4.808 -0.5671 -1.3598 -2.2159
   69MOL    H6315159   2.316   6.441   4.891  1.2847 -1.8259  4.3660
   69MOL    H6415160   2.284   6.613   4.923  1.1395  0.2183 -0.1684
   69MOL    H6515161   2.291   6.493   5.053 -0.6942  0.0303 -0.5094
   69MOL    H6615162   1.894   6.407   4.724 -0.5216  0.4748 -0.7004
   69MOL    H6715163   1.989   6.276   4.670  2.5405  0.3920 -1.1091
   69MOL    C6815164   2.057   6.462   4.598 -0.5519  0.4545 -0.1896
   69MOL    C6915165   2.196   6.420   4.543 -0.2703 -0.6719  0.1770
   69MOL    O7015166   2.300   6.450   4.605  0.2674 -0.0426  0.0858
   69MOL    C7115167   2.196   6.353   4.406  0.0297  0.0802 -0.8677
   69MOL    C7215168   2.054   6.608   4.614 -0.0845  0.1756 -0.0657
   69MOL    H7315169   1.989   6.444   4.515  0.8511 -0.6613 -1.1386
   69MOL    H7415170   2.240   6.417   4.330 -0.6656 -0.2590 -1.5675
   69MOL    H7515171   2.269   6.273   4.403  1.1642  1.1314 -2.6203
   69MOL    H7615172   2.099   6.317   4.369 -0.2092  0.1971 -0.3584
   69MOL    H7715173   2.122   6.639   4.534 -0.4383  0.9897 -0.0488
   69MOL    H7815174   2.102   6.643   4.706 -2.1002  0.2350  0.9796
   69MOL    C7915175   1.922   6.683   4.597  0.1299  0.7519 -0.4019
   69MOL    C8015176   1.860   6.655   4.461 -0.1620 -0.1819 -0.1571
   69MOL    O8115177   1.929   6.618   4.366 -0.6867 -0.1129  0.1594
   69MOL    C8215178   1.716   6.687   4.437  0.2697 -0.3380  1.0324
   69MOL    C8315179   1.918   6.827   4.637 -0.4543  0.3970  0.3585
   69MOL    H8415180   1.853   6.636   4.667  1.3035 -1.2393 -0.5592
   69MOL    H8515181   1.717   6.796   4.443  0.1318 -0.2077 -0.9659
   69MOL    H8615182   1.684   6.665   4.335 -0.4220 -0.1672  1.2083
   69MOL    H8715183   1.648   6.644   4.511 -0.0559 -0.9365  0.4018
   69MOL    H8815184   1.836   6.886   4.596  0.4867  2.0540  0.8010
   69MOL    H8915185   2.008   6.885   4.615 -0.6041  0.6727  0.4605
   69MOL    C9015186   1.903   6.849   4.790  0.1706  0.0095  0.2802
   69MOL    C9115187   1.761   6.798   4.837  0.5030  0.1353  0.0619
   69MOL    O9215188   1.670   6.774   4.757  0.2048 -0.6731  0.2012
   69MOL    C9315189   1.741   6.761   4.975  0.4451  0.4629 -0.2814
   69MOL    C9415190   1.936   6.993   4.843 -0.5409  0.1964  1.7893
   69MOL    H9515191   1.977   6.784   4.836 -1.1363 -0.7561  1.3232
   69MOL    H9615192   1.634   6.769   4.994  0.3478  0.1332 -0.6849
   69MOL    H9715193   1.762   6.654   4.984 -3.3218 -0.5435 -2.3905
   69MOL    H9815194   1.790   6.831   5.043  2.4288  1.6069 -2.7897
   69MOL    H9915195   1.909   7.002   4.948  0.6325  1.1101  2.0279
   69MOL   H10015196   1.871   7.063   4.790  1.9424 -0.3032 -2.2106
   69MOL   C10115197   2.087   7.032   4.817  0.3505 -0.0332 -0.1490
   69MOL   C10215198   2.195   6.939   4.882  0.4596 -0.1783 -0.3773
   69MOL   O10315199   2.293   6.910   4.815  0.6079  0.4447  0.0874
   69MOL   C10415200   2.168   6.883   5.023  0.4131 -0.0826  0.1708
   69MOL   C10515201   2.098   7.183   4.862 -0.7906 -0.3454  0.1304
   69MOL   H10615202   2.106   7.022   4.710 -0.1579  1.2700 -0.3744
   69MOL   H10715203   2.271   6.872   5.057  0.3873  0.4663  0.4190
   69MOL   H10815204   2.118   6.951   5.092  1.2829  1.1644 -0.4179
   69MOL   H10915205   2.116   6.787   5.015  0.8792 -0.4715  1.5241
   69MOL   H11015206   2.057   7.197   4.962  1.0064 -1.5566  1.0744
   69MOL   H11115207   2.029   7.242   4.803 -0.6586 -1.0036 -0.6913
   69MOL   C11215208   2.242   7.245   4.865 -0.4457 -0.5630 -0.3970
   69MOL   C11315209   2.299   7.252   5.015  0.3772  0.0974  0.6798
   69MOL   O11415210   2.232   7.315   5.096 -0.0773 -0.4047  0.1867
   69MOL   C11515211   2.436   7.196   5.048  0.8289 -0.8038 -0.2841
   69MOL   C11615212   2.248   7.381   4.800  0.3410  0.1791  0.1243
   69MOL   H11715213   2.301   7.171   4.811 -1.7241  0.3560 -3.1428
   69MOL   H11815214   2.417   7.091   5.072 -0.1980  0.0458  2.8250
   69MOL   H11915215   2.509   7.221   4.971 -0.2198  2.6773 -0.2167
   69MOL   H12015216   2.468   7.254   5.134  2.4359 -0.2834 -1.2074
   69MOL   H12115217   2.342   7.429   4.826 -1.1276  1.8770  2.4353
   69MOL   H12215218   2.161   7.439   4.830  1.5327  0.9950  2.0842
   69MOL   C12315219   2.252   7.384   4.643 -0.0363  0.1111 -0.2416
   69MOL   C12415220   2.362   7.293   4.584 -0.6876  0.3270  0.1931
   69MOL   O12515221   2.481   7.317   4.605 -0.1836 -0.0814 -0.1126
   69MOL   C12615222   2.325   7.174   4.496 -0.0082 -0.3902 -0.8632
   69MOL   C12715223   2.264   7.528   4.587 -0.1333 -1.0799  0.3391
   69MOL   H12815224   2.155   7.344   4.613 -1.8848  3.5963  0.9072
   69MOL   H12915225   2.401   7.096   4.489 -1.3356 -2.1593  2.8357
   69MOL   H13015226   2.234   7.134   4.542  1.1545 -1.0983  0.8691
   69MOL   H13115227   2.313   7.209   4.394 -2.3457  2.1159  0.2032
   69MOL   H13215228   2.369   7.556   4.596 -0.1840  0.1039 -2.2376
   69MOL   H13315229   2.209   7.598   4.649  0.6916  0.9791 -1.1911
   69MOL   C13415230   2.193   7.559   4.452 -0.8800 -0.7006 -0.1656
   69MOL   C13515231   2.237   7.701   4.401  0.6780  0.0046  0.8623
   69MOL   O13615232   2.180   7.809   4.439  0.1736  0.0397 -0.8763
   69MOL   C13715233   2.356   7.708   4.307 -0.2273 -0.2184 -0.1716
   69MOL   C13815234   2.044   7.556   4.454  0.5144  0.3875  0.0617
   69MOL   H13915235   2.239   7.485   4.387  0.5707  2.0857 -2.4378
   69MOL   H14015236   2.372   7.623   4.241  1.9799  0.4026 -0.4847
   69MOL   H14115237   2.359   7.805   4.258 -0.8623 -0.5315 -0.8340
   69MOL   H14215238   2.444   7.695   4.369 -0.9031 -1.5378  0.5269
   69MOL   H14315239   1.998   7.648   4.492  0.1626  0.3195 -0.1978
   69MOL   H14415240   2.012   7.483   4.529  1.6396 -0.6790 -0.4830
   69MOL   C14515241   1.983   7.515   4.323  0.3258 -1.0110 -0.1571
   69MOL   C14615242   1.849   7.581   4.285  0.5412  0.1144 -1.4248
   69MOL   O14715243   1.770   7.618   4.374 -0.0712 -0.3968 -0.0404
   69MOL   C14815244   1.826   7.592   4.134 -0.0548 -0.3353  0.2746
   69MOL   C14915245   1.991   7.361   4.287  0.0986  0.3445 -0.4610
   69MOL   H15015246   2.049   7.555   4.246 -0.6813  0.3104 -0.3320
   69MOL   H15115247   1.824   7.493   4.089  1.0986  0.6586 -2.0448
   69MOL   H15215248   1.722   7.621   4.124 -0.1742 -1.0936 -0.7195
   69MOL   H15315249   1.892   7.662   4.082 -1.5915  0.6149 -0.4256
   69MOL   H15415250   2.093   7.330   4.312  0.5506  2.1645  0.0477
   69MOL   H15515251   2.006   7.350   4.180 -0.0861  1.6955 -0.6321
   69MOL   C15615252   1.893   7.257   4.344 -0.3584  0.1231  0.0136
   69MOL   C15715253   1.870   7.268   4.493  1.0320  1.0015 -0.2264
   69MOL   O15815254   1.943   7.212   4.572 -0.7548 -0.0172  0.0223
   69MOL   C15915255   1.757   7.354   4.554  0.2954 -0.0452  0.2111
   69MOL   C16015256   1.954   7.119   4.318  0.1064  0.4153 -0.5157
   69MOL   H16115257   1.796   7.271   4.297  0.0917 -1.2211 -1.3681
   69MOL   H16215258   1.667   7.352   4.493  1.9333  0.7072 -2.2839
   69MOL   H16315259   1.733   7.327   4.657  2.4950  0.1477  0.8048
   69MOL   H16415260   1.795   7.455   4.565 -2.5781  0.7672  3.7251
   69MOL   H16515261   1.897   7.040   4.368 -0.9169  0.0491 -2.2283
   69MOL   H16615262   2.048   7.104   4.370 -0.5776  1.0264  0.9222
   69MOL   C16715263   1.963   7.072   4.165 -0.0234 -0.6128  0.5290
   69MOL   C16815264   1.834   7.104   4.089  0.2825  0.6469 -0.1882
   69MOL   O16915265   1.727   7.056   4.128  0.6471 -0.1719 -0.3802
   69MOL   C17015266   1.846   7.182   3.956 -0.2978  0.0370 -0.1080
   69MOL   C17115267   2.006   6.921   4.172 -0.4652 -0.0342  0.0735
   69MOL   H17215268   2.040   7.139   4.128 -2.1076  1.2860 -0.5259
   69MOL   H17315269   1.748   7.205   3.914  0.4265 -0.5997 -2.2055
   69MOL   H17415270   1.893   7.278   3.977  2.3980 -1.6813  2.1432
   69MOL   H17515271   1.909   7.114   3.898 -1.3428 -2.0099  1.0743
   69MOL   H17615272   1.943   6.849   4.225  1.7949 -1.0108  1.5159
   69MOL   H17715273   2.099   6.915   4.228 -0.2844 -0.6468 -0.2860
   69MOL   C17815274   2.017   6.843   4.042 -0.8537  0.6698  0.1528
   69MOL   C17915275   2.043   6.694   4.073  0.0114  0.4653  0.9778
   69MOL   O18015276   2.146   6.653   4.131 -0.0742 -0.3067  0.3573
   69MOL   C18115277   1.924   6.592   4.040  0.4535 -0.4820  0.3245
   69MOL   C18215278   2.128   6.896   3.952  0.4258 -0.0908 -0.6217
   69MOL   H18315279   1.920   6.854   3.993 -0.3208 -1.2517 -1.4280
   69MOL   H18415280   1.948   6.486   4.034  2.5501 -0.0265  0.3681
   69MOL   H18515281   1.838   6.607   4.105  1.7102  1.0299  1.6652
   69MOL   H18615282   1.868   6.623   3.951  1.2817  0.5656  0.1596
   69MOL   H18715283   2.216   6.843   3.988  0.2017  0.7601  1.2138
   69MOL   H18815284   2.138   7.003   3.969  0.2828 -0.2307  0.3920
   69MOL   C18915285   2.100   6.852   3.804 -0.6410 -0.0471 -0.0935
   69MOL   C19015286   2.228   6.854   3.721 -0.0383 -0.3600  0.4193
   69MOL   O19115287   2.262   6.955   3.656 -0.5973  0.2305 -0.0882
   69MOL   C19215288   2.292   6.719   3.701  0.2773 -0.3206  0.6017
   69MOL   C19315289   1.993   6.944   3.739  0.5701  0.2485 -0.1152
   69MOL   H19415290   2.070   6.749   3.819  0.0066 -0.3882 -1.1599
   69MOL   H19515291   2.240   6.643   3.760 -1.6484  2.3968  2.5169
   69MOL   H19615292   2.294   6.700   3.593 -1.5431 -0.9871  0.6631
   69MOL   H19715293   2.390   6.730   3.746  1.3360 -0.4014 -1.5837
   69MOL   H19815294   2.034   7.041   3.711  2.9746 -0.8327 -0.4495
   69MOL   H19915295   1.908   6.958   3.805  0.3712  1.1268 -0.5490
   69MOL   C20015296   1.927   6.878   3.614  0.1062  0.3608  0.0327
   69MOL   C20115297   1.874   6.987   3.512  0.0463  0.2787 -0.2090
   69MOL   O20215298   1.762   7.042   3.528  0.1670  0.4449  0.3355
   69MOL   C20315299   1.959   7.019   3.392 -0.7846  0.3137 -0.2511
   69MOL   C20415300   1.826   6.767   3.655 -0.4155  0.4123  0.3982
   69MOL   H20515301   2.002   6.819   3.561  1.3072  3.0443 -1.3387
   69MOL   H20615302   1.948   6.947   3.311 -1.3780 -0.6933  0.7099
   69MOL   H20715303   1.924   7.114   3.353 -3.6964 -1.0210 -1.0555
   69MOL   H20815304   2.064   7.016   3.423 -0.6956  1.2371 -0.4599
   69MOL   H20915305   1.749   6.803   3.723  0.7762  2.7496  0.5278
   69MOL   H21015306   1.866   6.687   3.718 -0.9042  1.5355  2.1715
   69MOL   C21115307   1.761   6.677   3.543 -0.2883  0.3545 -0.8307
   69MOL   C21215308   1.681   6.740   3.422  0.1466  0.3305  0.0982
   69MOL   O21315309   1.723   6.731   3.304 -0.3414 -0.2768  0.2503
   69MOL   C21415310   1.543   6.800   3.455  0.1031  0.6030  0.1777
   69MOL   C21515311   1.680   6.560   3.598  0.5251  0.2661  0.0436
   69MOL   H21615312   1.847   6.632   3.493  1.5343  0.8069  1.7859
   69MOL   H21715313   1.539   6.886   3.522 -0.5084 -1.9662  3.5796
   69MOL   H21815314   1.492   6.814   3.359  1.6611 -0.5597 -0.8481
   69MOL   H21915315   1.476   6.726   3.499  0.8149 -1.7522 -2.5094
   69MOL   H22015316   1.731   6.491   3.665  1.3057  0.4262 -0.3801
   69MOL   H22115317   1.638   6.501   3.517 -0.6451  2.2498 -0.8595
   69MOL   H22215318   1.589   6.595   3.648  1.4770 -2.2359  3.7159
   70MOL     C115319   1.343   4.967   2.222 -0.3789 -0.3747 -0.1675
   70MOL     C215320   1.302   4.818   2.247 -0.4311 -0.3766 -0.1030
   70MOL     O315321   1.307   4.761   2.358 -0.3962  0.2720 -0.1178
   70MOL     C415322   1.247   4.748   2.119  0.1767  0.3913 -0.2246
   70MOL     C515323   1.383   5.040   2.359  0.4384 -0.5735  0.0209
   70MOL     H615324   1.420   4.966   2.145 -0.7062  2.1786 -0.5628
   70MOL     H715325   1.156   4.692   2.138  0.2844 -0.7650 -2.9204
   70MOL     H815326   1.236   4.819   2.037 -0.4341 -0.1511 -0.6177
   70MOL     H915327   1.309   4.668   2.079  2.3661  1.1613  1.5075
   70MOL    H1015328   1.420   5.137   2.328 -1.9404 -0.1986 -1.7502
   70MOL    H1115329   1.465   4.977   2.395  1.0911 -0.8509 -1.8733
   70MOL    H1215330   1.261   5.022   2.176  1.0921  1.1514 -1.0637
   70MOL    C1315331   1.270   5.052   2.467  0.1700 -0.2920 -0.0710
   70MOL    C1415332   1.149   5.125   2.414 -0.4128 -0.4843 -0.6067
   70MOL    O1515333   1.171   5.232   2.361  0.1452  0.1074 -0.0753
   70MOL    C1615334   1.012   5.066   2.440  0.2099 -0.1089  0.3304
   70MOL    C1715335   1.318   5.121   2.600 -0.3057  0.3608 -0.0491
   70MOL    H1815336   1.236   4.951   2.492 -1.0321 -0.4272 -2.1649
   70MOL    H1915337   0.950   5.071   2.351 -0.1415  3.1809  0.7003
   70MOL    H2015338   1.019   4.962   2.471  0.4354 -0.1093  0.2773
   70MOL    H2115339   0.972   5.128   2.520  1.1192  1.5913 -0.5168
   70MOL    H2215340   1.231   5.150   2.659 -0.3359 -2.2680  1.2854
   70MOL    H2315341   1.379   5.208   2.576 -1.2392  0.8075 -0.8479
   70MOL    C2415342   1.401   5.017   2.683  0.0369  0.3080 -0.2095
   70MOL    C2515343   1.318   4.896   2.716 -0.0863 -0.5319 -0.7347
   70MOL    O2615344   1.204   4.908   2.749  0.1962 -0.1756 -0.1770
   70MOL    C2715345   1.385   4.759   2.718 -0.7938  0.2197  0.1371
   70MOL    C2815346   1.462   5.075   2.810 -0.0815  0.5146  0.0638
   70MOL    H2915347   1.481   4.986   2.616 -0.9541 -0.3400 -1.1132
   70MOL    H3015348   1.361   4.708   2.811 -3.1921 -1.9334 -1.5989
   70MOL    H3115349   1.383   4.694   2.630 -1.1159  1.2681 -0.6344
   70MOL    H3215350   1.490   4.785   2.735 -0.4128 -1.3133  0.2389
   70MOL    H3315351   1.390   5.079   2.892  1.9681 -2.6566  2.1037
   70MOL    H3415352   1.486   5.180   2.790  1.9864  0.5526  2.6088
   70MOL    C3515353   1.585   4.996   2.861  0.0237 -0.0119 -0.9141
   70MOL    C3615354   1.624   5.059   2.993  0.8042 -0.2129 -0.4387
   70MOL    O3715355   1.727   5.125   3.004  0.3706  0.4980  0.2029
   70MOL    C3815356   1.528   5.053   3.109  0.2501 -0.2229  0.5580
   70MOL    C3915357   1.704   5.005   2.762 -0.2134 -0.4153  0.0592
   70MOL    H4015358   1.574   4.890   2.884  0.8697 -0.5430 -2.8093
   70MOL    H4115359   1.581   5.032   3.202 -0.0582 -1.3141  0.4981
   70MOL    H4215360   1.501   5.158   3.124  0.2047 -0.5188  2.7414
   70MOL    H4315361   1.447   4.980   3.100 -0.4401  0.2030  2.8822
   70MOL    H4415362   1.729   5.110   2.742 -1.9627  0.1225  0.5899
   70MOL    H4515363   1.669   4.981   2.662 -0.4854 -0.0056  0.0505
   70MOL    C4615364   1.829   4.909   2.787 -0.2306  0.1709 -0.3827
   70MOL    C4715365   1.951   4.968   2.711 -0.2083  0.3777 -0.1053
   70MOL    O4815366   1.928   5.012   2.600  0.4674 -0.4724 -0.2528
   70MOL    C4915367   2.090   4.971   2.772 -0.2907  0.0197  0.2295
   70MOL    C5015368   1.809   4.756   2.739 -0.5634  0.0773  0.5305
   70MOL    H5115369   1.850   4.915   2.894  2.2636 -0.5332 -0.8123
   70MOL    H5215370   2.158   5.035   2.717  1.0933  1.7249  3.7396
   70MOL    H5315371   2.077   5.002   2.876 -1.4468 -1.0763  0.4225
   70MOL    H5415372   2.134   4.872   2.779 -1.1716 -0.6444 -3.1459
   70MOL    H5515373   1.872   4.724   2.656 -1.8401  0.5966 -0.6537
   70MOL    H5615374   1.712   4.753   2.690 -0.0886 -0.3253 -0.3923
   70MOL    C5715375   1.803   4.643   2.844  0.3383  0.8725  0.2050
   70MOL    C5815376   1.936   4.588   2.893 -0.3157 -0.1682  0.2711
   70MOL    O5915377   2.039   4.602   2.826  0.9911  0.0476 -0.7343
   70MOL    C6015378   1.929   4.489   3.009  0.0643  0.8279 -0.0297
   70MOL    C6115379   1.705   4.532   2.800  0.2843 -0.3040  0.2078
   70MOL    H6215380   1.766   4.696   2.932  0.9669  2.6494 -0.5688
   70MOL    H6315381   1.966   4.388   2.993 -1.0872 -0.0470  2.4850
   70MOL    H6415382   1.981   4.537   3.092 -1.2772  2.3461 -0.0439
   70MOL    H6515383   1.829   4.501   3.049 -0.8304  1.1073 -2.2858
   70MOL    H6615384   1.609   4.578   2.778  1.0048  0.9550 -0.3978
   70MOL    H6715385   1.696   4.462   2.883  3.4301  1.2331  1.9330
   70MOL    C6815386   1.759   4.442   2.675 -0.4115  0.1863  0.7261
   70MOL    C6915387   1.662   4.436   2.558  0.5221 -0.1138 -0.5912
   70MOL    O7015388   1.593   4.339   2.534 -0.4579  0.1251 -0.2874
   70MOL    C7115389   1.654   4.552   2.465 -0.1143 -0.2989  0.5666
   70MOL    C7215390   1.778   4.290   2.714 -0.0135  0.3541  0.3936
   70MOL    H7315391   1.853   4.481   2.636 -0.4646  0.3055  0.7158
   70MOL    H7415392   1.737   4.622   2.482 -0.1844  0.1135 -0.7508
   70MOL    H7515393   1.665   4.506   2.368  1.2121  0.8288  0.1561
   70MOL    H7615394   1.560   4.605   2.479 -0.0225 -0.1679  0.6984
   70MOL    H7715395   1.694   4.235   2.757  0.7406 -1.1096  0.0510
   70MOL    H7815396   1.841   4.293   2.803  1.9002  0.7052 -0.9323
   70MOL    C7915397   1.842   4.185   2.616  0.0238 -0.2516 -0.2898
   70MOL    C8015398   1.824   4.043   2.658 -0.1566 -0.7803 -0.9778
   70MOL    O8115399   1.853   4.004   2.771  0.0649  0.0525  0.4041
   70MOL    C8215400   1.759   3.942   2.566 -0.1313 -0.8205  0.1107
   70MOL    C8315401   1.996   4.214   2.592  0.3850 -0.4925 -1.5585
   70MOL    H8415402   1.793   4.184   2.519  0.2821  2.5789 -0.4917
   70MOL    H8515403   1.779   3.845   2.612  0.6415  0.0384  1.6417
   70MOL    H8615404   1.652   3.951   2.549 -0.3805 -0.4516  1.7450
   70MOL    H8715405   1.794   3.952   2.463 -0.5334 -0.1284  0.0361
   70MOL    H8815406   2.052   4.122   2.612 -1.7940 -1.3486  0.8912
   70MOL    H8915407   2.026   4.283   2.671 -0.2353 -0.7854 -1.0623
   70MOL    C9015408   2.015   4.267   2.447 -0.6667  0.4756 -0.1505
   70MOL    C9115409   1.986   4.157   2.343 -0.1991 -0.1326  0.1001
   70MOL    O9215410   1.992   4.039   2.375  0.4775  0.1924  0.5253
   70MOL    C9315411   1.955   4.204   2.209  0.1671 -0.4844 -0.1614
   70MOL    C9415412   2.155   4.321   2.419 -0.3454 -1.1471  0.4661
   70MOL    H9515413   1.937   4.342   2.431  0.0394  0.8337 -2.0485
   70MOL    H9615414   2.018   4.293   2.201  1.9416 -1.6663  0.3041
   70MOL    H9715415   1.992   4.131   2.136 -0.1241 -0.4255 -0.3705
   70MOL    H9815416   1.849   4.227   2.199  0.7931  2.4529 -0.5679
   70MOL    H9915417   2.171   4.339   2.313 -0.9640 -0.1293  0.5414
   70MOL   H10015418   2.230   4.247   2.445  0.8518  1.0399  3.6172
   70MOL   C10115419   2.185   4.457   2.482 -0.0493 -0.6798 -0.2902
   70MOL   C10215420   2.091   4.569   2.431  0.0980  0.5584  0.1817
   70MOL   O10315421   1.996   4.547   2.354 -0.6760 -0.1111  1.0227
   70MOL   C10415422   2.111   4.703   2.492 -0.3434  0.1304  0.0414
   70MOL   C10515423   2.335   4.495   2.461 -1.5876 -0.4646 -0.7557
   70MOL   H10615424   2.163   4.448   2.589  0.2238 -0.7832 -0.2423
   70MOL   H10715425   2.026   4.770   2.479 -1.1357 -1.1264 -1.4151
   70MOL   H10815426   2.131   4.693   2.599  1.7742 -0.3700 -0.3710
   70MOL   H10915427   2.200   4.746   2.447 -1.8960  1.4937 -1.8068
   70MOL   H11015428   2.332   4.582   2.396 -0.8516  1.1662  1.3445
   70MOL   H11115429   2.394   4.414   2.418 -0.0507  0.4724 -0.4583
   70MOL   C11215430   2.410   4.563   2.580 -0.8166  0.9213 -0.1106
   70MOL   C11315431   2.521   4.663   2.535 -0.5292 -0.9863  0.1982
   70MOL   O11415432   2.587   4.651   2.434  0.6306 -0.0297  0.2913
   70MOL   C11515433   2.533   4.783   2.625 -0.0580 -0.3646 -0.0439
   70MOL   C11615434   2.467   4.450   2.673 -0.1868 -0.8666  0.1908
   70MOL   H11715435   2.335   4.623   2.631  0.8005 -0.0981  3.6918
   70MOL   H11815436   2.545   4.877   2.572  1.4958 -0.2584  0.4568
   70MOL   H11915437   2.444   4.785   2.687 -0.0455 -1.8325  0.0399
   70MOL   H12015438   2.624   4.776   2.684  0.8415  1.6238 -1.1439
   70MOL   H12115439   2.553   4.407   2.622  0.7071  1.6402 -0.4790
   70MOL   H12215440   2.393   4.370   2.682 -0.2014 -1.1957 -2.4906
   70MOL   C12315441   2.524   4.495   2.809 -0.2690 -0.0413 -0.5133
   70MOL   C12415442   2.607   4.395   2.886  0.0572 -0.2392  0.6939
   70MOL   O12515443   2.593   4.276   2.859 -0.4978  0.3021 -0.4599
   70MOL   C12615444   2.711   4.442   2.985  0.4083  0.5310 -0.7199
   70MOL   C12715445   2.400   4.537   2.894 -0.1391  0.5030  0.2906
   70MOL   H12815446   2.590   4.581   2.797 -1.2949  0.6378 -1.3683
   70MOL   H12915447   2.709   4.551   2.992  0.7582  0.7100 -3.0298
   70MOL   H13015448   2.687   4.399   3.082 -0.1283 -2.9856 -2.3556
   70MOL   H13115449   2.807   4.408   2.945  0.7096  0.4982  0.0184
   70MOL   H13215450   2.354   4.445   2.928  0.6354 -0.2593 -0.7080
   70MOL   H13315451   2.327   4.580   2.825 -0.3783  1.1261  0.9204
   70MOL   C13415452   2.436   4.627   3.019 -0.0279  0.1661  0.3016
   70MOL   C13515453   2.313   4.627   3.103  0.3624 -0.3761 -0.4156
   70MOL   O13615454   2.216   4.705   3.079 -0.4437 -0.2572  0.5702
   70MOL   C13715455   2.318   4.535   3.218  0.7419  0.2829 -0.3031
   70MOL   C13815456   2.477   4.770   2.964  0.6582  0.3813  0.0653
   70MOL   H13915457   2.504   4.581   3.091 -2.1247 -2.4084  0.7491
   70MOL   H14015458   2.223   4.517   3.268  0.4144  0.8564 -0.7116
   70MOL   H14115459   2.369   4.440   3.208 -1.5632 -1.4000  2.9061
   70MOL   H14215460   2.373   4.593   3.292 -2.0624  1.2361  1.1322
   70MOL   H14315461   2.395   4.811   2.904 -0.7005  0.2048  1.7364
   70MOL   H14415462   2.570   4.757   2.909 -1.5022 -0.2138 -3.6032
   70MOL   C14515463   2.500   4.885   3.071  0.0235  0.4026  0.3295
   70MOL   C14615464   2.524   5.016   2.988 -0.4617  0.1019 -0.4558
   70MOL   O14715465   2.608   5.102   3.017  0.3206 -0.0085 -1.0046
   70MOL   C14815466   2.433   5.043   2.873 -0.7045  0.2743 -0.2953
   70MOL   C14915467   2.601   4.864   3.187  0.5527 -0.5482  0.1686
   70MOL   H15015468   2.405   4.906   3.121 -1.4718 -5.2544  0.2429
   70MOL   H15115469   2.484   5.014   2.781  0.6325  0.6648  0.3033
   70MOL   H15215470   2.336   4.994   2.878 -1.1723  1.0173 -1.8309
   70MOL   H15315471   2.406   5.148   2.863 -0.7684  0.1515 -1.4708
   70MOL   H15415472   2.700   4.872   3.140 -0.1686  1.7183 -1.0395
   70MOL   H15515473   2.590   4.761   3.221 -0.0476 -0.8376 -0.8692
   70MOL   C15615474   2.574   4.959   3.304  0.2060 -0.1602 -0.2551
   70MOL   C15715475   2.708   4.986   3.372  0.2329  0.7858  0.5554
   70MOL   O15815476   2.748   4.923   3.470  0.0688 -0.1273 -0.6499
   70MOL   C15915477   2.793   5.100   3.310  0.3744  0.9150  0.1956
   70MOL   C16015478   2.464   4.903   3.399  0.1204 -0.2202 -0.7699
   70MOL   H16115479   2.540   5.054   3.264 -0.2843  1.1992  3.1832
   70MOL   H16215480   2.755   5.132   3.213 -0.5630 -0.9199 -0.0522
   70MOL   H16315481   2.819   5.180   3.380 -3.2954  1.3857  1.1441
   70MOL   H16415482   2.885   5.047   3.286  0.0386 -1.0397  3.0179
   70MOL   H16515483   2.511   4.829   3.463  1.4611  0.9551 -0.3576
   70MOL   H16615484   2.388   4.850   3.341  0.8814 -2.1561 -0.0076
   70MOL   C16715485   2.410   5.007   3.494  0.2120 -0.0533 -0.6802
   70MOL   C16815486   2.376   4.957   3.635 -0.3685  0.1962  0.1262
   70MOL   O16915487   2.279   4.885   3.659 -0.7165  0.0362 -0.1312
   70MOL   C17015488   2.460   5.026   3.746  0.4024  0.2856  0.3703
   70MOL   C17115489   2.305   5.095   3.430  0.0112 -0.1537  0.7559
   70MOL   H17215490   2.491   5.078   3.512  2.0469 -2.4414  0.7481
   70MOL   H17315491   2.413   5.120   3.775  1.4619  1.2291 -0.9479
   70MOL   H17415492   2.455   4.963   3.836 -1.0220 -1.8343 -1.1414
   70MOL   H17515493   2.558   5.040   3.702  0.5790 -0.0126  0.6696
   70MOL   H17615494   2.205   5.062   3.458  0.7226 -1.2628  2.0387
   70MOL   H17715495   2.308   5.080   3.322 -1.1339 -1.8581  0.9544
   70MOL   C17815496   2.325   5.249   3.453 -0.4941  0.4278 -0.0093
   70MOL   C17915497   2.240   5.309   3.565  0.0597  0.5751  0.1094
   70MOL   O18015498   2.133   5.265   3.603 -0.7221  0.1923 -0.7386
   70MOL   C18115499   2.307   5.422   3.637 -1.2551 -0.1440 -0.5220
   70MOL   C18215500   2.325   5.338   3.324 -0.2536 -0.1491  0.4878
   70MOL   H18315501   2.426   5.262   3.493 -1.3243  0.9464  1.9689
   70MOL   H18415502   2.302   5.414   3.746  0.3438  0.4175 -0.3998
   70MOL   H18515503   2.414   5.427   3.620 -1.0428  0.2290  0.7986
   70MOL   H18615504   2.263   5.518   3.608 -1.8484 -0.9773 -2.4820
   70MOL   H18715505   2.382   5.283   3.250  2.5303  1.0957  1.6365
   70MOL   H18815506   2.366   5.433   3.358  1.1435 -0.4753 -0.2437
   70MOL   C18915507   2.189   5.367   3.249  0.0420  0.3387 -0.4112
   70MOL   C19015508   2.129   5.239   3.175  1.1005 -1.0023 -0.6199
   70MOL   O19115509   2.198   5.168   3.106 -0.4096 -0.0927  0.1902
   70MOL   C19215510   1.985   5.199   3.203 -0.3714 -0.9220  0.4459
   70MOL   C19315511   2.181   5.493   3.166  0.1767  0.1572  0.2311
   70MOL   H19415512   2.119   5.389   3.330  0.0099 -0.9096 -0.0832
   70MOL   H19515513   1.977   5.193   3.312  0.3593  0.1770  0.5727
   70MOL   H19615514   1.924   5.284   3.174  0.1203 -0.5041  0.6380
   70MOL   H19715515   1.956   5.107   3.153  0.4065 -0.6855 -0.4637
   70MOL   H19815516   2.179   5.583   3.229 -0.0153 -0.2437  0.7997
   70MOL   H19915517   2.078   5.490   3.129 -1.0176 -2.4317  3.5692
   70MOL   C20015518   2.270   5.517   3.045  0.0275  0.1469  0.3545
   70MOL   C20115519   2.406   5.577   3.077  0.4298  0.8307  0.1424
   70MOL   O20215520   2.425   5.680   3.141  0.4465  0.3133 -0.4508
   70MOL   C20315521   2.519   5.505   3.003 -0.2580  0.1260  0.8371
   70MOL   C20415522   2.207   5.607   2.939 -0.1839 -0.1204 -0.1193
   70MOL   H20515523   2.288   5.420   2.999 -0.5907 -0.0311  0.4748
   70MOL   H20615524   2.621   5.532   3.030  0.1891 -2.1127  1.4022
   70MOL   H20715525   2.531   5.403   3.036  0.6233  0.5540  1.8527
   70MOL   H20815526   2.493   5.505   2.897  0.6257  0.2935  0.6187
   70MOL   H20915527   2.286   5.655   2.882 -0.2820  0.5611  0.3182
   70MOL   H21015528   2.176   5.687   3.006 -1.4724 -0.2528 -0.5298
   70MOL   C21115529   2.094   5.551   2.846 -0.2651 -0.8391  0.9287
   70MOL   C21215530   2.134   5.421   2.771  0.6138 -0.2995 -0.2178
   70MOL   O21315531   2.236   5.405   2.700  0.2580  0.0342  0.1845
   70MOL   C21415532   2.014   5.325   2.747 -0.2524 -0.3901  0.6334
   70MOL   C21515533   2.050   5.662   2.738 -0.4220  0.3927 -0.0098
   70MOL   H21615534   2.005   5.529   2.905 -1.2680  2.4940  0.7642
   70MOL   H21715535   2.045   5.236   2.693 -0.7022  1.2767 -2.5556
   70MOL   H21815536   1.966   5.291   2.839 -1.1707  0.8440  0.6374
   70MOL   H21915537   1.945   5.381   2.683  1.1554 -0.3480 -0.8754
   70MOL   H22015538   2.140   5.705   2.695 -0.1750  0.2402  0.3561
   70MOL   H22115539   1.983   5.740   2.773 -0.9063 -0.9725  2.2110
   70MOL   H22215540   2.004   5.619   2.649 -0.8581  0.4286  0.1972
   71MOL     C115541   0.495   7.570   5.450  0.1784  0.0647  0.0085
   71MOL     C215542   0.581   7.488   5.547  0.6991  0.4535 -0.1236
   71MOL     O315543   0.549   7.451   5.661 -0.0375 -0.2806 -0.0678
   71MOL     C415544   0.712   7.445   5.492 -0.3945  0.1839 -0.2663
   71MOL     C515545   0.349   7.549   5.475  0.6589  0.2599  0.9289
   71MOL     H615546   0.524   7.675   5.459 -3.6842  1.0622  1.7850
   71MOL     H715547   0.716   7.455   5.384 -1.2225 -2.6226 -0.6231
   71MOL     H815548   0.798   7.494   5.537  1.4450 -1.9839 -1.3468
   71MOL     H915549   0.715   7.336   5.504  1.8610  0.1428 -1.0900
   71MOL    H1015550   0.315   7.598   5.567 -0.5566 -0.2756  0.7830
   71MOL    H1115551   0.340   7.443   5.502 -0.3582 -0.0687 -0.6174
   71MOL    H1215552   0.517   7.538   5.348  0.7850 -0.4060  0.2828
   71MOL    C1315553   0.254   7.588   5.366 -0.3731  0.1500 -0.0063
   71MOL    C1415554   0.302   7.524   5.233  0.2126 -0.0675 -0.3639
   71MOL    O1515555   0.366   7.582   5.149 -0.0388 -0.2479  0.5525
   71MOL    C1615556   0.278   7.379   5.199  0.5776  0.0048  0.4155
   71MOL    C1715557   0.248   7.741   5.342  0.6019 -0.5920  0.2860
   71MOL    H1815558   0.151   7.561   5.389  0.2219 -1.1228  1.2823
   71MOL    H1915559   0.180   7.363   5.154  1.2554 -1.0068 -0.7231
   71MOL    H2015560   0.346   7.336   5.125  0.0303 -2.8755  1.5554
   71MOL    H2115561   0.287   7.321   5.291  0.9359  0.2208  0.5172
   71MOL    H2215562   0.184   7.757   5.256  0.2238  0.4303  0.7450
   71MOL    H2315563   0.348   7.778   5.317  0.3100  0.1123  0.1464
   71MOL    C2415564   0.184   7.825   5.460  0.5291  0.6891  0.7728
   71MOL    C2515565   0.050   7.773   5.515 -0.1769 -0.0967 -0.6204
   71MOL    O2615566   7.803   7.727   5.445  0.4495 -0.3090 -0.1265
   71MOL    C2715567   0.025   7.791   5.667 -0.1479 -0.4376  0.4605
   71MOL    C2815568   0.181   0.135   5.420  0.2743  0.6575 -0.3720
   71MOL    H2915569   0.259   7.795   5.533  0.6777 -0.3888  0.1768
   71MOL    H3015570   0.109   7.832   5.722  0.1084 -0.3907  0.0341
   71MOL    H3115571   7.781   0.017   5.672  0.0991 -0.1552  0.8794
   71MOL    H3215572   7.821   7.704   5.714 -1.6777  1.8535  3.4079
   71MOL    H3315573   0.114   0.192   5.485 -1.1249 -0.2045 -1.0530
   71MOL    H3415574   0.125   0.136   5.327 -0.8143  1.2239  0.2830
   71MOL    C3515575   0.318   0.202   5.407  0.5811  0.6629 -0.6357
   71MOL    C3615576   0.388   0.216   5.545 -0.1213  0.0759 -0.1041
   71MOL    O3715577   0.321   0.227   5.645  1.0188  0.4179 -0.1300
   71MOL    C3815578   0.541   0.222   5.550 -0.3158  0.7063 -0.2887
   71MOL    C3915579   0.306   0.327   5.318 -0.5336  0.0880  0.0841
   71MOL    H4015580   0.379   0.131   5.352  0.3221  0.0092 -0.0848
   71MOL    H4115581   0.579   0.182   5.645 -0.4327  2.7066  0.6201
   71MOL    H4215582   0.584   0.171   5.464 -0.2977  0.6804 -0.2646
   71MOL    H4315583   0.573   0.325   5.541  0.8657  0.3251 -0.5797
   71MOL    H4415584   0.328   0.418   5.373  0.3709 -0.2772  0.3341
   71MOL    H4515585   0.201   0.345   5.294 -0.5920  1.9284  1.5849
   71MOL    C4615586   0.405   0.326   5.201  0.0744  0.3222  0.5298
   71MOL    C4715587   0.410   0.464   5.136 -0.3864 -0.1361  0.2195
   71MOL    O4815588   0.320   0.494   5.055  0.7324 -0.2550 -0.1515
   71MOL    C4915589   0.517   0.559   5.190 -0.3302 -0.0745 -0.4802
   71MOL    C5015590   0.368   0.212   5.094 -0.5642 -0.8100  0.3914
   71MOL    H5115591   0.501   0.301   5.246 -1.0305 -1.9770  1.6939
   71MOL    H5215592   0.571   0.607   5.108 -3.2335 -0.1774 -2.5278
   71MOL    H5315593   0.467   0.637   5.249  1.8120 -0.4169  1.8453
   71MOL    H5415594   0.575   0.504   5.263 -2.2934 -2.4272 -0.6369
   71MOL    H5515595   0.283   0.241   5.032  0.1906  0.8898  0.1232
   71MOL    H5615596   0.326   0.131   5.155 -2.2268  0.6079  1.1799
   71MOL    C5715597   0.474   0.150   5.007  0.0803 -0.0864  0.0644
   71MOL    C5815598   0.581   0.074   5.089  0.2502  0.3615 -0.9560
   71MOL    O5915599   0.622   0.111   5.198 -0.0902 -0.8739 -0.2056
   71MOL    C6015600   0.635   7.783   5.040 -0.5483  0.2905  0.4910
   71MOL    C6115601   0.557   0.251   4.916  0.1848  0.3884  0.1315
   71MOL    H6215602   0.441   0.082   4.929  0.5438 -0.5683  0.2836
   71MOL    H6315603   0.614   7.691   5.093 -0.4329 -1.0672 -1.7612
   71MOL    H6415604   0.609   7.765   4.936  2.7809  1.1557 -0.5438
   71MOL    H6515605   0.744   7.792   5.044 -0.3951 -1.5357  0.6450
   71MOL    H6615606   0.641   0.204   4.865 -2.0070  0.5000 -3.7779
   71MOL    H6715607   0.598   0.326   4.984 -0.6340  0.6152  0.3805
   71MOL    C6815608   0.471   0.323   4.810 -0.1675  0.6026 -0.2605
   71MOL    C6915609   0.425   0.228   4.702  0.1332 -0.1612 -0.3040
   71MOL    O7015610   0.472   0.120   4.686 -0.3424 -0.0504 -0.2695
   71MOL    C7115611   0.301   0.272   4.623  0.1844  0.9153 -0.2357
   71MOL    C7215612   0.547   0.452   4.757  0.1040 -0.0477  1.0515
   71MOL    H7315613   0.379   0.360   4.857 -0.1700  1.4086 -0.8778
   71MOL    H7415614   0.327   0.305   4.522 -0.8751 -1.2220 -1.2383
   71MOL    H7515615   0.240   0.184   4.603  2.1933 -0.8213  1.0152
   71MOL    H7615616   0.247   0.350   4.675  0.8328  0.7449  0.7022
   71MOL    H7715617   0.563   0.451   4.650  2.4422  0.6384  1.3727
   71MOL    H7815618   0.645   0.455   4.805 -0.7838  1.6023  2.8540
   71MOL    C7915619   0.499   0.597   4.797  0.5933  0.4645  0.6749
   71MOL    C8015620   0.347   0.615   4.757  0.3199  0.2639  0.0158
   71MOL    O8115621   0.306   0.575   4.645  0.1899  0.0823 -0.0298
   71MOL    C8215622   0.259   0.701   4.849 -0.3478  0.1158  0.1184
   71MOL    C8315623   0.586   0.711   4.739 -1.0222 -0.4117  0.5536
   71MOL    H8415624   0.494   0.608   4.906  2.0718 -0.6306  0.8696
   71MOL    H8515625   0.313   0.759   4.923  1.4972 -0.7208 -0.5495
   71MOL    H8615626   0.196   0.767   4.789 -0.4308 -1.7682 -1.8952
   71MOL    H8715627   0.194   0.635   4.906 -0.5446 -0.7533 -1.1089
   71MOL    H8815628   0.597   0.696   4.631  2.0429  0.1793  0.7353
   71MOL    H8915629   0.689   0.699   4.773 -1.4007 -1.4653  1.3548
   71MOL    C9015630   0.558   0.866   4.779 -0.1224 -0.2251  0.7312
   71MOL    C9115631   0.617   0.960   4.666 -0.1837  0.0958 -0.3389
   71MOL    O9215632   0.734   0.955   4.638 -0.3615 -0.6150  0.1524
   71MOL    C9315633   0.529   1.071   4.607  0.0714 -0.7127 -0.3296
   71MOL    C9415634   0.635   0.884   4.916  0.4399 -0.1458 -0.6976
   71MOL    H9515635   0.452   0.887   4.795 -0.1526  0.1999  0.0064
   71MOL    H9615636   0.431   1.024   4.604 -0.3607 -0.0217  1.6002
   71MOL    H9715637   0.530   1.162   4.668 -1.3934 -0.8830 -0.0412
   71MOL    H9815638   0.564   1.092   4.506  0.5936 -0.3438 -0.0754
   71MOL    H9915639   0.737   0.850   4.899  0.0178 -1.5213 -0.5290
   71MOL   H10015640   0.597   0.816   4.993  1.3287  0.4446  0.2853
   71MOL   C10115641   0.625   1.032   4.976 -0.0432  0.4453 -0.0190
   71MOL   C10215642   0.753   1.066   5.054  0.0514  0.4069  0.2089
   71MOL   O10315643   0.815   1.169   5.028 -0.3257  0.4325 -0.5671
   71MOL   C10415644   0.820   0.965   5.155  0.0537 -0.0794  0.0813
   71MOL   C10515645   0.500   1.064   5.053 -0.0594  0.6098 -0.8150
   71MOL   H10615646   0.634   1.105   4.895  3.5646  0.0729 -0.0374
   71MOL   H10715647   0.872   1.029   5.227 -1.0938 -0.1163  0.9577
   71MOL   H10815648   0.734   0.918   5.205  0.6157 -2.8387 -1.4266
   71MOL   H10915649   0.889   0.892   5.114  0.5468 -0.0823  0.8973
   71MOL   H11015650   0.489   0.994   5.136  0.7169  1.5002  0.0389
   71MOL   H11115651   0.418   1.043   4.984  0.1976  0.9168 -1.2129
   71MOL   C11215652   0.484   1.215   5.102 -0.0634  0.0210  0.0894
   71MOL   C11315653   0.426   1.225   5.235 -0.3496 -0.2939  0.5095
   71MOL   O11415654   0.307   1.253   5.253 -0.1441 -0.5297 -0.1121
   71MOL   C11515655   0.511   1.197   5.352  0.5201 -0.4138 -0.2422
   71MOL   C11615656   0.404   1.306   4.999 -0.2078  0.1521 -0.4053
   71MOL   H11715657   0.578   1.270   5.100 -0.5287  0.8296  0.4725
   71MOL   H11815658   0.491   1.104   5.407  0.6312 -0.1401  0.2682
   71MOL   H11915659   0.618   1.207   5.332 -0.0079  1.2707 -2.3508
   71MOL   H12015660   0.484   1.269   5.429  0.2466 -1.0307  0.2438
   71MOL   H12115661   0.303   1.266   5.005  0.9768 -3.1838 -1.6581
   71MOL   H12215662   0.436   1.275   4.900 -1.6302 -1.7473 -0.3118
   71MOL   C12315663   0.412   1.462   5.015  0.2748  0.0847  0.2787
   71MOL   C12415664   0.554   1.510   5.052 -0.1409 -0.8593 -0.0693
   71MOL   O12515665   0.586   1.545   5.163  0.3250 -0.5020 -0.0033
   71MOL   C12615666   0.661   1.501   4.937  0.3194 -0.1979 -0.2928
   71MOL   C12715667   0.300   1.528   5.093 -0.0608 -0.1447 -0.8091
   71MOL   H12815668   0.408   1.500   4.913  0.4981 -0.2203  0.1587
   71MOL   H12915669   0.751   1.441   4.955  0.3964 -0.3179 -1.0640
   71MOL   H13015670   0.614   1.454   4.851  1.9869 -2.2741 -0.1135
   71MOL   H13115671   0.686   1.604   4.912 -1.6364  0.1068 -1.0337
   71MOL   H13215672   0.299   1.499   5.199  2.8575  0.2169 -0.6397
   71MOL   H13315673   0.208   1.482   5.058 -0.4591 -0.7227  0.9266
   71MOL   C13415674   0.280   1.676   5.072 -0.0827  0.4503 -0.6970
   71MOL   C13515675   0.173   1.730   5.169 -0.5120 -0.7299  0.0008
   71MOL   O13615676   0.054   1.739   5.148 -0.0198 -1.0421  0.2733
   71MOL   C13715677   0.237   1.773   5.293  0.0959  0.2999 -0.4750
   71MOL   C13815678   0.243   1.715   4.922 -0.0749  0.0264  0.0872
   71MOL   H13915679   0.375   1.728   5.081 -0.5061  0.8144  2.1386
   71MOL   H14015680   0.262   1.878   5.280  0.1662  0.1528 -1.5493
   71MOL   H14115681   0.173   1.753   5.379 -1.2874 -0.9502 -1.7666
   71MOL   H14215682   0.334   1.728   5.315  1.1376  2.4162 -0.6153
   71MOL   H14315683   0.144   1.675   4.903  0.2104 -0.7991  0.3365
   71MOL   H14415684   0.318   1.667   4.860 -0.2958 -0.4466  0.1892
   71MOL   C14515685   0.253   1.867   4.895  0.2498  0.1355  0.5623
   71MOL   C14615686   0.153   1.906   4.784 -0.1493 -0.1820 -0.1755
   71MOL   O14715687   0.186   1.914   4.666  0.2188 -0.1930 -0.3009
   71MOL   C14815688   0.008   1.932   4.822 -0.0595 -0.3072 -0.3440
   71MOL   C14915689   0.399   1.921   4.878 -1.0198 -0.1840 -0.1180
   71MOL   H15015690   0.221   1.922   4.984  2.0059  1.4772  0.3895
   71MOL   H15115691   7.821   1.997   4.739  0.3091  0.0462 -0.1997
   71MOL   H15215692   7.778   1.851   4.814 -0.4788  0.1497 -1.2689
   71MOL   H15315693   0.003   1.978   4.920  0.7765  1.8156 -1.2536
   71MOL   H15415694   0.415   1.936   4.771 -0.0240  0.0977  0.0673
   71MOL   H15515695   0.470   1.850   4.921 -0.4296  0.5952  0.2067
   71MOL   C15615696   0.422   2.057   4.937 -0.2477 -0.3378 -0.2366
   71MOL   C15715697   0.532   2.139   4.861  0.1489  0.0161  0.6882
   71MOL   O15815698   0.635   2.092   4.821 -0.4635  0.2109 -0.5535
   71MOL   C15915699   0.512   2.293   4.859  0.3082  0.1434  0.0163
   71MOL   C16015700   0.444   2.079   5.087 -1.0012 -0.8601  0.6886
   71MOL   H16115701   0.330   2.107   4.908  0.1211  0.0444 -0.7512
   71MOL   H16215702   0.569   2.338   4.778 -1.9426  1.6916 -0.7528
   71MOL   H16315703   0.406   2.311   4.840  0.0444 -1.4646 -0.1295
   71MOL   H16415704   0.540   2.346   4.950 -1.0150 -1.8887  1.6424
   71MOL   H16515705   0.371   2.028   5.148 -0.0454 -0.6569  2.0312
   71MOL   H16615706   0.411   2.181   5.107  2.9273  0.8153 -0.7370
   71MOL   C16715707   0.589   2.058   5.147 -0.6758 -0.1219  0.1707
   71MOL   C16815708   0.619   1.913   5.198  0.7748 -0.0410  0.1394
   71MOL   O16915709   0.532   1.851   5.262 -0.2436  0.1257 -0.1245
   71MOL   C17015710   0.751   1.854   5.183 -0.0666  0.3494  0.2395
   71MOL   C17115711   0.626   2.170   5.240  0.4441 -0.5307 -0.2326
   71MOL   H17215712   0.659   2.059   5.063 -1.8679  1.2208 -0.8207
   71MOL   H17315713   0.787   1.848   5.080 -1.9928  0.7185 -0.4646
   71MOL   H17415714   0.826   1.909   5.240 -0.4671  0.9175  0.2201
   71MOL   H17515715   0.756   1.747   5.204  0.2742  0.2045 -0.5772
   71MOL   H17615716   0.585   2.135   5.335 -1.1503  1.3532 -0.1880
   71MOL   H17715717   0.572   2.259   5.207 -0.0024 -1.0029 -0.7830
   71MOL   C17815718   0.776   2.202   5.252 -0.6164 -0.3434 -0.1462
   71MOL   C17915719   0.816   2.262   5.392  0.0065  0.0973  0.0570
   71MOL   O18015720   0.890   2.206   5.466  0.4634  0.2225  0.0834
   71MOL   C18115721   0.751   2.395   5.428 -0.1199 -0.6572  0.1959
   71MOL   C18215722   0.818   2.291   5.134  0.3725  0.2149  0.4032
   71MOL   H18315723   0.834   2.110   5.262 -1.5206 -0.7610  1.3815
   71MOL   H18415724   0.807   2.442   5.509  3.4221  0.0420 -2.5484
   71MOL   H18515725   0.749   2.463   5.343 -1.0811 -3.3334 -1.9665
   71MOL   H18615726   0.645   2.371   5.440  0.0534 -2.3146 -1.4476
   71MOL   H18715727   0.777   2.392   5.122  0.6660  0.5860  2.3412
   71MOL   H18815728   0.785   2.231   5.050  0.8511  0.4719  0.0288
   71MOL   C18915729   0.968   2.314   5.109 -0.0402 -0.1511 -0.4881
   71MOL   C19015730   1.033   2.431   5.184 -0.4186 -0.1512 -0.1835
   71MOL   O19115731   0.973   2.532   5.214  0.3764  0.1176  0.0906
   71MOL   C19215732   1.184   2.419   5.191 -0.1138 -0.6603 -1.4476
   71MOL   C19315733   1.001   2.329   4.957 -0.4570  0.3826 -0.7755
   71MOL   H19415734   1.025   2.227   5.143  1.3321 -0.1721 -2.7336
   71MOL   H19515735   1.235   2.449   5.099  1.6948 -1.6859 -0.8007
   71MOL   H19615736   1.235   2.489   5.257  1.6942 -1.7326 -1.6634
   71MOL   H19715737   1.217   2.317   5.210  1.2650  0.0022 -0.2200
   71MOL   H19815738   1.109   2.333   4.943 -0.4291  0.7812 -0.4562
   71MOL   H19915739   0.971   2.429   4.926  1.2952  1.7185  1.6560
   71MOL   C20015740   0.966   2.223   4.852 -0.8340  0.6839 -0.1295
   71MOL   C20115741   1.013   2.079   4.880 -0.1321 -0.0766  0.8411
   71MOL   O20215742   1.123   2.056   4.933  0.3126  0.3105 -0.1291
   71MOL   C20315743   0.926   1.958   4.846 -0.3468  0.1116 -0.1230
   71MOL   C20415744   0.990   2.269   4.708 -0.0953 -0.4520 -0.5364
   71MOL   H20515745   0.858   2.225   4.863 -0.8892 -0.6302 -0.3396
   71MOL   H20615746   0.910   1.963   4.738 -0.4657  0.6992 -0.0772
   71MOL   H20715747   0.991   1.872   4.866  0.2851  0.7407  0.5413
   71MOL   H20815748   0.825   1.955   4.888 -0.2429 -0.8553  0.0759
   71MOL   H20915749   1.049   2.204   4.642 -2.2144 -2.6588 -0.3285
   71MOL   H21015750   1.051   2.359   4.709 -0.0469 -0.4845 -0.4531
   71MOL   C21115751   0.864   2.298   4.625  0.2234  0.3028 -0.5600
   71MOL   C21215752   0.878   2.307   4.473 -0.5620 -0.3474 -1.0020
   71MOL   O21315753   0.813   2.395   4.416 -0.4597 -0.2867 -0.1160
   71MOL   C21415754   0.953   2.205   4.394 -0.6492 -0.0629  0.0853
   71MOL   C21515755   0.797   2.422   4.682  0.0482 -0.0787  0.1766
   71MOL   H21615756   0.790   2.219   4.637  1.8745 -1.1165  0.4072
   71MOL   H21715757   0.935   2.101   4.418 -1.5147 -0.0689 -0.5552
   71MOL   H21815758   0.946   2.217   4.286  0.8731 -0.3924 -0.0661
   71MOL   H21915759   1.060   2.209   4.414 -0.8210  0.0511  1.0130
   71MOL   H22015760   0.866   2.505   4.698 -2.0297  1.3929  1.8739
   71MOL   H22115761   0.767   2.394   4.783  0.2903 -0.5092  0.1280
   71MOL   H22215762   0.708   2.449   4.626 -0.2786  0.6429  1.0335
   72MOL     C115763   5.160   5.529   3.892 -0.2954 -0.3996 -0.6711
   72MOL     C215764   5.013   5.534   3.845 -0.1030  0.0439  0.3802
   72MOL     O315765   4.964   5.461   3.759  0.0507 -0.6064 -0.0558
   72MOL     C415766   4.922   5.633   3.925 -0.1351 -0.1704 -0.1587
   72MOL     C515767   5.245   5.423   3.826  0.0049  0.1350 -0.0718
   72MOL     H615768   5.201   5.630   3.895  0.3973 -0.6066 -2.4438
   72MOL     H715769   4.960   5.629   4.027  1.1147 -4.3763 -0.7006
   72MOL     H815770   4.943   5.732   3.887  0.3561 -0.5752 -0.9362
   72MOL     H915771   4.816   5.607   3.933 -0.0411  0.1132  2.4875
   72MOL    H1015772   5.325   5.476   3.774  0.8175 -1.6058 -0.6096
   72MOL    H1115773   5.185   5.358   3.763 -0.2014  0.1433  0.1181
   72MOL    H1215774   5.139   5.508   3.997  0.7299  1.4720 -0.0602
   72MOL    C1315775   5.302   5.328   3.932  0.5657  0.8151 -0.2146
   72MOL    C1415776   5.403   5.221   3.882  0.4537  0.2555 -0.5812
   72MOL    O1515777   5.386   5.105   3.896 -0.2031  0.4989  0.0989
   72MOL    C1615778   5.531   5.261   3.826  0.0426 -0.3404 -0.0417
   72MOL    C1715779   5.196   5.245   4.013 -0.3283 -0.3702 -0.2244
   72MOL    H1815780   5.368   5.382   4.000  2.4887 -1.1980 -0.4145
   72MOL    H1915781   5.588   5.183   3.775  1.1821 -0.4379  1.3556
   72MOL    H2015782   5.501   5.332   3.748  0.2495 -0.9661 -0.7015
   72MOL    H2115783   5.590   5.325   3.891  0.2230  0.1215 -0.6542
   72MOL    H2215784   5.169   5.153   3.961 -1.7634 -0.0048 -0.1529
   72MOL    H2315785   5.099   5.294   4.011  0.6651  1.6566 -0.2772
   72MOL    C2415786   5.246   5.218   4.160 -0.5379 -0.2537 -0.3249
   72MOL    C2515787   5.190   5.078   4.209 -0.6570  0.1009  0.7486
   72MOL    O2615788   5.073   5.061   4.231  0.4288 -0.3614  0.0015
   72MOL    C2715789   5.288   4.955   4.221  0.1592 -0.1910 -0.5425
   72MOL    C2815790   5.214   5.337   4.253  0.3697 -0.1867  0.2357
   72MOL    H2915791   5.354   5.224   4.151 -0.6424 -0.0026 -1.4923
   72MOL    H3015792   5.392   4.983   4.203  0.5650 -1.9314 -0.9997
   72MOL    H3115793   5.280   4.909   4.320 -0.5101  1.7515  0.3238
   72MOL    H3215794   5.266   4.880   4.145 -0.7997  2.3139 -2.7914
   72MOL    H3315795   5.130   5.310   4.317  1.0108  2.8813  2.4707
   72MOL    H3415796   5.189   5.431   4.203  1.2711  0.8176  1.6297
   72MOL    C3515797   5.337   5.360   4.353  0.2582 -0.0640 -0.8164
   72MOL    C3615798   5.391   5.251   4.439  0.2830  0.0697  0.1107
   72MOL    O3715799   5.483   5.175   4.395 -0.2117 -0.5657 -0.3790
   72MOL    C3815800   5.338   5.234   4.577  0.1934 -0.8533  0.3507
   72MOL    C3915801   5.299   5.486   4.433  0.1757  0.2728  0.4618
   72MOL    H4015802   5.422   5.385   4.290  1.3642 -3.4681 -0.8056
   72MOL    H4115803   5.419   5.263   4.644 -1.3147  0.9850  1.4409
   72MOL    H4215804   5.250   5.295   4.599 -0.3874 -1.1293 -1.1196
   72MOL    H4315805   5.317   5.131   4.603 -2.9393 -0.2797  0.2449
   72MOL    H4415806   5.211   5.467   4.494 -1.6108 -1.2118 -2.4612
   72MOL    H4515807   5.268   5.565   4.364 -0.4307 -0.1041  0.2986
   72MOL    C4615808   5.406   5.554   4.519 -0.6895 -0.1195 -0.0544
   72MOL    C4715809   5.341   5.664   4.598  0.1863 -1.2762  0.4037
   72MOL    O4815810   5.235   5.718   4.564 -0.2414  0.7590  0.0940
   72MOL    C4915811   5.390   5.701   4.735  0.1037  0.2574 -0.1100
   72MOL    C5015812   5.546   5.591   4.465 -0.1339 -0.5418  0.4106
   72MOL    H5115813   5.423   5.468   4.585  2.8328  0.8375  0.4081
   72MOL    H5215814   5.491   5.667   4.761 -0.1649 -2.3038 -2.1739
   72MOL    H5315815   5.378   5.808   4.751  1.1261  0.4243 -0.4124
   72MOL    H5415816   5.331   5.649   4.810 -1.0069  0.5475 -0.7730
   72MOL    H5515817   5.609   5.502   4.471  1.4778  0.5731  0.3838
   72MOL    H5615818   5.596   5.642   4.547 -1.4998  0.4004  0.6710
   72MOL    C5715819   5.545   5.672   4.331 -0.3327 -0.9057 -0.0832
   72MOL    C5815820   5.683   5.648   4.260  0.2889  0.1627  0.3025
   72MOL    O5915821   5.794   5.640   4.309 -0.1356 -0.3303 -0.5570
   72MOL    C6015822   5.675   5.645   4.106  0.3186  0.7997 -0.0413
   72MOL    C6115823   5.521   5.824   4.350  0.2668  0.3460  0.0945
   72MOL    H6215824   5.456   5.636   4.279 -0.0381  0.5596 -1.6360
   72MOL    H6315825   5.734   5.570   4.053  0.7533 -0.2081  1.8079
   72MOL    H6415826   5.569   5.630   4.085  0.9544 -1.0478 -2.1683
   72MOL    H6515827   5.712   5.737   4.060  3.4797 -0.0674  0.5942
   72MOL    H6615828   5.617   5.874   4.364  0.4670  0.0522 -0.2198
   72MOL    H6715829   5.475   5.844   4.447  1.2538 -0.9449  0.8423
   72MOL    C6815830   5.431   5.901   4.245  0.5384  0.2781 -0.4397
   72MOL    C6915831   5.295   5.831   4.220 -0.0544  0.1758 -0.0295
   72MOL    O7015832   5.286   5.734   4.145  0.1260  0.0822  0.3396
   72MOL    C7115833   5.169   5.890   4.266 -0.5660 -0.0396 -0.8123
   72MOL    C7215834   5.482   5.950   4.106 -0.1847 -0.2666  0.2085
   72MOL    H7315835   5.400   5.988   4.303 -0.5689 -0.2909 -0.1733
   72MOL    H7415836   5.197   5.931   4.363 -0.9846 -0.5245 -0.4848
   72MOL    H7515837   5.147   5.973   4.199 -0.1020 -0.2489 -1.2309
   72MOL    H7615838   5.092   5.816   4.288 -1.6150  1.4827  0.6851
   72MOL    H7715839   5.405   6.000   4.047 -1.9827 -0.5252  2.2762
   72MOL    H7815840   5.499   5.857   4.050 -0.6988  0.1202 -0.5995
   72MOL    C7915841   5.612   6.028   4.099 -0.0573 -0.3637  0.5787
   72MOL    C8015842   5.612   6.145   4.191  0.2228 -0.7913 -0.1964
   72MOL    O8115843   5.526   6.231   4.166 -0.6462  0.0913 -0.0549
   72MOL    C8215844   5.710   6.158   4.303  0.3243 -0.5998  0.1368
   72MOL    C8315845   5.670   6.045   3.955  0.2522 -0.0065  0.0069
   72MOL    H8415846   5.680   5.957   4.146  1.5624  0.0030 -1.1433
   72MOL    H8515847   5.746   6.058   4.328 -2.1197 -2.0600 -1.9350
   72MOL    H8615848   5.787   6.232   4.285 -0.8183  0.5780  0.0482
   72MOL    H8715849   5.655   6.207   4.383  0.9381 -0.7318  0.6508
   72MOL    H8815850   5.588   6.076   3.890  2.0784  0.0469 -2.3130
   72MOL    H8915851   5.704   5.942   3.944 -0.0808 -0.1440  0.2498
   72MOL    C9015852   5.786   6.140   3.931  0.1086  0.2394  0.3788
   72MOL    C9115853   5.813   6.167   3.785 -0.5019 -0.2292  0.9257
   72MOL    O9215854   5.900   6.095   3.722 -0.5905 -0.4108  0.6587
   72MOL    C9315855   5.719   6.250   3.703  0.2074  0.0183 -0.3547
   72MOL    C9415856   5.911   6.086   4.006 -0.1778 -0.4072 -0.2735
   72MOL    H9515857   5.756   6.239   3.966 -2.7080 -0.5566  0.3131
   72MOL    H9615858   5.655   6.187   3.640 -1.1712  0.0617  0.9813
   72MOL    H9715859   5.661   6.310   3.773  2.5474  1.7159  0.1803
   72MOL    H9815860   5.784   6.322   3.654 -0.1622 -0.7854 -2.0794
   72MOL    H9915861   5.937   5.987   3.968  0.9224  0.0498 -0.7408
   72MOL   H10015862   5.894   6.088   4.113 -0.7574  2.8468 -0.3651
   72MOL   C10115863   6.043   6.173   3.986 -0.0884  0.0883  0.0150
   72MOL   C10215864   6.140   6.105   3.895 -0.2127  0.3656  0.2457
   72MOL   O10315865   6.167   5.986   3.907  0.5388 -0.2661 -0.2348
   72MOL   C10415866   6.192   6.180   3.776 -0.4309 -0.9521 -1.0439
   72MOL   C10515867   6.100   6.231   4.118  0.2290  0.1134 -0.7739
   72MOL   H10615868   6.015   6.257   3.923 -1.8251 -0.8272 -0.4706
   72MOL   H10715869   6.166   6.285   3.794 -1.3476 -1.2894 -0.3242
   72MOL   H10815870   6.299   6.161   3.765 -0.2959 -0.7337 -0.1691
   72MOL   H10915871   6.135   6.165   3.685 -0.3942  0.9959 -1.4184
   72MOL   H11015872   6.160   6.154   4.166 -3.3779 -1.7016  1.0674
   72MOL   H11115873   6.021   6.248   4.191  1.6501 -0.6962  0.9864
   72MOL   C11215874   6.179   6.365   4.113  0.3810 -0.5504 -1.0744
   72MOL   C11315875   6.307   6.367   4.032 -0.7985 -1.3060  0.3844
   72MOL   O11415876   6.317   6.438   3.932  0.0378 -0.1250 -1.2688
   72MOL   C11515877   6.412   6.265   4.069 -0.4624 -0.0928 -0.6102
   72MOL   C11615878   6.187   6.425   4.257  0.4212  0.0472 -0.2109
   72MOL   H11715879   6.104   6.425   4.061  1.1366 -0.2116 -1.7934
   72MOL   H11815880   6.385   6.166   4.033  0.4589 -0.2271 -0.9615
   72MOL   H11915881   6.502   6.303   4.020 -0.0338  1.2634  1.1463
   72MOL   H12015882   6.421   6.265   4.178 -1.7721 -2.1295 -0.4939
   72MOL   H12115883   6.240   6.354   4.321  0.0197  2.2893  2.6837
   72MOL   H12215884   6.085   6.443   4.288  0.1421 -2.2626  0.3244
   72MOL   C12315885   6.251   6.564   4.269  0.7766  0.0289  0.2868
   72MOL   C12415886   6.345   6.568   4.392  0.7733 -0.8889 -1.3913
   72MOL   O12515887   6.309   6.599   4.505 -0.0658  0.0152 -0.2206
   72MOL   C12615888   6.486   6.519   4.368  0.0706  0.4946 -0.2434
   72MOL   C12715889   6.155   6.681   4.276 -0.5686 -0.3920  0.0525
   72MOL   H12815890   6.315   6.575   4.182  1.4378  1.5111  0.9478
   72MOL   H12915891   6.536   6.600   4.316 -0.4764  0.9849 -0.0131
   72MOL   H13015892   6.532   6.494   4.463 -2.1086 -0.4219  0.6179
   72MOL   H13115893   6.490   6.429   4.306  0.1136  0.9321 -0.8764
   72MOL   H13215894   6.216   6.767   4.300 -0.8104  0.1946 -1.3762
   72MOL   H13315895   6.084   6.671   4.358 -0.9066 -0.3490 -0.2315
   72MOL   C13415896   6.085   6.710   4.143 -0.7603 -0.1377  0.9425
   72MOL   C13515897   6.182   6.770   4.042  0.5393  0.0749 -0.6932
   72MOL   O13615898   6.248   6.870   4.066  0.4372 -0.1026 -0.1565
   72MOL   C13715899   6.178   6.716   3.898 -0.2009  0.2567  0.1389
   72MOL   C13815900   5.973   6.808   4.170  0.2902 -0.0118 -0.3102
   72MOL   H13915901   6.045   6.620   4.096  3.5440 -1.4020 -0.5511
   72MOL   H14015902   6.115   6.783   3.840 -2.2146 -1.5029  0.2615
   72MOL   H14115903   6.272   6.684   3.852 -0.3929 -2.3031  1.4419
   72MOL   H14215904   6.127   6.622   3.915 -1.0889  0.8998  1.0422
   72MOL   H14315905   6.022   6.900   4.203 -1.3948  2.1154 -3.4565
   72MOL   H14415906   5.920   6.781   4.261 -0.1406 -1.6436 -1.0273
   72MOL   C14515907   5.885   6.844   4.043  1.3134  0.1360  0.2951
   72MOL   C14615908   5.782   6.953   4.068  0.1026  0.3014  0.7110
   72MOL   O14715909   5.771   7.008   4.181  0.2192 -0.8439  0.2838
   72MOL   C14815910   5.693   7.002   3.959  0.8064 -0.5766 -0.1620
   72MOL   C14915911   5.817   6.722   3.963 -0.7339 -0.5185 -0.8533
   72MOL   H15015912   5.955   6.887   3.971  2.3004 -1.1364  0.4818
   72MOL   H15115913   5.744   7.005   3.863  0.2826  1.3436 -0.3948
   72MOL   H15215914   5.601   6.944   3.962  1.0510 -0.9897 -0.6063
   72MOL   H15315915   5.659   7.103   3.982  0.8517 -0.6153  0.0833
   72MOL   H15415916   5.888   6.642   3.941 -1.1094 -0.9266 -0.6122
   72MOL   H15515917   5.783   6.756   3.865  1.9877  0.8025 -1.3803
   72MOL   C15615918   5.699   6.639   4.010 -0.1982 -0.2010  0.4318
   72MOL   C15715919   5.730   6.562   4.141  0.5417 -0.6154  0.3707
   72MOL   O15815920   5.826   6.477   4.142  0.7190 -0.3814  0.0519
   72MOL   C15915921   5.639   6.563   4.261  1.0735 -0.3115  0.1175
   72MOL   C16015922   5.650   6.542   3.905  0.1817 -0.1127  0.4335
   72MOL   H16115923   5.615   6.704   4.037  0.3376  0.8733 -0.4651
   72MOL   H16215924   5.559   6.637   4.258  1.6119  0.3845  1.8657
   72MOL   H16315925   5.596   6.464   4.273  3.1754 -1.0220  2.1174
   72MOL   H16415926   5.705   6.587   4.345 -0.0730  1.2988  0.5911
   72MOL   H16515927   5.645   6.443   3.952  1.3103  0.2085  1.2264
   72MOL   H16615928   5.725   6.525   3.827  1.1927  0.5955  1.2518
   72MOL   C16715929   5.506   6.585   3.847  0.0200  0.6274  0.2981
   72MOL   C16815930   5.399   6.487   3.891  1.3276  0.8858  0.1555
   72MOL   O16915931   5.346   6.414   3.806  0.1047  0.0640  0.1205
   72MOL   C17015932   5.350   6.495   4.042 -0.3526  0.2162 -0.2773
   72MOL   C17115933   5.516   6.599   3.691 -0.1684  0.1017  0.0950
   72MOL   H17215934   5.483   6.686   3.880 -1.1733  1.4086 -2.7500
   72MOL   H17315935   5.318   6.598   4.062 -1.1269  0.6144 -3.2475
   72MOL   H17415936   5.274   6.422   4.068  1.4867 -1.3737  0.7233
   72MOL   H17515937   5.429   6.481   4.115 -0.8005 -0.1624  0.1348
   72MOL   H17615938   5.420   6.567   3.651 -0.6578 -0.7259  1.8652
   72MOL   H17715939   5.583   6.520   3.656  0.6831  0.1837  1.4972
   72MOL   C17815940   5.547   6.739   3.629  0.8923 -0.1029 -0.6684
   72MOL   C17915941   5.427   6.838   3.653 -0.0586  0.1864 -0.3167
   72MOL   O18015942   5.311   6.812   3.624 -0.3091  0.1031 -0.1995
   72MOL   C18115943   5.474   6.972   3.679 -0.0708  0.1475 -0.3151
   72MOL   C18215944   5.593   6.718   3.481 -0.3479 -0.6759  0.4928
   72MOL   H18315945   5.625   6.773   3.696  0.1795 -0.9811  0.6278
   72MOL   H18415946   5.510   6.976   3.782  0.4730  0.3928 -0.5165
   72MOL   H18515947   5.557   7.004   3.617 -0.6403  1.1072 -0.5945
   72MOL   H18615948   5.395   7.046   3.672  0.5154  0.6104 -2.0686
   72MOL   H18715949   5.555   6.792   3.410  1.5498  0.4083  0.5570
   72MOL   H18815950   5.539   6.630   3.447 -0.0274 -0.6234 -0.1753
   72MOL   C18915951   5.743   6.725   3.458 -0.8111  0.0540  0.1141
   72MOL   C19015952   5.797   6.594   3.517  0.5454  0.4463  0.7932
   72MOL   O19115953   5.863   6.598   3.617 -0.3802  0.3701  0.0636
   72MOL   C19215954   5.787   6.474   3.428 -0.3484 -0.2486  0.6742
   72MOL   C19315955   5.812   6.856   3.517 -0.2608 -0.0629 -0.1905
   72MOL   H19415956   5.763   6.712   3.352 -0.2014  0.3340  0.1916
   72MOL   H19515957   5.825   6.382   3.472 -0.2100 -1.4823 -1.9282
   72MOL   H19615958   5.681   6.455   3.413 -0.1668 -1.8097  1.2769
   72MOL   H19715959   5.820   6.487   3.325 -0.9811 -0.5614  0.4259
   72MOL   H19815960   5.801   6.846   3.625  0.6540  0.3797 -0.0533
   72MOL   H19915961   5.760   6.948   3.489  2.2069  0.6977 -2.4470
   72MOL   C20015962   5.966   6.873   3.483 -0.0455  0.5957  0.0155
   72MOL   C20115963   6.045   6.952   3.597 -0.3929  0.0240  0.1531
   72MOL   O20215964   5.993   7.024   3.680 -0.3417 -0.1276 -0.4654
   72MOL   C20315965   6.193   6.920   3.617  0.0895 -1.0545  0.3174
   72MOL   C20415966   6.000   6.922   3.333 -0.7215  0.0940  0.5228
   72MOL   H20515967   6.003   6.771   3.486 -0.7397  0.2564 -1.8634
   72MOL   H20615968   6.202   6.813   3.601 -1.2815 -1.0546 -0.5705
   72MOL   H20715969   6.259   6.974   3.549  0.8567 -1.3421  0.8284
   72MOL   H20815970   6.220   6.944   3.720  0.5652 -0.7366  0.1180
   72MOL   H20915971   5.968   6.847   3.261 -0.3195  0.6581 -0.2513
   72MOL   H21015972   6.109   6.926   3.330 -0.6071 -1.4033  1.7396
   72MOL   C21115973   5.949   7.065   3.286  0.1079  0.2741  0.2886
   72MOL   C21215974   5.811   7.068   3.216  0.4317 -0.3389 -0.3650
   72MOL   O21315975   5.739   6.967   3.195  0.1248 -0.0420  0.4169
   72MOL   C21415976   5.762   7.208   3.177 -0.1476  0.4415 -0.5585
   72MOL   C21515977   6.068   7.120   3.198 -0.3050 -0.7026  0.1309
   72MOL   H21615978   5.933   7.127   3.374  1.1614 -1.7930  1.9800
   72MOL   H21715979   5.746   7.197   3.070 -3.5735 -2.3696  0.1711
   72MOL   H21815980   5.666   7.219   3.227  0.7562 -0.8684  1.5814
   72MOL   H21915981   5.831   7.290   3.200  1.3628 -0.2746 -2.4156
   72MOL   H22015982   6.148   7.162   3.258 -1.0331  0.7327  0.1254
   72MOL   H22115983   6.040   7.208   3.140  0.3909 -0.7455 -0.2731
   72MOL   H22215984   6.111   7.052   3.124 -1.0723 -1.5917  0.4846
   73MOL     C115985   5.768   5.776   2.638 -0.3515 -0.3475  0.5826
   73MOL     C215986   5.886   5.687   2.605 -0.1616  0.1763 -0.1862
   73MOL     O315987   5.913   5.587   2.667 -0.3761  0.3059  0.1495
   73MOL     C415988   5.966   5.725   2.478 -0.0279  0.1422  0.1081
   73MOL     C515989   5.672   5.704   2.727  0.0039 -0.2022  0.9236
   73MOL     H615990   5.801   5.859   2.701  2.0059  0.4356 -1.6017
   73MOL     H715991   6.037   5.800   2.514  1.3560  0.0844 -2.4044
   73MOL     H815992   6.018   5.635   2.445  1.7693  0.5522  1.7128
   73MOL     H915993   5.906   5.770   2.400  0.0646  0.6171  0.3085
   73MOL    H1015994   5.607   5.781   2.769  1.6581  1.5292  0.3969
   73MOL    H1115995   5.726   5.668   2.815  1.6406 -1.7053 -0.6426
   73MOL    H1215996   5.708   5.802   2.550 -1.3881 -0.4971  1.2378
   73MOL    C1315997   5.586   5.594   2.655  0.2145  0.1770 -0.7963
   73MOL    C1415998   5.453   5.647   2.602 -0.3903 -0.6143  0.8821
   73MOL    O1515999   5.392   5.737   2.660  0.3483  0.5847  0.8361
   73MOL    C1616000   5.393   5.577   2.482 -0.0335 -0.1972 -0.3787
   73MOL    C1716001   5.562   5.473   2.750  0.5030  0.2009  0.7027
   73MOL    H1816002   5.643   5.551   2.573  0.6365 -0.1025 -0.3573
   73MOL    H1916003   5.284   5.568   2.480  0.0234 -0.7706 -2.7321
   73MOL    H2016004   5.417   5.631   2.390 -1.9168 -0.5182 -1.0859
   73MOL    H2116005   5.423   5.474   2.464  1.7051  0.0119  1.1618
   73MOL    H2216006   5.485   5.408   2.709  0.0233  0.9178  0.4450
   73MOL    H2316007   5.518   5.519   2.839  1.6932  0.2058  1.2948
   73MOL    C2416008   5.694   5.395   2.778  0.2132 -0.7043  0.3956
   73MOL    C2516009   5.726   5.308   2.650 -0.0661  0.0482  0.5012
   73MOL    O2616010   5.640   5.277   2.568 -0.0341  0.1447  0.0310
   73MOL    C2716011   5.869   5.261   2.628 -0.2179  0.4554 -0.6081
   73MOL    C2816012   5.695   5.303   2.901  0.4518 -0.4433 -0.2099
   73MOL    H2916013   5.775   5.468   2.782 -0.1626 -0.2154 -0.7075
   73MOL    H3016014   5.912   5.300   2.535  0.2852 -1.7773 -1.3690
   73MOL    H3116015   5.932   5.281   2.714  0.0685 -1.1578 -0.4224
   73MOL    H3216016   5.866   5.152   2.625  0.6825  0.3948  0.3060
   73MOL    H3316017   5.792   5.254   2.901  1.6066  1.7538 -1.7146
   73MOL    H3416018   5.625   5.220   2.891  0.7453 -0.9209  1.5918
   73MOL    C3516019   5.669   5.372   3.040  0.0389 -0.3199 -0.3217
   73MOL    C3616020   5.774   5.482   3.064  0.1627 -0.0793 -0.8999
   73MOL    O3716021   5.744   5.604   3.081  0.7177 -0.4329 -0.1955
   73MOL    C3816022   5.917   5.440   3.029  0.5338 -0.2205 -0.3624
   73MOL    C3916023   5.669   5.263   3.148 -0.0534 -0.2827 -0.1478
   73MOL    H4016024   5.571   5.418   3.051 -0.2540 -1.0426  0.1331
   73MOL    H4116025   5.950   5.354   3.087 -1.9983 -0.5216  0.6992
   73MOL    H4216026   5.942   5.440   2.923 -0.7620  1.7692 -0.6934
   73MOL    H4316027   5.980   5.525   3.056 -0.8777  1.4179 -2.0391
   73MOL    H4416028   5.773   5.238   3.170 -0.2996 -0.4710  0.8232
   73MOL    H4516029   5.626   5.167   3.118  0.1439 -0.5125  0.2987
   73MOL    C4616030   5.602   5.299   3.281  0.0226 -0.7365 -0.3932
   73MOL    C4716031   5.450   5.314   3.282  0.3303  0.1675  0.5991
   73MOL    O4816032   5.393   5.421   3.273  0.0431  0.1139 -0.0944
   73MOL    C4916033   5.372   5.188   3.310 -0.1086 -0.6342 -0.0532
   73MOL    C5016034   5.657   5.419   3.349 -1.0426  0.1349 -0.3719
   73MOL    H5116035   5.625   5.211   3.342 -0.9265 -0.5491  0.2399
   73MOL    H5216036   5.428   5.107   3.264 -1.2325 -1.9519  0.8713
   73MOL    H5316037   5.357   5.176   3.417  1.7437 -0.6005  0.2263
   73MOL    H5416038   5.274   5.199   3.265 -1.0595 -0.3611  2.0359
   73MOL    H5516039   5.610   5.422   3.448 -0.2332 -1.8697  0.0974
   73MOL    H5616040   5.624   5.510   3.300  0.4109 -0.3549 -2.2802
   73MOL    C5716041   5.808   5.420   3.381  0.3272  0.3681 -0.3886
   73MOL    C5816042   5.855   5.332   3.504 -0.3927 -0.5967  0.2012
   73MOL    O5916043   5.804   5.350   3.614 -0.0091 -0.1149 -0.2080
   73MOL    C6016044   5.953   5.221   3.475 -0.1199  0.1212 -0.6108
   73MOL    C6116045   5.861   5.566   3.401  0.0722  0.1034 -0.3715
   73MOL    H6216046   5.865   5.383   3.295  0.7226 -3.3546  1.3600
   73MOL    H6316047   5.896   5.150   3.415  0.6662 -1.0168 -0.0352
   73MOL    H6416048   6.033   5.264   3.415 -2.7763  3.0618 -2.2674
   73MOL    H6516049   5.984   5.174   3.568  3.7010  1.8805 -0.8903
   73MOL    H6616050   5.831   5.619   3.311  0.9435  0.7767 -0.2780
   73MOL    H6716051   5.969   5.568   3.388  0.1053  0.4278 -0.0761
   73MOL    C6816052   5.821   5.658   3.525  0.4086 -1.1167 -0.1536
   73MOL    C6916053   5.679   5.710   3.523  0.3579 -0.2308 -0.8266
   73MOL    O7016054   5.625   5.757   3.425  0.7085 -0.0343  0.3466
   73MOL    C7116055   5.614   5.733   3.657 -0.5718  0.6002  0.7186
   73MOL    C7216056   5.918   5.778   3.520 -0.6662 -0.2292 -0.0185
   73MOL    H7316057   5.806   5.606   3.619  0.9652  1.0609  1.1844
   73MOL    H7416058   5.507   5.751   3.645 -0.8171 -1.6356 -0.7834
   73MOL    H7516059   5.622   5.647   3.724  0.8638 -0.6314 -0.9942
   73MOL    H7616060   5.663   5.816   3.709  0.6669  0.6633 -0.5376
   73MOL    H7716061   5.874   5.872   3.554  0.5103  0.8339 -1.3525
   73MOL    H7816062   5.932   5.802   3.414  0.7675  0.6168  0.3420
   73MOL    C7916063   6.043   5.754   3.611  0.0381 -0.8950 -1.0354
   73MOL    C8016064   6.007   5.724   3.763  0.5705 -0.4743 -0.0211
   73MOL    O8116065   5.890   5.720   3.810 -0.4009  0.3922  0.7108
   73MOL    C8216066   6.125   5.695   3.848  0.1371 -0.1427 -0.3619
   73MOL    C8316067   6.147   5.868   3.587  0.0098 -0.9005  0.3285
   73MOL    H8416068   6.092   5.658   3.591  1.1098 -0.5359 -0.1363
   73MOL    H8516069   6.192   5.782   3.844  1.0276 -0.7428  1.2075
   73MOL    H8616070   6.098   5.650   3.943 -3.2401  1.3264 -0.5545
   73MOL    H8716071   6.178   5.616   3.795 -1.1804 -0.7056 -0.8612
   73MOL    H8816072   6.221   5.860   3.666  0.2525 -1.8042  0.0162
   73MOL    H8916073   6.096   5.963   3.602 -0.5279 -1.3040  1.1009
   73MOL    C9016074   6.213   5.860   3.447 -0.7370 -0.2358 -0.0430
   73MOL    C9116075   6.315   5.748   3.446 -0.1020 -0.1511 -0.3003
   73MOL    O9216076   6.411   5.750   3.528 -0.2017 -0.3951  0.5291
   73MOL    C9316077   6.302   5.640   3.332  0.4824 -0.0060 -0.0476
   73MOL    C9416078   6.285   5.994   3.419  0.3516  0.6339 -0.2200
   73MOL    H9516079   6.139   5.836   3.370  1.3647 -1.4735 -1.7389
   73MOL    H9616080   6.395   5.592   3.303 -0.7950 -1.1083 -2.5232
   73MOL    H9716081   6.236   5.564   3.375  0.8043 -1.0124 -1.3178
   73MOL    H9816082   6.242   5.675   3.248 -2.2768  0.2848  1.9765
   73MOL    H9916083   6.377   5.974   3.364  0.8228  1.0653  0.4179
   73MOL   H10016084   6.320   6.040   3.511 -0.2131  0.8295 -0.1025
   73MOL   C10116085   6.212   6.091   3.326 -0.2562 -0.0092 -0.1556
   73MOL   C10216086   6.093   6.153   3.397  0.0327  0.1007  0.5800
   73MOL   O10316087   5.988   6.094   3.393 -0.1780  0.4544 -0.3060
   73MOL   C10416088   6.106   6.295   3.444  0.7491 -0.6674  0.0106
   73MOL   C10516089   6.184   6.021   3.183 -0.8476 -0.5282 -0.0228
   73MOL   H10616090   6.282   6.174   3.314 -0.5555  0.1299 -0.9933
   73MOL   H10716091   6.204   6.335   3.419  1.8045 -1.8200  2.1093
   73MOL   H10816092   6.033   6.356   3.392  0.0752 -0.3449  1.3128
   73MOL   H10916093   6.076   6.312   3.547 -2.6881  1.4795 -1.2840
   73MOL   H11016094   6.098   5.955   3.188 -2.6827  1.9137  1.5744
   73MOL   H11116095   6.267   5.958   3.151  0.0115  1.0256 -0.9202
   73MOL   C11216096   6.160   6.111   3.060 -0.5355 -1.4967 -0.5867
   73MOL   C11316097   6.282   6.194   3.012  0.1897  0.8625  0.4267
   73MOL   O11416098   6.284   6.314   3.017 -0.1610 -0.9052  0.5312
   73MOL   C11516099   6.394   6.112   2.963 -0.3212  0.9418  0.0749
   73MOL   C11616100   6.033   6.196   3.066 -0.1311 -0.1833  0.2364
   73MOL   H11716101   6.145   6.054   2.968  0.8575 -1.6647 -0.7224
   73MOL   H11816102   6.488   6.167   2.960  0.0600  0.5539  3.3673
   73MOL   H11916103   6.413   6.025   3.025 -1.8861 -0.4465 -1.3251
   73MOL   H12016104   6.360   6.072   2.867 -0.8056 -0.4108  0.8070
   73MOL   H12116105   6.024   6.249   2.972  3.5613 -3.1483 -1.9812
   73MOL   H12216106   6.043   6.277   3.138  1.1514 -1.4559  1.5412
   73MOL   C12316107   5.894   6.139   3.071  0.0743 -0.6473  0.0623
   73MOL   C12416108   5.873   6.022   2.970  0.3227 -0.3022  0.0541
   73MOL   O12516109   5.840   6.039   2.848 -0.2284 -0.4465  0.1645
   73MOL   C12616110   5.888   5.886   3.022 -0.1756 -0.6354  0.1683
   73MOL   C12716111   5.802   6.258   3.047  0.4716 -0.0740 -0.1259
   73MOL   H12816112   5.875   6.103   3.172  0.4274  0.5576  0.5722
   73MOL   H12916113   5.816   5.828   2.963 -0.2798 -2.3600  1.9170
   73MOL   H13016114   5.988   5.846   3.008 -1.2874 -3.2652 -0.6181
   73MOL   H13116115   5.861   5.891   3.127  0.8630  1.8214  0.3545
   73MOL   H13216116   5.819   6.291   2.944  2.5069 -3.1457 -0.8433
   73MOL   H13316117   5.827   6.338   3.116  0.2341 -0.2896  0.2080
   73MOL   C13416118   5.650   6.230   3.073  0.6159 -0.7880 -0.1721
   73MOL   C13516119   5.558   6.276   2.954  0.4772  0.3897  0.3858
   73MOL   O13616120   5.485   6.380   2.965  0.1805  0.4159 -0.6777
   73MOL   C13716121   5.542   6.191   2.827 -0.1908  0.7300  0.1068
   73MOL   C13816122   5.603   6.283   3.211  0.0585 -0.2073 -0.3573
   73MOL   H13916123   5.629   6.123   3.076 -0.8813 -0.5062 -0.3128
   73MOL   H14016124   5.542   6.085   2.849 -1.4488  1.0797  1.8485
   73MOL   H14116125   5.445   6.230   2.796 -0.7343 -1.3550 -0.8918
   73MOL   H14216126   5.620   6.216   2.754  0.2703  1.5406  0.8601
   73MOL   H14316127   5.624   6.390   3.216 -2.8161  0.3339  0.7986
   73MOL   H14416128   5.673   6.252   3.289  1.0303  1.2777 -0.6141
   73MOL   C14516129   5.454   6.244   3.244  1.0017  0.4347 -0.7250
   73MOL   C14616130   5.364   6.366   3.269  0.9328 -0.4025  0.9148
   73MOL   O14716131   5.394   6.456   3.341 -0.1098  0.3508 -0.1741
   73MOL   C14816132   5.222   6.370   3.209 -0.8440  0.3210  0.4275
   73MOL   C14916133   5.447   6.134   3.357  0.3333 -0.0309 -0.1977
   73MOL   H15016134   5.411   6.194   3.157  0.1473  1.3842 -0.8523
   73MOL   H15116135   5.142   6.357   3.282  0.1118 -1.1873  1.2376
   73MOL   H15216136   5.213   6.469   3.164 -0.7665  0.4283  0.6463
   73MOL   H15316137   5.216   6.292   3.133 -2.0993 -0.0435  0.8956
   73MOL   H15416138   5.490   6.164   3.453  2.5456 -0.6003 -0.9942
   73MOL   H15516139   5.509   6.049   3.328 -1.8785 -1.9702  0.5550
   73MOL   C15616140   5.305   6.080   3.390 -0.1993  0.5169  0.1520
   73MOL   C15716141   5.250   6.141   3.517  0.4576  0.0646 -0.2914
   73MOL   O15816142   5.150   6.204   3.512 -0.5207  0.4554 -0.7814
   73MOL   C15916143   5.321   6.126   3.651  0.7603  0.3638  0.2088
   73MOL   C16016144   5.312   5.921   3.408 -0.8039  0.0881 -0.1679
   73MOL   H16116145   5.238   6.104   3.307 -0.0266 -0.1796 -0.1981
   73MOL   H16216146   5.428   6.133   3.632  0.6724 -2.0302 -1.3545
   73MOL   H16316147   5.287   6.201   3.723 -0.4794  0.2775 -0.2714
   73MOL   H16416148   5.306   6.030   3.702 -0.7210  0.2295 -0.4449
   73MOL   H16516149   5.378   5.906   3.494  0.7833 -0.0698 -1.4060
   73MOL   H16616150   5.368   5.873   3.328 -0.0877  1.1883 -0.3394
   73MOL   C16716151   5.172   5.850   3.413 -0.7335 -0.0714  0.4407
   73MOL   C16816152   5.188   5.749   3.525  0.2046  0.4866  0.6762
   73MOL   O16916153   5.142   5.770   3.634 -0.0917 -0.0867  0.1755
   73MOL   C17016154   5.247   5.608   3.487 -0.3121 -0.2766  0.0136
   73MOL   C17116155   5.116   5.786   3.284  0.3024 -1.1144  0.6303
   73MOL   H17216156   5.105   5.925   3.455  1.0679  1.7286  0.1751
   73MOL   H17316157   5.319   5.615   3.405  0.0513 -0.4146  0.3175
   73MOL   H17416158   5.298   5.559   3.570  1.9410  0.8636 -0.6332
   73MOL   H17516159   5.175   5.535   3.452 -2.0449  1.8291 -0.9360
   73MOL   H17616160   5.024   5.729   3.299 -0.8047 -0.1656 -2.3013
   73MOL   H17716161   5.179   5.702   3.254  0.1371 -1.1597  0.4075
   73MOL   C17816162   5.106   5.885   3.173  1.1457 -0.0273 -0.6162
   73MOL   C17916163   4.973   5.974   3.191 -1.0905  0.2212 -0.5320
   73MOL   O18016164   4.865   5.924   3.230  0.0483  0.4005 -0.8958
   73MOL   C18116165   4.995   6.118   3.148 -0.1067  0.0677 -0.5987
   73MOL   C18216166   5.115   5.827   3.029  0.0393  0.1281 -0.5815
   73MOL   H18316167   5.184   5.960   3.182  1.1548  0.0507 -1.3160
   73MOL   H18416168   4.907   6.174   3.118  0.5457 -0.5694 -3.8892
   73MOL   H18516169   5.043   6.170   3.231 -0.8619 -1.1481  0.6350
   73MOL   H18616170   5.049   6.135   3.055 -1.8962 -0.8793 -1.8299
   73MOL   H18716171   5.021   5.849   2.977 -0.5462 -0.0218  0.4113
   73MOL   H18816172   5.112   5.720   3.045  3.3795 -0.0300 -0.7517
   73MOL   C18916173   5.243   5.864   2.940 -0.1375 -0.5782  0.0439
   73MOL   C19016174   5.373   5.860   3.011 -0.7400  0.2250  0.5950
   73MOL   O19116175   5.432   5.963   3.034 -0.1483  0.1664 -0.3481
   73MOL   C19216176   5.421   5.725   3.043 -0.2276  0.2187 -0.0673
   73MOL   C19316177   5.231   6.005   2.863 -0.4957  0.1183 -0.2488
   73MOL   H19416178   5.245   5.799   2.852  1.2989  3.0825 -2.7244
   73MOL   H19516179   5.391   5.651   2.968 -1.7825 -0.6786  1.4161
   73MOL   H19616180   5.529   5.728   3.056 -0.3663 -0.1816  1.2468
   73MOL   H19716181   5.374   5.692   3.136  2.6467  1.3343  1.8519
   73MOL   H19816182   5.319   6.014   2.800 -0.3801  3.1849  0.3148
   73MOL   H19916183   5.239   6.078   2.943  0.7801  0.5805 -0.8008
   73MOL   C20016184   5.107   6.025   2.772 -0.1915 -0.1323 -0.3262
   73MOL   C20116185   5.128   5.943   2.646  0.0450  0.1196  0.7353
   73MOL   O20216186   5.203   5.974   2.557  0.3167 -0.1987  0.1781
   73MOL   C20316187   5.049   5.813   2.634  0.6025  0.4490  0.8267
   73MOL   C20416188   5.106   6.181   2.725  0.1156  0.0163 -0.1265
   73MOL   H20516189   5.014   6.002   2.823  0.8012 -0.2847  1.4592
   73MOL   H20616190   5.101   5.742   2.570  0.8120 -0.6852  2.2234
   73MOL   H20716191   5.007   5.772   2.726  0.9765 -2.2541 -0.1643
   73MOL   H20816192   4.961   5.854   2.583  0.6961  2.7459  2.4351
   73MOL   H20916193   5.178   6.211   2.649  0.4664  3.5034  1.4863
   73MOL   H21016194   5.134   6.237   2.815 -2.4063 -2.1560  2.1254
   73MOL   C21116195   4.968   6.226   2.679 -0.1054  0.2818  0.1715
   73MOL   C21216196   4.963   6.356   2.589 -0.7488 -0.3362 -0.0227
   73MOL   O21316197   4.995   6.350   2.474  0.4745 -0.1653  0.4270
   73MOL   C21416198   4.930   6.488   2.660 -0.5970  0.3840 -0.2437
   73MOL   C21516199   4.862   6.238   2.790 -0.0326  0.4214  0.7660
   73MOL   H21616200   4.931   6.148   2.612  2.6848 -0.5106 -0.4900
   73MOL   H21716201   4.831   6.486   2.706 -0.5656  1.3148 -0.1279
   73MOL   H21816202   5.006   6.503   2.737  0.5343  0.6681 -1.4078
   73MOL   H21916203   4.928   6.563   2.581 -0.3452 -0.8496 -1.4548
   73MOL   H22016204   4.814   6.145   2.822  0.7583  0.1302  1.1348
   73MOL   H22116205   4.776   6.300   2.767  0.0508  0.5942  0.9201
   73MOL   H22216206   4.900   6.273   2.886 -0.8595 -1.6941  1.9004
   74MOL     C116207   6.712   7.479   4.436  1.0346  0.7514 -0.0186
   74MOL     C216208   6.696   7.548   4.303 -0.5186  0.7327 -0.5294
   74MOL     O316209   6.643   7.660   4.294  0.0119  0.0438  0.3471
   74MOL     C416210   6.735   7.474   4.181 -1.3420 -0.8548 -0.2698
   74MOL     C516211   6.753   7.569   4.554  0.4654  0.0313 -0.4360
   74MOL     H616212   6.617   7.433   4.463  1.8849 -1.0365 -0.0409
   74MOL     H716213   6.839   7.502   4.166 -0.8111 -1.8931  1.2453
   74MOL     H816214   6.710   7.368   4.182  0.0393 -1.1998  0.7631
   74MOL     H916215   6.678   7.512   4.097  1.3361  1.0790 -1.2856
   74MOL    H1016216   6.678   7.550   4.631  0.3651  0.7199 -0.3618
   74MOL    H1116217   6.738   7.673   4.528 -0.1014  0.6493  2.1911
   74MOL    H1216218   6.771   7.389   4.422  0.2156  0.4211 -1.4011
   74MOL    C1316219   6.895   7.539   4.601 -0.1948  1.1733  0.7442
   74MOL    C1416220   6.903   7.539   4.758  0.0806  0.3214 -0.1792
   74MOL    O1516221   6.974   7.456   4.817 -0.2346 -0.2216  0.0335
   74MOL    C1616222   6.822   7.636   4.844  0.5945  0.6314 -0.3699
   74MOL    C1716223   7.006   7.619   4.532  0.2764  0.3959  0.1501
   74MOL    H1816224   6.927   7.436   4.583 -0.8400  0.6630  2.4351
   74MOL    H1916225   6.876   7.669   4.933  1.5664  0.9942 -1.0847
   74MOL    H2016226   6.768   7.721   4.800 -0.3633  0.5367  0.5969
   74MOL    H2116227   6.734   7.579   4.871  0.4860  1.6398  1.4867
   74MOL    H2216228   7.005   7.721   4.572  0.0376  1.3022 -2.0976
   74MOL    H2316229   6.986   7.613   4.425  0.1019  0.3366  0.1850
   74MOL    C2416230   7.148   7.548   4.537 -0.1994  0.4727  0.4011
   74MOL    C2516231   7.264   7.652   4.534  0.1744  0.5189 -0.0187
   74MOL    O2616232   7.334   7.678   4.441 -0.1409 -0.6173 -0.1109
   74MOL    C2716233   7.278   7.736   4.666 -0.0524  0.1431  0.2569
   74MOL    C2816234   7.175   7.436   4.428  0.2225  0.4260 -0.1873
   74MOL    H2916235   7.163   7.498   4.632  0.8696 -1.7101 -0.8612
   74MOL    H3016236   7.342   7.678   4.732 -0.0047 -1.0757 -0.8270
   74MOL    H3116237   7.316   7.837   4.654 -2.2937  1.2122  1.8913
   74MOL    H3216238   7.181   7.758   4.710 -0.0346 -0.3081  0.5235
   74MOL    H3316239   7.180   7.492   4.334 -0.0709  1.4699  0.4023
   74MOL    H3416240   7.088   7.370   4.427  1.0156 -0.6342  0.4763
   74MOL    C3516241   7.297   7.354   4.456  0.3946  0.3060  0.3023
   74MOL    C3616242   7.325   7.281   4.321 -0.5477  0.4236 -0.2466
   74MOL    O3716243   7.246   7.197   4.278  0.1210  0.0852  0.3994
   74MOL    C3816244   7.459   7.322   4.253  0.1671 -0.7946  0.4012
   74MOL    C3916245   7.283   7.265   4.580  0.7073  0.0784 -0.5112
   74MOL    H4016246   7.381   7.423   4.464 -1.3381  2.6300 -0.9107
   74MOL    H4116247   7.451   7.302   4.146 -1.9870 -0.8247  0.5408
   74MOL    H4216248   7.486   7.426   4.269 -0.5736 -0.3120 -1.3632
   74MOL    H4316249   7.543   7.267   4.295 -0.5314 -1.7446  0.5910
   74MOL    H4416250   7.254   7.164   4.551 -1.2914 -0.1137  1.9153
   74MOL    H4516251   7.195   7.292   4.639  1.7108  0.2434  0.9606
   74MOL    C4616252   7.405   7.248   4.678  0.0650  0.2253 -0.0820
   74MOL    C4716253   7.455   7.381   4.739 -0.4502 -0.0149 -0.5546
   74MOL    O4816254   7.536   7.453   4.686  0.3744  0.6782  0.3950
   74MOL    C4916255   7.397   7.422   4.871 -0.6509 -0.0898 -0.9644
   74MOL    C5016256   7.516   7.173   4.602 -0.2506  0.1941 -0.2736
   74MOL    H5116257   7.360   7.189   4.758 -0.5898  0.2084 -0.4566
   74MOL    H5216258   7.404   7.530   4.878  1.3295 -0.2604  0.1387
   74MOL    H5316259   7.291   7.403   4.880 -1.0512  2.3786 -0.1315
   74MOL    H5416260   7.454   7.381   4.955  0.5972 -0.0556 -1.7731
   74MOL    H5516261   7.548   7.231   4.516 -2.1911 -0.7355 -1.6685
   74MOL    H5616262   7.468   7.089   4.552  1.4916 -2.3927  2.2590
   74MOL    C5716263   7.636   7.104   4.688  1.2535  0.0437  0.1564
   74MOL    C5816264   7.742   7.201   4.750  0.6782 -0.1629  0.3644
   74MOL    O5916265   7.815   7.261   4.681  0.0186 -1.0093 -0.3048
   74MOL    C6016266   7.745   7.216   4.908  0.1193 -0.4366  0.2886
   74MOL    C6116267   7.704   7.003   4.596  0.1744 -0.3440  0.0411
   74MOL    H6216268   7.591   7.042   4.766 -0.8354 -0.7937 -1.6337
   74MOL    H6316269   0.001   7.228   4.954 -0.0415 -1.7908  1.0196
   74MOL    H6416270   7.703   7.314   4.929  1.1942  0.0205  0.3266
   74MOL    H6516271   7.689   7.144   4.968  1.5047  0.0626  2.1985
   74MOL    H6616272   7.773   7.048   4.525 -0.8525  0.0315 -0.7462
   74MOL    H6716273   7.630   6.964   4.525  0.1749 -0.4412  0.0920
   74MOL    C6816274   7.763   6.867   4.645 -0.2744  0.0646  0.4811
   74MOL    C6916275   7.653   6.763   4.678 -0.2310  0.5878  0.4011
   74MOL    O7016276   7.568   6.796   4.763  0.3207 -0.0348  0.2318
   74MOL    C7116277   7.661   6.621   4.617  0.2140 -0.0033  0.3487
   74MOL    C7216278   0.015   6.881   4.763  0.6025 -0.0894  0.2211
   74MOL    H7316279   7.815   6.830   4.556  1.5862 -0.1894  1.6674
   74MOL    H7416280   7.618   6.546   4.683  0.9577 -0.8002 -0.0602
   74MOL    H7516281   7.623   6.634   4.516 -0.6388  2.1416  0.9063
   74MOL    H7616282   7.762   6.592   4.587  0.8792 -1.1816  3.5320
   74MOL    H7716283   0.030   6.783   4.807 -0.0069 -0.1016  0.3967
   74MOL    H7816284   7.806   6.945   4.835  0.3195  0.7569 -0.7104
   74MOL    C7916285   0.154   6.947   4.719  0.1010  0.6047 -0.1958
   74MOL    C8016286   0.225   6.873   4.604  0.6771 -0.3341 -0.0905
   74MOL    O8116287   0.207   6.755   4.594 -0.7235  0.0834 -0.3491
   74MOL    C8216288   0.302   6.954   4.494  0.0425  0.4543  0.3986
   74MOL    C8316289   0.244   6.974   4.843 -0.0308  0.1146 -0.7628
   74MOL    H8416290   0.122   7.045   4.683 -1.8100  0.4312  0.9682
   74MOL    H8516291   0.237   7.011   4.427 -0.2361 -0.4473 -0.1014
   74MOL    H8616292   0.359   7.035   4.540  1.4609  0.9248 -2.1575
   74MOL    H8716293   0.372   6.892   4.438 -0.8314 -0.1244 -0.0619
   74MOL    H8816294   0.274   6.887   4.902 -0.8996  0.5209  0.3054
   74MOL    H8916295   0.185   7.042   4.905 -0.4129  1.6936 -2.8040
   74MOL    C9016296   0.373   7.059   4.810 -0.0103  0.4534  0.1553
   74MOL    C9116297   0.458   7.056   4.935  0.3610 -0.0076  0.5707
   74MOL    O9216298   0.467   7.144   5.013  0.1613  0.3846 -0.0139
   74MOL    C9316299   0.536   6.930   4.966 -0.5668  0.1484 -0.1655
   74MOL    C9416300   0.340   7.197   4.763  0.0432  0.3281 -0.5280
   74MOL    H9516301   0.426   6.991   4.744  1.4532  0.2400  1.5185
   74MOL    H9616302   0.483   6.876   5.045  0.8928 -0.4573  0.4142
   74MOL    H9716303   0.538   6.868   4.876  0.7262  0.9063 -0.6778
   74MOL    H9816304   0.636   6.941   5.007 -0.1338 -0.6759 -0.9740
   74MOL    H9916305   0.287   7.248   4.843  1.6440 -1.3993  1.7449
   74MOL   H10016306   0.268   7.190   4.682 -0.6867  2.2371 -0.0673
   74MOL   C10116307   0.448   7.301   4.729  0.0485 -0.6705  0.4004
   74MOL   C10216308   0.377   7.435   4.700  0.2916  0.0823  0.4123
   74MOL   O10316309   0.314   7.460   4.595  0.2183 -0.0331  0.1965
   74MOL   C10416310   0.397   7.544   4.807 -0.3391  0.3870  0.4191
   74MOL   C10516311   0.534   7.252   4.616 -0.3918 -0.7692  0.1882
   74MOL   H10616312   0.507   7.311   4.820 -1.7850  1.5022  1.3821
   74MOL   H10716313   0.372   7.638   4.758  0.9757  0.5156 -0.0284
   74MOL   H10816314   0.341   7.535   4.900 -0.1865 -0.9446  0.3809
   74MOL   H10916315   0.501   7.545   4.839 -0.2561 -1.3887  0.2123
   74MOL   H11016316   0.491   7.240   4.516  2.4041  0.9603 -1.2869
   74MOL   H11116317   0.552   7.146   4.636  2.5802  0.2604  3.3141
   74MOL   C11216318   0.668   7.330   4.613 -0.0957 -0.4555 -0.1344
   74MOL   C11316319   0.709   7.356   4.472  0.0416 -0.5356  0.5533
   74MOL   O11416320   0.810   7.304   4.425 -0.8007 -0.3640 -0.1127
   74MOL   C11516321   0.637   7.460   4.390 -0.0747 -0.1621  0.2682
   74MOL   C11616322   0.771   7.247   4.697  0.2987 -0.3068 -0.0649
   74MOL   H11716323   0.659   7.431   4.655  1.9472  0.3325 -1.4936
   74MOL   H11816324   0.538   7.478   4.432 -1.0443 -4.0901 -0.1369
   74MOL   H11916325   0.690   7.555   4.400 -1.1735  0.6020 -0.9931
   74MOL   H12016326   0.627   7.435   4.284  1.4218  1.7701 -0.3455
   74MOL   H12116327   0.870   7.278   4.663  0.0817  1.7895  1.0945
   74MOL   H12216328   0.759   7.142   4.671  0.1431  0.2546 -2.3461
   74MOL   C12316329   0.760   7.259   4.851 -0.3827  0.1549 -0.4333
   74MOL   C12416330   0.724   7.398   4.904 -0.4722  0.5842 -0.6542
   74MOL   O12516331   0.768   7.498   4.854 -0.1119 -0.2381  0.0835
   74MOL   C12616332   0.661   7.405   5.046 -0.0008  0.0622  0.4319
   74MOL   C12716333   0.885   7.198   4.923 -0.5373  0.0560 -0.0368
   74MOL   H12816334   0.680   7.186   4.862  1.5218 -2.1340 -1.2517
   74MOL   H12916335   0.722   7.441   5.129  0.4141 -1.4051  0.7639
   74MOL   H13016336   0.570   7.466   5.039 -0.6943 -0.9112  0.8286
   74MOL   H13116337   0.629   7.305   5.073  1.3652 -0.0293  1.7547
   74MOL   H13216338   0.890   7.090   4.904  1.1406 -0.1373  1.3612
   74MOL   H13316339   0.864   7.206   5.030  1.0692  1.2622  0.2101
   74MOL   C13416340   1.020   7.272   4.894  0.4403  0.8300  0.4107
   74MOL   C13516341   1.129   7.184   4.815 -0.0972  0.3147 -0.3196
   74MOL   O13616342   1.241   7.162   4.860  0.2304  0.2017  0.3017
   74MOL   C13716343   1.089   7.121   4.681 -0.3252 -0.5523  0.6020
   74MOL   C13816344   1.087   7.351   5.006  1.0027 -0.2092 -0.3593
   74MOL   H13916345   0.993   7.349   4.821  2.3623 -0.2906 -1.5676
   74MOL   H14016346   1.059   7.193   4.605 -1.5712 -0.8729  0.7735
   74MOL   H14116347   1.180   7.079   4.637  0.8176  1.9858  0.4822
   74MOL   H14216348   1.007   7.049   4.691 -3.1054  2.2171 -1.1677
   74MOL   H14316349   1.131   7.274   5.070  1.0337  0.4275  0.3833
   74MOL   H14416350   1.002   7.389   5.062 -0.4221 -0.0066 -2.5832
   74MOL   C14516351   1.188   7.467   4.979  0.0760  0.2778  0.1783
   74MOL   C14616352   1.249   7.521   5.110 -0.4843  0.3094 -0.2309
   74MOL   O14716353   1.179   7.528   5.214  0.3323  0.1583 -0.2345
   74MOL   C14816354   1.375   7.603   5.102 -0.2290  0.1976  0.6626
   74MOL   C14916355   1.128   7.588   4.897 -0.5933  0.2537 -0.8358
   74MOL   H15016356   1.268   7.415   4.928 -1.1789 -1.8639  0.3601
   74MOL   H15116357   1.428   7.591   5.197  2.5308  0.8254 -0.7517
   74MOL   H15216358   1.438   7.582   5.015  0.4270 -0.9932  1.4046
   74MOL   H15316359   1.357   7.709   5.115 -0.3010  0.3809 -0.8192
   74MOL   H15416360   1.165   7.689   4.914 -1.9532  0.4981  0.7311
   74MOL   H15516361   1.022   7.589   4.923 -0.8402 -0.6118 -1.7632
   74MOL   C15616362   1.147   7.574   4.739  0.6796  0.4765 -0.2065
   74MOL   C15716363   1.272   7.518   4.692  0.0937  0.8236  0.0545
   74MOL   O15816364   1.378   7.529   4.752 -0.3340 -0.5873 -0.3995
   74MOL   C15916365   1.243   7.436   4.564 -0.4677 -0.3440 -0.0693
   74MOL   C16016366   1.131   7.710   4.669  0.4203  0.2466  0.0339
   74MOL   H16116367   1.069   7.505   4.706  1.2087  1.1244 -2.8375
   74MOL   H16216368   1.255   7.328   4.573  2.1414 -0.2397 -1.7098
   74MOL   H16316369   1.144   7.466   4.531  1.0150  2.9625 -1.7718
   74MOL   H16416370   1.317   7.463   4.488  1.4785  0.8783  2.1775
   74MOL   H16516371   1.155   7.711   4.562  1.9301 -0.0572  0.3611
   74MOL   H16616372   1.206   7.778   4.708  0.0141 -0.4191  2.0086
   74MOL   C16716373   1.002   7.789   4.681 -0.4721  0.2037  0.0827
   74MOL   C16816374   0.892   7.730   4.592 -0.1779  0.5678  0.5604
   74MOL   O16916375   0.914   7.666   4.485 -0.2207 -0.3994 -0.2888
   74MOL   C17016376   0.747   7.750   4.649 -0.7043 -0.1460  0.4528
   74MOL   C17116377   1.021   0.093   4.649  0.3006 -0.3203  0.0039
   74MOL   H17216378   0.974   7.772   4.785 -0.3427 -0.6213 -0.0199
   74MOL   H17316379   0.748   7.775   4.755  0.7170 -1.1949  0.6838
   74MOL   H17416380   0.694   7.830   4.597 -0.7816 -0.0195  0.7204
   74MOL   H17516381   0.692   7.656   4.643  0.5460 -0.8755  0.2878
   74MOL   H17616382   0.926   0.141   4.627 -0.7134 -1.8213  1.0764
   74MOL   H17716383   1.076   0.095   4.555 -1.8569  3.2744 -1.3017
   74MOL   C17816384   1.098   0.176   4.760  0.2790 -1.1489  0.0848
   74MOL   C17916385   1.029   0.169   4.895 -0.0541 -0.3990  0.1190
   74MOL   O18016386   0.905   0.173   4.902  0.2331  0.4872  0.3460
   74MOL   C18116387   1.118   0.185   5.020 -0.2676 -0.3507 -0.8034
   74MOL   C18216388   1.099   0.324   4.723 -0.0967  0.2424  0.6715
   74MOL   H18316389   1.201   0.142   4.769  0.6146  0.1607  1.1827
   74MOL   H18416390   1.173   0.279   5.019 -1.0430  0.1071 -1.3172
   74MOL   H18516391   1.062   0.180   5.113 -1.9749 -1.9001 -1.8778
   74MOL   H18616392   1.184   0.098   5.017 -2.1402 -1.8079 -0.9281
   74MOL   H18716393   1.113   0.391   4.807 -2.2536  1.2023  0.3014
   74MOL   H18816394   1.006   0.369   4.690  0.5615  1.7748  0.8608
   74MOL   C18916395   1.211   0.360   4.618 -1.2408 -1.0518  0.5867
   74MOL   C19016396   1.352   0.352   4.670  0.1192 -0.4218  0.0150
   74MOL   O19116397   1.379   0.336   4.786  0.5461  0.2852  0.4269
   74MOL   C19216398   1.467   0.364   4.572 -0.7264 -0.1628  0.0573
   74MOL   C19316399   1.191   0.497   4.552  0.0469  0.3767  0.0965
   74MOL   H19416400   1.208   0.297   4.529  1.7990  0.5733 -0.7491
   74MOL   H19516401   1.489   0.471   4.565 -3.8278  0.4491 -0.8016
   74MOL   H19616402   1.562   0.312   4.586 -0.5266 -0.0799 -0.9725
   74MOL   H19716403   1.424   0.323   4.481 -1.3967  2.7014 -0.9839
   74MOL   H19816404   1.285   0.534   4.512  0.1254 -1.5429 -1.5933
   74MOL   H19916405   1.167   0.568   4.630  1.8885  0.4716  0.6041
   74MOL   C20016406   1.089   0.520   4.436 -0.8129  0.7585  0.1282
   74MOL   C20116407   0.951   0.535   4.496  0.0723 -0.0747  0.0011
   74MOL   O20216408   0.866   0.448   4.492 -0.3502 -0.1451 -0.3829
   74MOL   C20316409   0.917   0.656   4.583 -0.7092  0.8396  0.0432
   74MOL   C20416410   1.096   0.426   4.311 -0.4115  0.3346 -0.0633
   74MOL   H20516411   1.099   0.624   4.405  0.2038  0.6257  0.0132
   74MOL   H20616412   1.011   0.709   4.600  0.8581 -1.6563 -0.4988
   74MOL   H20716413   0.841   0.708   4.525 -0.0234  0.6830 -1.0112
   74MOL   H20816414   0.868   0.617   4.672 -0.1584  0.8943  0.3761
   74MOL   H20916415   1.061   0.326   4.338  0.3089  0.0657 -0.1107
   74MOL   H21016416   1.201   0.409   4.290 -0.5860 -0.5748 -0.2469
   74MOL   C21116417   1.018   0.459   4.187 -0.5085  1.0334  0.0239
   74MOL   C21216418   1.035   0.338   4.085  0.0103 -0.0002  0.2768
   74MOL   O21316419   0.950   0.251   4.065  0.5952  0.5919 -0.1372
   74MOL   C21416420   1.171   0.330   4.016 -0.6046 -0.1202  0.0392
   74MOL   C21516421   1.060   0.600   4.136  0.1475  0.2370 -1.5390
   74MOL   H21616422   0.912   0.473   4.207 -1.3370 -1.8445 -2.0665
   74MOL   H21716423   1.194   0.245   3.951 -0.1159  0.9724 -1.2315
   74MOL   H21816424   1.193   0.425   3.968  2.8463 -1.0455 -0.3713
   74MOL   H21916425   1.247   0.329   4.095 -1.5175 -0.5285  0.9217
   74MOL   H22016426   1.164   0.594   4.103  0.3730 -0.8184 -0.6515
   74MOL   H22116427   1.039   0.684   4.203 -0.3519 -0.0910 -1.2894
   74MOL   H22216428   0.995   0.614   4.050  0.0458  0.8338 -1.3665
   75MOL     C116429   4.367   5.495   0.748  0.0975  0.4108 -0.2294
   75MOL     C216430   4.405   5.568   0.618  0.3873 -0.1231 -0.5323
   75MOL     O316431   4.471   5.671   0.619 -0.1103 -0.0486  0.5808
   75MOL     C416432   4.368   5.505   0.482 -0.0996 -0.7093  0.3638
   75MOL     C516433   4.469   5.511   0.865  0.1807 -0.0052 -1.1725
   75MOL     H616434   4.274   5.537   0.785  0.1093 -1.3738  1.9297
   75MOL     H716435   4.428   5.557   0.407 -1.7344 -1.5759 -1.5796
   75MOL     H816436   4.383   5.397   0.483 -0.2234 -0.7226  1.4418
   75MOL     H916437   4.261   5.522   0.469 -0.2346 -0.4098  1.7780
   75MOL    H1016438   4.479   5.615   0.896  0.3659 -0.7716  1.3832
   75MOL    H1116439   4.573   5.496   0.834  0.2410 -1.2371 -0.4053
   75MOL    H1216440   4.351   5.393   0.714  1.0195  0.7744 -1.8031
   75MOL    C1316441   4.446   5.412   0.976 -0.3421 -0.0919 -0.6928
   75MOL    C1416442   4.311   5.436   1.051 -0.6056  0.8681 -0.0288
   75MOL    O1516443   4.290   5.508   1.149  0.5797  0.0151  0.0465
   75MOL    C1616444   4.191   5.364   0.994 -0.4992  0.4349 -0.1732
   75MOL    C1716445   4.566   5.412   1.071 -0.2110  0.3260 -0.2600
   75MOL    H1816446   4.441   5.319   0.918 -2.1045 -0.7635  0.4946
   75MOL    H1916447   4.196   5.296   0.909 -2.7562  2.8669 -2.3444
   75MOL    H2016448   4.142   5.312   1.076 -1.7301  0.2713 -1.0028
   75MOL    H2116449   4.121   5.440   0.959  2.2831  2.1066 -2.3891
   75MOL    H2216450   4.549   5.500   1.133  1.9220  0.2871  0.4347
   75MOL    H2316451   4.660   5.427   1.017 -0.1244  1.5885  0.2249
   75MOL    C2416452   4.587   5.296   1.173 -0.0392 -0.7877 -0.0511
   75MOL    C2516453   4.553   5.155   1.128  0.2468 -0.1002  0.1076
   75MOL    O2616454   4.448   5.124   1.070  0.3964  0.0278  0.5741
   75MOL    C2716455   4.649   5.043   1.161 -0.1897  0.5279  0.4833
   75MOL    C2816456   4.517   5.314   1.315  0.6234  0.5018 -0.6167
   75MOL    H2916457   4.695   5.292   1.181  0.0385 -0.5565 -0.9225
   75MOL    H3016458   4.723   5.071   1.236  1.6738  0.4599 -1.2903
   75MOL    H3116459   4.585   4.964   1.200  0.6743 -0.5987 -0.3781
   75MOL    H3216460   4.702   5.007   1.074 -2.0189 -3.4146  0.9193
   75MOL    H3316461   4.502   5.218   1.366 -2.5689  1.4257  0.2847
   75MOL    H3416462   4.418   5.351   1.289  0.4559 -0.5348 -1.4938
   75MOL    C3516463   4.585   5.406   1.419  1.4498  0.4755 -0.1109
   75MOL    C3616464   4.723   5.364   1.455  0.2974 -0.3866  0.5096
   75MOL    O3716465   4.761   5.250   1.427  0.9830 -0.5092 -0.0336
   75MOL    C3816466   4.822   5.468   1.502 -0.0585  0.7808 -0.1998
   75MOL    C3916467   4.498   5.415   1.548 -0.0517  0.9304 -0.5982
   75MOL    H4016468   4.623   5.500   1.378  0.6293  0.3881 -1.0756
   75MOL    H4116469   4.880   5.412   1.575 -0.3135 -0.5714 -1.0308
   75MOL    H4216470   4.893   5.511   1.431  1.4380 -1.7368 -0.2717
   75MOL    H4316471   4.768   5.547   1.555 -0.5160 -0.4796  1.2512
   75MOL    H4416472   4.551   5.467   1.628 -2.0535  2.0885  0.0267
   75MOL    H4516473   4.465   5.316   1.581  1.6606  0.4423 -0.3214
   75MOL    C4616474   4.374   5.500   1.523  0.1355  0.5451 -0.4641
   75MOL    C4716475   4.406   5.651   1.527 -0.5388 -0.5688  0.5404
   75MOL    O4816476   4.420   5.711   1.421 -0.3423 -0.3223  0.3706
   75MOL    C4916477   4.421   5.714   1.664  0.0970  0.1379 -0.4127
   75MOL    C5016478   4.257   5.456   1.620  0.1513  0.3113  0.7284
   75MOL    H5116479   4.344   5.472   1.422 -3.3851 -0.0350  0.6565
   75MOL    H5216480   4.447   5.820   1.660  0.2107  0.1325  0.3107
   75MOL    H5316481   4.323   5.697   1.709  1.0533 -1.0987  1.2513
   75MOL    H5416482   4.493   5.657   1.722  1.2347 -0.1236 -2.0445
   75MOL    H5516483   4.292   5.476   1.721 -0.5875 -1.4935  1.3577
   75MOL    H5616484   4.247   5.347   1.618 -2.0304  0.5047  0.0183
   75MOL    C5716485   4.118   5.509   1.585  0.0596  0.2925 -0.5627
   75MOL    C5816486   4.015   5.487   1.697  0.5911 -0.7653  0.4554
   75MOL    O5916487   4.040   5.402   1.787  0.5559  0.2510 -0.1682
   75MOL    C6016488   3.883   5.557   1.682 -0.1384  0.3560  0.2309
   75MOL    C6116489   4.065   5.459   1.450 -0.4852 -0.2204  0.1455
   75MOL    H6216490   4.122   5.618   1.588  0.6013  0.2522  1.0233
   75MOL    H6316491   3.802   5.498   1.637 -0.5767  0.9894  0.1759
   75MOL    H6416492   3.845   5.575   1.782  0.7429 -1.8043  0.9854
   75MOL    H6516493   3.896   5.651   1.629  2.0588 -0.5453 -0.9119
   75MOL    H6616494   4.142   5.469   1.374  0.7110 -2.9466  0.9501
   75MOL    H6716495   3.996   5.537   1.419 -2.8699 -2.1683  0.3688
   75MOL    C6816496   3.994   5.329   1.440  0.5602  0.7684  0.3561
   75MOL    C6916497   4.081   5.204   1.467  0.7727 -0.1435  0.0454
   75MOL    O7016498   4.062   5.124   1.551 -0.5215 -0.3507 -0.1969
   75MOL    C7116499   4.181   5.165   1.362 -0.5474  0.1539 -0.1974
   75MOL    C7216500   3.898   5.310   1.314  0.8074 -0.2463 -0.2813
   75MOL    H7316501   3.921   5.332   1.520 -0.7439 -0.8555 -0.7465
   75MOL    H7416502   4.136   5.091   1.296 -1.0674 -2.1457  2.6352
   75MOL    H7516503   4.194   5.252   1.298  2.0933 -0.2515 -0.2329
   75MOL    H7616504   4.280   5.141   1.401 -0.6190 -1.0735 -0.7469
   75MOL    H7716505   3.964   5.312   1.228 -0.6960 -1.8116 -1.5127
   75MOL    H7816506   3.848   5.407   1.309 -0.4343 -0.8477  0.1809
   75MOL    C7916507   3.796   5.191   1.319 -0.8925 -0.0484 -0.2362
   75MOL    C8016508   3.753   5.160   1.178  0.1035  0.0333 -0.7896
   75MOL    O8116509   3.729   5.247   1.101 -0.1846 -0.1960  0.0620
   75MOL    C8216510   3.748   5.008   1.128 -0.1701 -0.1106 -0.2720
   75MOL    C8316511   3.662   5.232   1.396 -0.2403 -0.5175 -0.3910
   75MOL    H8416512   3.845   5.107   1.368 -0.5891 -1.1514 -2.3601
   75MOL    H8516513   3.797   4.996   1.032  1.6460 -2.9047  0.9422
   75MOL    H8616514   3.798   4.942   1.199  1.0096 -0.5252 -1.4732
   75MOL    H8716515   3.644   4.975   1.119 -0.3014 -0.2861  1.5269
   75MOL    H8816516   3.604   5.307   1.342 -0.8736  0.4391  1.5489
   75MOL    H8916517   3.707   5.292   1.475  1.9702 -1.6009 -0.8020
   75MOL    C9016518   3.588   5.116   1.459  0.2643  0.5385 -0.4275
   75MOL    C9116519   3.462   5.087   1.377 -1.0728 -0.2562 -0.4983
   75MOL    O9216520   3.460   4.993   1.298 -0.0501  0.2592 -0.0866
   75MOL    C9316521   3.351   5.190   1.377  0.4659  0.4774 -0.4799
   75MOL    C9416522   3.566   5.149   1.609  0.1757  0.2994  0.0328
   75MOL    H9516523   3.651   5.027   1.447  0.4143  0.2045  2.5229
   75MOL    H9616524   3.363   5.252   1.466 -0.5032 -0.2875  0.2006
   75MOL    H9716525   3.377   5.259   1.296  1.4883  1.2337  0.4802
   75MOL    H9816526   3.252   5.146   1.368  0.7039 -0.1772  0.1062
   75MOL    H9916527   3.481   5.096   1.651 -0.1502 -0.7156 -1.8511
   75MOL   H10016528   3.539   5.254   1.625 -1.3334 -0.1861  0.7561
   75MOL   C10116529   3.705   5.124   1.675 -0.4548 -0.3394  0.3827
   75MOL   C10216530   3.718   4.975   1.718 -0.2192  0.7852  0.3257
   75MOL   O10316531   3.623   4.911   1.773 -0.3745  0.4650 -0.3280
   75MOL   C10416532   3.860   4.911   1.712 -0.1536 -0.2933  0.3366
   75MOL   C10516533   3.731   5.221   1.790 -0.3418 -0.1587 -0.1077
   75MOL   H10616534   3.794   5.133   1.613 -0.2919 -1.7647  0.3950
   75MOL   H10716535   3.878   4.887   1.607 -0.4708 -1.4369  0.5369
   75MOL   H10816536   3.934   4.978   1.755 -0.7959  0.5181  0.1719
   75MOL   H10916537   3.851   4.821   1.774  0.6104  0.1248  1.0626
   75MOL   H11016538   3.700   5.323   1.765 -1.3062  0.0342  1.7598
   75MOL   H11116539   3.840   5.224   1.797 -0.3370  0.8323 -0.5439
   75MOL   C11216540   3.665   5.203   1.935 -0.4153 -0.1381  0.1466
   75MOL   C11316541   3.511   5.185   1.925  0.2328 -0.5890 -0.0698
   75MOL   O11416542   3.442   5.254   1.853 -0.0003  1.0107  0.1878
   75MOL   C11516543   3.449   5.079   2.017 -0.1295 -0.2828  0.2021
   75MOL   C11616544   3.701   5.318   2.024 -0.5938 -0.0585  0.3497
   75MOL   H11716545   3.694   5.108   1.979 -1.0495 -0.8936 -1.0552
   75MOL   H11816546   3.463   4.978   1.979 -0.8342 -0.4038  0.2520
   75MOL   H11916547   3.502   5.077   2.113 -0.4567  0.8616  0.4139
   75MOL   H12016548   3.345   5.099   2.041  0.0380 -1.5822  2.1342
   75MOL   H12116549   3.621   5.315   2.099 -1.1897 -2.0785 -0.3169
   75MOL   H12216550   3.667   5.413   1.983  1.4593 -0.0312 -1.3385
   75MOL   C12316551   3.851   5.325   2.068  0.6190 -0.0755  0.9176
   75MOL   C12416552   3.877   5.224   2.179  0.0540 -0.8281 -0.0058
   75MOL   O12516553   3.882   5.242   2.302 -0.1922 -0.2956  0.3243
   75MOL   C12616554   3.912   5.082   2.132  0.3053 -0.3108  0.4682
   75MOL   C12716555   3.886   5.470   2.115  0.6879 -0.3285 -0.5633
   75MOL   H12816556   3.906   5.294   1.980  0.9737 -0.1544  1.1655
   75MOL   H12916557   3.897   5.053   2.028 -0.3833 -1.4798  0.8867
   75MOL   H13016558   4.017   5.060   2.152  0.5054 -0.1834 -0.3947
   75MOL   H13116559   3.854   5.011   2.191 -1.2971  0.0721 -0.6170
   75MOL   H13216560   3.807   5.501   2.183  1.0273 -3.1440  1.1611
   75MOL   H13316561   3.872   5.532   2.026  0.6801  0.2593 -0.1561
   75MOL   C13416562   4.024   5.497   2.180  0.0902 -0.7664 -0.0517
   75MOL   C13516563   4.018   5.636   2.248 -0.3585  0.9706  0.0606
   75MOL   O13616564   4.028   5.737   2.184 -0.5981 -0.6287 -0.5414
   75MOL   C13716565   4.011   5.640   2.401 -0.9572 -0.1705  0.2359
   75MOL   C13816566   4.136   5.493   2.081 -0.4247  0.3417  0.2389
   75MOL   H13916567   4.047   5.436   2.268  1.1055  2.3372  1.8940
   75MOL   H14016568   4.006   5.744   2.432  1.5446  0.7675 -2.3448
   75MOL   H14116569   3.918   5.591   2.430 -0.6598 -0.2995  0.9967
   75MOL   H14216570   4.086   5.596   2.467 -4.6390 -3.4933  2.4091
   75MOL   H14316571   4.111   5.568   2.007 -0.4511 -2.0483 -2.2398
   75MOL   H14416572   4.133   5.401   2.022  0.3454 -0.6271  1.6599
   75MOL   C14516573   4.279   5.519   2.129 -0.3175 -0.2397  0.5671
   75MOL   C14616574   4.344   5.634   2.051  0.4097 -0.0664  1.0447
   75MOL   O14716575   4.375   5.619   1.936 -0.3404 -0.0359 -0.4109
   75MOL   C14816576   4.363   5.768   2.119 -0.5192 -0.0470 -0.7615
   75MOL   C14916577   4.353   5.376   2.125 -1.0345 -0.1323 -0.2848
   75MOL   H15016578   4.272   5.563   2.229 -1.8180  0.8429 -0.0084
   75MOL   H15116579   4.389   5.843   2.044 -0.4768 -1.3677 -2.0904
   75MOL   H15216580   4.266   5.790   2.163 -0.5887  1.3438 -1.5635
   75MOL   H15316581   4.435   5.772   2.201 -0.7433  1.2587 -0.6091
   75MOL   H15416582   4.352   5.340   2.022 -3.7932 -0.7471 -0.0914
   75MOL   H15516583   4.284   5.303   2.168  1.2724 -1.9243  0.4484
   75MOL   C15616584   4.494   5.369   2.193  0.3373  0.0793 -0.6452
   75MOL   C15716585   4.489   5.400   2.343  0.0215  0.2074  0.6510
   75MOL   O15816586   4.531   5.504   2.394 -0.3722  0.3431  0.0449
   75MOL   C15916587   4.421   5.298   2.435  0.4571  0.4045 -0.2088
   75MOL   C16016588   4.603   5.447   2.115 -0.5364  0.8566 -0.0726
   75MOL   H16116589   4.514   5.262   2.185 -0.6844  0.0384 -3.1660
   75MOL   H16216590   4.479   5.273   2.524  0.3504  0.8264 -0.0232
   75MOL   H16316591   4.332   5.351   2.469  0.0667  0.0631 -0.6876
   75MOL   H16416592   4.395   5.202   2.389 -1.1176  1.6841 -2.0483
   75MOL   H16516593   4.620   5.547   2.154 -1.5996  0.8712  0.3614
   75MOL   H16616594   4.575   5.453   2.010 -1.5158  0.6542  0.1672
   75MOL   C16716595   4.748   5.380   2.103  0.2775 -0.0313 -0.3655
   75MOL   C16816596   4.757   5.249   2.021 -0.0944  0.2746  0.5911
   75MOL   O16916597   4.660   5.186   1.990  0.5055 -0.6710 -0.0026
   75MOL   C17016598   4.895   5.196   1.990 -0.0979 -0.1384 -0.1519
   75MOL   C17116599   4.829   5.379   2.233 -0.4167  0.1066 -1.1065
   75MOL   H17216600   4.800   5.456   2.045 -0.6573  0.9105  0.0172
   75MOL   H17316601   4.912   5.195   1.882 -1.2035 -0.1750 -0.3371
   75MOL   H17416602   4.974   5.257   2.032 -0.9857  1.2973 -0.5147
   75MOL   H17516603   4.915   5.099   2.033 -0.5816  0.1276  0.6769
   75MOL   H17616604   4.911   5.308   2.224  0.5177  1.4578 -3.6278
   75MOL   H17716605   4.755   5.332   2.299  0.9501 -1.6821 -0.8159
   75MOL   C17816606   4.880   5.510   2.301  0.0597 -0.4318 -0.3835
   75MOL   C17916607   4.975   5.586   2.207  0.2374 -0.3313 -0.4703
   75MOL   O18016608   5.040   5.527   2.127  0.1275  0.2018  0.4837
   75MOL   C18116609   4.990   5.732   2.238 -0.6942  0.4192 -0.5979
   75MOL   C18216610   4.953   5.478   2.433  0.1854  1.2001 -0.3897
   75MOL   H18316611   4.799   5.577   2.331 -1.0413  0.1180 -4.2475
   75MOL   H18416612   5.059   5.731   2.322 -0.6032 -2.6244 -0.6568
   75MOL   H18516613   5.046   5.779   2.158  2.1701 -1.5570  0.1858
   75MOL   H18616614   4.897   5.784   2.263 -0.1711  0.4227  1.4217
   75MOL   H18716615   5.015   5.560   2.470  2.3931 -0.1248 -1.0859
   75MOL   H18816616   5.026   5.399   2.414 -1.3684 -0.7150  1.4223
   75MOL   C18916617   4.865   5.422   2.556  0.0119  0.6936 -0.2738
   75MOL   C19016618   4.762   5.525   2.603  0.2938 -0.2831  0.4123
   75MOL   O19116619   4.764   5.647   2.572 -0.0113  0.0095 -0.3992
   75MOL   C19216620   4.651   5.468   2.691  0.1888 -0.4091  0.0925
   75MOL   C19316621   4.967   5.380   2.673 -0.7696 -0.2003 -0.0480
   75MOL   H19416622   4.811   5.332   2.525 -0.2562  1.0582 -0.8815
   75MOL   H19516623   4.551   5.482   2.650 -0.4867 -4.2522  0.2637
   75MOL   H19616624   4.667   5.362   2.713 -1.5082 -1.2891 -2.7157
   75MOL   H19716625   4.664   5.512   2.790 -0.7263 -0.7236  0.3565
   75MOL   H19816626   4.915   5.382   2.769 -2.8508  0.1861 -1.1676
   75MOL   H19916627   5.042   5.459   2.680 -0.9592  0.1501 -1.7988
   75MOL   C20016628   5.040   5.245   2.655 -0.4042  0.3639  0.1722
   75MOL   C20116629   4.957   5.122   2.690  0.1539 -0.7060  0.2416
   75MOL   O20216630   4.852   5.130   2.749  0.5215 -0.0441  0.5308
   75MOL   C20316631   5.019   4.993   2.651 -0.0257  0.1928  0.2048
   75MOL   C20416632   5.190   5.249   2.720  0.1444 -0.6419 -0.3293
   75MOL   H20516633   5.059   5.235   2.548 -2.2271 -2.1342  0.0179
   75MOL   H20616634   5.077   4.996   2.559  1.2300  2.0548  1.0324
   75MOL   H20716635   5.085   4.961   2.732 -0.1169 -1.2309 -0.2706
   75MOL   H20816636   4.942   4.918   2.632 -0.2567  0.1858  1.1536
   75MOL   H20916637   5.235   5.343   2.687 -1.6993  0.5108  0.3632
   75MOL   H21016638   5.247   5.173   2.667  1.3539  1.0224 -1.4627
   75MOL   C21116639   5.202   5.241   2.878 -0.5754 -0.0774 -0.0573
   75MOL   C21216640   5.163   5.380   2.934 -0.7089  0.0676  0.4068
   75MOL   O21316641   5.205   5.490   2.893  0.0741  0.0156 -0.0553
   75MOL   C21416642   5.089   5.373   3.068 -0.3609 -0.1400  0.1432
   75MOL   C21516643   5.343   5.189   2.932  1.3477 -0.2833  0.9910
   75MOL   H21616644   5.129   5.169   2.916  0.5078 -0.8746  0.5301
   75MOL   H21716645   4.985   5.345   3.054 -0.2011 -0.6774 -0.0170
   75MOL   H21816646   5.145   5.301   3.129  0.1090  2.1154  2.5036
   75MOL   H21916647   5.091   5.467   3.123  1.7838 -2.0910  3.6410
   75MOL   H22016648   5.338   5.154   3.035  2.9226 -1.0416  0.8237
   75MOL   H22116649   5.411   5.273   2.944  0.5725  0.1495  2.5709
   75MOL   H22216650   5.387   5.113   2.867 -0.1667 -2.4272  2.4038
   76MOL     C116651   0.973   0.577   5.183  0.1523 -0.1432 -0.2706
   76MOL     C216652   0.871   0.486   5.110 -0.5311 -0.3581  0.9698
   76MOL     O316653   0.826   0.521   5.005 -0.0892 -0.2014 -0.2453
   76MOL     C416654   0.812   0.366   5.182  0.3597  0.3154  0.7660
   76MOL     C516655   1.096   0.630   5.107  0.5938 -0.3669 -0.5634
   76MOL     H616656   0.911   0.660   5.218  0.7584  0.2963 -0.2337
   76MOL     H716657   0.879   0.282   5.160  3.3561  2.3090  1.8705
   76MOL     H816658   0.809   0.384   5.290  0.2922  0.6459  0.7083
   76MOL     H916659   0.710   0.353   5.147  1.0927 -0.4750 -1.0935
   76MOL    H1016660   1.119   0.725   5.154 -0.8933  1.4457 -3.3275
   76MOL    H1116661   1.067   0.664   5.007  1.3622 -0.1174 -0.7014
   76MOL    H1216662   1.004   0.516   5.268  1.9729  2.6995  1.1649
   76MOL    C1316663   1.232   0.556   5.106  0.0480 -0.1166  0.2598
   76MOL    C1416664   1.295   0.557   5.251 -0.6084  0.8417  0.3262
   76MOL    O1516665   1.383   0.638   5.275  0.2459 -0.0015 -0.1845
   76MOL    C1616666   1.261   0.442   5.347 -0.0216 -0.3954 -0.0418
   76MOL    C1716667   1.321   0.601   4.990 -0.2153  0.1208 -0.6961
   76MOL    H1816668   1.216   0.450   5.089 -0.1421  0.2887 -2.2614
   76MOL    H1916669   1.344   0.377   5.376 -0.9977 -1.1588  1.1000
   76MOL    H2016670   1.214   0.486   5.435 -0.4206  0.2643 -0.5828
   76MOL    H2116671   1.185   0.377   5.304  0.4530  0.7831 -2.7921
   76MOL    H2216672   1.282   0.559   4.898 -1.5716  0.8178 -0.4616
   76MOL    H2316673   1.408   0.536   5.002 -0.7773 -0.2446  1.6521
   76MOL    C2416674   1.371   0.750   4.973 -0.4998 -0.6993 -0.3770
   76MOL    C2516675   1.259   0.825   4.894 -0.1812  0.5225  0.2134
   76MOL    O2616676   1.233   0.790   4.779  0.3321 -0.4097  0.5403
   76MOL    C2716677   1.190   0.932   4.970 -0.3530 -0.1148  0.5736
   76MOL    C2816678   1.513   0.764   4.909 -0.3000 -0.9237  0.5000
   76MOL    H2916679   1.382   0.795   5.072 -0.4545  0.2469 -0.8047
   76MOL    H3016680   1.252   1.020   4.987  1.5846 -0.8423 -2.4164
   76MOL    H3116681   1.120   0.968   4.895  2.2304  1.5495 -1.0809
   76MOL    H3216682   1.142   0.884   5.056 -1.8824 -1.0269 -0.7405
   76MOL    H3316683   1.508   0.746   4.801  1.4655 -0.0185  0.2507
   76MOL    H3416684   1.573   0.681   4.946  2.8477  1.8490  1.8311
   76MOL    C3516685   1.587   0.897   4.915 -0.0449 -0.0439 -0.4829
   76MOL    C3616686   1.602   0.946   5.058 -0.0256 -0.2785  0.4927
   76MOL    O3716687   1.571   1.054   5.096  0.3946 -0.2842  0.1016
   76MOL    C3816688   1.662   0.855   5.166 -0.2860 -0.0146  0.2081
   76MOL    C3916689   1.534   1.011   4.821  0.1077  0.5614  0.9532
   76MOL    H4016690   1.688   0.870   4.883  0.4311  1.3447 -0.1776
   76MOL    H4116691   1.745   0.810   5.111 -0.1736 -0.8734  1.0545
   76MOL    H4216692   1.684   0.907   5.259  1.5331  1.4308 -1.0127
   76MOL    H4316693   1.598   0.769   5.185  0.7991 -0.7143  0.7539
   76MOL    H4416694   1.591   1.100   4.848  2.0748 -1.0668  2.2312
   76MOL    H4516695   1.433   1.041   4.848 -0.6159  0.0584 -1.0562
   76MOL    C4616696   1.552   0.977   4.670 -0.1499  0.6278  0.6747
   76MOL    C4716697   1.612   1.099   4.603  0.1553  0.2838  0.8008
   76MOL    O4816698   1.542   1.200   4.593 -0.5084  0.2021 -0.4570
   76MOL    C4916699   1.759   1.107   4.552  0.0180 -0.5182 -0.5126
   76MOL    C5016700   1.424   0.929   4.590 -0.0761 -0.5056  0.1165
   76MOL    H5116701   1.629   0.900   4.666  0.7683  1.4969  1.3057
   76MOL    H5216702   1.782   1.041   4.468  1.9508 -0.5396  0.0080
   76MOL    H5316703   1.782   1.212   4.535  2.3156 -0.5611  1.9758
   76MOL    H5416704   1.824   1.078   4.634  0.2438  0.4735 -0.3462
   76MOL    H5516705   1.347   1.003   4.612 -1.4561 -2.1532  1.0325
   76MOL    H5616706   1.396   0.831   4.629 -0.7159 -0.1335  0.6176
   76MOL    C5716707   1.431   0.902   4.438  0.7309  0.5355  0.8915
   76MOL    C5816708   1.302   0.928   4.367  0.2921 -0.4422 -0.9041
   76MOL    O5916709   1.219   0.841   4.343 -0.1709  0.3613  0.1163
   76MOL    C6016710   1.273   1.072   4.341 -0.2069  0.6009  0.2116
   76MOL    C6116711   1.489   0.765   4.399 -0.2141 -0.2371 -0.3076
   76MOL    H6216712   1.497   0.977   4.395 -0.1243 -0.1412 -1.7113
   76MOL    H6316713   1.219   1.080   4.246  0.2013 -0.4248 -0.1062
   76MOL    H6416714   1.217   1.116   4.424 -1.4785  0.5048 -0.5645
   76MOL    H6516715   1.368   1.124   4.333 -1.2940  2.3534 -2.2071
   76MOL    H6616716   1.426   0.682   4.430 -0.8027  0.5979  0.8038
   76MOL    H6716717   1.585   0.748   4.449 -0.5333  1.9528  1.1635
   76MOL    C6816718   1.522   0.749   4.243  0.4822 -0.7158 -0.8538
   76MOL    C6916719   1.502   0.606   4.191  0.2879  0.5206  0.1002
   76MOL    O7016720   1.514   0.509   4.262  0.5868 -0.0574 -0.3643
   76MOL    C7116721   1.457   0.590   4.044 -0.1021  0.6338  0.1078
   76MOL    C7216722   1.668   0.791   4.205 -0.3554  0.6121  0.0454
   76MOL    H7316723   1.448   0.814   4.194  0.0849  0.1304  0.8444
   76MOL    H7416724   1.538   0.617   3.975  1.0451 -1.1732  0.7201
   76MOL    H7516725   1.430   0.486   4.026 -0.3974  0.2675  2.5172
   76MOL    H7616726   1.362   0.642   4.027 -0.4341  0.5053  1.5604
   76MOL    H7716727   1.715   0.721   4.136  1.8600  1.0021  1.1347
   76MOL    H7816728   1.729   0.795   4.295  1.0742 -2.0673 -0.7422
   76MOL    C7916729   1.675   0.942   4.153 -0.4022 -0.3129 -0.3500
   76MOL    C8016730   1.584   0.981   4.035 -0.8965 -0.1176  0.7807
   76MOL    O8116731   1.558   0.909   3.940  0.1633  0.1357 -0.1802
   76MOL    C8216732   1.532   1.122   4.047 -0.0766 -0.1626 -0.4988
   76MOL    C8316733   1.821   0.998   4.115 -0.4569  0.1712 -0.0141
   76MOL    H8416734   1.645   1.000   4.240  1.2913  1.6481 -1.0431
   76MOL    H8516735   1.424   1.128   4.049 -0.1448 -1.1204 -0.8408
   76MOL    H8616736   1.570   1.167   4.139  2.3199 -2.5274 -0.2720
   76MOL    H8716737   1.566   1.180   3.961 -0.9881 -0.5884 -1.1586
   76MOL    H8816738   1.887   1.004   4.202 -1.0707  0.9310  0.4079
   76MOL    H8916739   1.817   1.101   4.081 -2.5176  0.3924  0.8390
   76MOL    C9016740   1.894   0.927   4.005 -0.4874  0.6155 -0.0353
   76MOL    C9116741   1.951   0.794   4.057  1.0350  0.2482 -0.4239
   76MOL    O9216742   2.020   0.786   4.157 -0.0882 -0.6353  0.2667
   76MOL    C9316743   1.921   0.663   3.982  0.8762 -0.2762 -0.1363
   76MOL    C9416744   2.013   1.013   3.945  0.1218  0.3109 -0.3651
   76MOL    H9516745   1.823   0.907   3.924  1.0973 -1.7151 -0.9425
   76MOL    H9616746   1.815   0.650   3.962  0.9023  1.2587 -1.3312
   76MOL    H9716747   1.983   0.665   3.892  0.8667 -3.4420 -0.2779
   76MOL    H9816748   1.952   0.578   4.043 -1.4717  0.0293  1.5658
   76MOL    H9916749   2.075   1.036   4.032 -0.9739  1.2775  0.1676
   76MOL   H10016750   1.966   1.110   3.930 -2.2215 -0.7178  0.2451
   76MOL   C10116751   2.091   0.974   3.814  0.0883 -0.0122 -0.4095
   76MOL   C10216752   1.996   0.963   3.692 -0.6634  0.0342 -0.0064
   76MOL   O10316753   1.990   0.868   3.611  0.1670  0.2738 -0.0243
   76MOL   C10416754   1.916   1.083   3.656 -0.3329  0.3081 -0.6623
   76MOL   C10516755   2.188   0.856   3.835 -0.3565 -0.0712  0.5913
   76MOL   H10616756   2.155   1.060   3.791  0.2147 -0.2854 -1.0804
   76MOL   H10716757   1.828   1.097   3.719 -2.3893 -0.9856 -3.1774
   76MOL   H10816758   1.976   1.172   3.638 -0.1861  0.1026 -1.1833
   76MOL   H10916759   1.871   1.077   3.556  0.6715 -0.1547 -1.0902
   76MOL   H11016760   2.130   0.765   3.848 -1.3301  0.6902  1.6474
   76MOL   H11116761   2.244   0.879   3.926  1.3339  0.7334 -0.6206
   76MOL   C11216762   2.283   0.839   3.713 -0.5775  0.1677  0.4712
   76MOL   C11316763   2.341   0.693   3.707  0.7466 -0.2311  0.2803
   76MOL   O11416764   2.451   0.663   3.762  1.2950 -0.8636 -0.2798
   76MOL   C11516765   2.249   0.578   3.675  0.3880 -0.5331  0.2312
   76MOL   C11616766   2.392   0.946   3.721 -0.3394 -0.4133  0.4097
   76MOL   H11716767   2.232   0.859   3.619 -1.8678 -0.2468  1.0731
   76MOL   H11816768   2.282   0.506   3.750 -1.1317 -0.9772  0.4897
   76MOL   H11916769   2.144   0.599   3.693 -0.4082 -2.3418 -1.9572
   76MOL   H12016770   2.255   0.532   3.576 -1.8049 -4.3960  1.8086
   76MOL   H12116771   2.469   0.909   3.788  1.7039  2.9969  0.0298
   76MOL   H12216772   2.363   1.037   3.772 -0.8360 -1.0705  1.3194
   76MOL   C12316773   2.448   0.992   3.590  0.1137  0.2449  0.1694
   76MOL   C12416774   2.338   1.061   3.519  0.1001 -0.3147 -0.8754
   76MOL   O12516775   2.305   1.171   3.548 -0.3870  0.4663  0.3326
   76MOL   C12616776   2.284   0.992   3.394  0.1067  0.1566  0.0594
   76MOL   C12716777   2.538   0.885   3.511 -0.1309 -0.6745  0.7545
   76MOL   H12816778   2.510   1.077   3.617  0.7078  0.1333 -0.8027
   76MOL   H12916779   2.237   1.070   3.334  1.1564  1.6096  1.0796
   76MOL   H13016780   2.360   0.958   3.323  1.5750  0.2797  1.5438
   76MOL   H13116781   2.219   0.905   3.401  0.2246  0.1022  0.4614
   76MOL   H13216782   2.565   0.927   3.414 -0.1386 -2.7523 -0.1630
   76MOL   H13316783   2.479   0.797   3.487 -2.6326  1.4895 -1.4075
   76MOL   C13416784   2.665   0.842   3.575 -0.8573  0.0543 -0.0562
   76MOL   C13516785   2.758   0.968   3.617  0.5804  0.2126 -0.1052
   76MOL   O13616786   2.823   1.024   3.534  0.8017 -0.1933 -0.3447
   76MOL   C13716787   2.765   1.014   3.764 -0.1810  0.5588 -0.6608
   76MOL   C13816788   2.745   0.761   3.477  0.3290  0.4228  0.1361
   76MOL   H13916789   2.639   0.777   3.659 -0.8955 -1.0698 -0.9268
   76MOL   H14016790   2.694   0.969   3.832  1.4980  0.0043  0.7712
   76MOL   H14116791   2.863   1.009   3.812  0.0746 -2.0847 -1.3865
   76MOL   H14216792   2.747   1.122   3.763  1.2581  0.8251 -0.0428
   76MOL   H14316793   2.849   0.768   3.508  0.5961 -1.2934 -0.3476
   76MOL   H14416794   2.744   0.802   3.376 -1.9649  0.6486  0.2300
   76MOL   C14516795   2.703   0.609   3.468  0.6549 -0.2963 -0.4255
   76MOL   C14616796   2.797   0.523   3.550  0.3070 -0.0838  0.3882
   76MOL   O14716797   2.911   0.492   3.508  0.0146  0.4170 -0.3366
   76MOL   C14816798   2.748   0.457   3.680 -0.1058  0.2019 -0.1760
   76MOL   C14916799   2.697   0.560   3.319  0.5968  0.4369 -0.0903
   76MOL   H15016800   2.604   0.589   3.510  0.1859  1.1490 -0.8058
   76MOL   H15116801   2.653   0.405   3.675  0.2334 -0.4026 -0.3781
   76MOL   H15216802   2.817   0.378   3.710  0.6408  1.1915  0.7908
   76MOL   H15316803   2.745   0.545   3.744 -0.3035  1.6268 -2.0906
   76MOL   H15416804   2.689   0.451   3.318  0.0669  0.4477  1.6857
   76MOL   H15516805   2.793   0.573   3.269  1.0158 -0.9079  0.3444
   76MOL   C15616806   2.578   0.607   3.228  0.0958 -0.1343  0.1980
   76MOL   C15716807   2.441   0.568   3.283 -0.2089  0.1572  1.2431
   76MOL   O15816808   2.360   0.657   3.303 -0.0228 -0.3422  0.3385
   76MOL   C15916809   2.399   0.421   3.306  0.7806  0.0061  0.1306
   76MOL   C16016810   2.604   0.544   3.084  0.3890 -0.4335 -0.7136
   76MOL   H16116811   2.584   0.714   3.210 -0.6273 -0.0163  0.6314
   76MOL   H16216812   2.301   0.399   3.262  1.7598 -1.1918 -1.4954
   76MOL   H16316813   2.466   0.346   3.265 -0.5148 -1.3578  0.4816
   76MOL   H16416814   2.403   0.420   3.415  1.0974 -0.5634  0.1167
   76MOL   H16516815   2.593   0.436   3.093 -1.4427 -0.0201  3.0791
   76MOL   H16616816   2.708   0.549   3.051  0.5720 -3.1505 -0.6929
   76MOL   C16716817   2.505   0.598   2.980 -0.3819  0.1767 -1.0699
   76MOL   C16816818   2.503   0.502   2.853  0.3204 -0.3339 -0.5700
   76MOL   O16916819   2.572   0.521   2.755 -0.4775  0.5977  0.0420
   76MOL   C17016820   2.423   0.375   2.864 -0.0374  0.2631 -0.2591
   76MOL   C17116821   2.549   0.745   2.942  1.1106 -0.1067  0.2593
   76MOL   H17216822   2.399   0.602   3.006  0.1370  0.9897  1.0613
   76MOL   H17316823   2.397   0.351   2.967  0.3948  0.3519 -0.1266
   76MOL   H17416824   2.344   0.378   2.790  0.4411  0.9058 -0.7561
   76MOL   H17516825   2.491   0.298   2.829 -0.6489 -0.4963  0.2223
   76MOL   H17616826   2.640   0.744   2.882 -1.8312 -0.7263 -4.4346
   76MOL   H17716827   2.575   0.792   3.037  0.1976  0.7740  0.0795
   76MOL   C17816828   2.441   0.839   2.865 -0.4473  0.2472  0.4384
   76MOL   C17916829   2.308   0.824   2.936  0.8485  0.0515  0.4143
   76MOL   O18016830   2.220   0.745   2.890  0.1847 -0.1010  0.0281
   76MOL   C18116831   2.286   0.904   3.062 -0.0200 -0.1493  0.2186
   76MOL   C18216832   2.429   0.816   2.716 -1.0096  0.4828  0.0204
   76MOL   H18316833   2.470   0.942   2.887  1.7729 -0.4810  1.1157
   76MOL   H18416834   2.193   0.960   3.048 -0.5829 -0.8147  1.2809
   76MOL   H18516835   2.278   0.839   3.149  1.0265  0.2046  0.5854
   76MOL   H18616836   2.366   0.973   3.088  0.7362 -1.0246  0.2083
   76MOL   H18716837   2.344   0.877   2.683 -2.2810 -0.5371  1.3281
   76MOL   H18816838   2.393   0.714   2.706 -2.0532  0.6344  1.9062
   76MOL   C18916839   2.559   0.849   2.635  0.5755 -0.1470  0.1625
   76MOL   C19016840   2.587   1.003   2.645 -0.6736  0.4884  1.5829
   76MOL   O19116841   2.512   1.094   2.607  0.0594  0.3400  0.3502
   76MOL   C19216842   2.722   1.046   2.697  0.0709  0.6011  0.1690
   76MOL   C19316843   2.550   0.797   2.494  0.1553  0.3186 -0.8591
   76MOL   H19416844   2.640   0.791   2.679  1.3648  0.6677 -0.2047
   76MOL   H19516845   2.711   1.064   2.803 -0.3781  0.8111  0.0866
   76MOL   H19616846   2.787   0.964   2.667 -1.9947 -0.1814 -2.3661
   76MOL   H19716847   2.758   1.136   2.646  1.2000 -1.4232 -2.7908
   76MOL   H19816848   2.460   0.845   2.455  0.1101  0.3379 -0.7331
   76MOL   H19916849   2.534   0.690   2.488 -0.2594  0.3589 -0.5115
   76MOL   C20016850   2.670   0.808   2.394  0.7773 -0.2228 -0.2671
   76MOL   C20116851   2.806   0.768   2.451 -1.2590 -0.5850 -0.0211
   76MOL   O20216852   2.897   0.850   2.451 -0.2870 -0.0343  0.4816
   76MOL   C20316853   2.817   0.622   2.506  0.0664  0.3673 -0.5328
   76MOL   C20416854   2.664   0.950   2.322  0.5236  0.3097  0.8408
   76MOL   H20516855   2.641   0.739   2.314 -1.7540 -1.2810  1.5105
   76MOL   H20616856   2.918   0.582   2.494  0.1786  1.3468 -3.2813
   76MOL   H20716857   2.785   0.607   2.609 -0.5485  1.6873 -0.5323
   76MOL   H20816858   2.757   0.551   2.448  0.4535 -0.3137 -0.1123
   76MOL   H20916859   2.704   1.033   2.381 -0.3522  1.4993 -0.2141
   76MOL   H21016860   2.560   0.982   2.316  0.2264 -0.6455  0.8681
   76MOL   C21116861   2.709   0.938   2.172 -0.2796 -0.8850 -0.2770
   76MOL   C21216862   2.751   1.069   2.107  0.0133  0.3232  0.4138
   76MOL   O21316863   2.710   1.175   2.160 -0.0118 -0.4112  0.8234
   76MOL   C21416864   2.830   1.072   1.979  0.9260 -0.6310 -0.1553
   76MOL   C21516865   2.599   0.865   2.098  0.8562  0.8916 -0.7010
   76MOL   H21616866   2.798   0.876   2.175  0.4042 -0.0207 -2.0821
   76MOL   H21716867   2.937   1.055   1.993  0.5951 -1.0809  1.9800
   76MOL   H21816868   2.783   1.003   1.909 -0.2498  1.0061 -0.9985
   76MOL   H21916869   2.828   1.174   1.942  0.4299  0.1671  2.0110
   76MOL   H22016870   2.619   0.852   1.992  1.8511  1.9097 -0.6579
   76MOL   H22116871   2.506   0.921   2.107 -0.6725 -1.5855 -0.5748
   76MOL   H22216872   2.577   0.764   2.131 -2.7632  1.9248  0.3032
   77MOL     C116873   7.757   4.551   1.486 -0.0437  0.4383  0.1568
   77MOL     C216874   0.049   4.473   1.502 -0.2403 -0.1653  0.4342
   77MOL     O316875   0.144   4.510   1.438 -0.3962  0.0428  0.6928
   77MOL     C416876   0.063   4.382   1.620  0.0707 -0.2185 -0.7920
   77MOL     C516877   7.740   4.623   1.352  0.4865 -0.0119  0.0297
   77MOL     H616878   7.677   4.478   1.496 -1.2841  1.8377  0.7983
   77MOL     H716879   0.111   4.439   1.699  1.2139  0.8081 -2.2141
   77MOL     H816880   7.810   4.340   1.653 -0.7332  1.5072 -0.8737
   77MOL     H916881   0.124   4.296   1.594  0.0418 -0.5850  0.3268
   77MOL    H1016882   7.729   4.555   1.268  0.6448 -4.2372  3.2498
   77MOL    H1116883   7.817   4.700   1.347  1.1456 -0.5611  1.4132
   77MOL    H1216884   7.753   4.618   1.573 -0.0821  0.6106  0.0240
   77MOL    C1316885   7.609   4.704   1.354  0.4625  0.0266  0.1500
   77MOL    C1416886   7.486   4.610   1.349 -0.4762  0.0712  0.0167
   77MOL    O1516887   7.417   4.599   1.252  0.5570 -0.1737 -0.5581
   77MOL    C1616888   7.444   4.534   1.479 -0.6759 -0.6219  0.4314
   77MOL    C1716889   7.606   4.798   1.232 -0.0250 -0.8910  0.0899
   77MOL    H1816890   7.598   4.749   1.452  1.0499 -2.0072  1.1789
   77MOL    H1916891   7.335   4.531   1.475 -0.8324  2.6937  0.4904
   77MOL    H2016892   7.487   4.434   1.478 -0.5709 -0.5763  0.2669
   77MOL    H2116893   7.469   4.597   1.565 -2.1642  0.0555  0.3810
   77MOL    H2216894   7.589   4.744   1.139  0.6795 -1.0154  0.0363
   77MOL    H2316895   7.707   4.839   1.226  0.2481 -1.5061  0.4595
   77MOL    C2416896   7.497   4.908   1.238  0.3314 -0.1174 -0.4379
   77MOL    C2516897   7.479   4.975   1.104  0.3682  0.3264 -0.0508
   77MOL    O2616898   7.369   4.993   1.054 -0.3311 -0.4292  0.4874
   77MOL    C2716899   7.605   5.030   1.047 -0.0917 -0.0334 -0.0189
   77MOL    C2816900   7.511   5.010   1.344 -0.2786 -0.6876  0.0334
   77MOL    H2916901   7.409   4.846   1.258  0.4289 -0.3808 -0.8094
   77MOL    H3016902   7.660   5.078   1.129 -0.9859  0.3221  0.3814
   77MOL    H3116903   7.674   4.961   0.999  0.3069  0.3829 -0.0422
   77MOL    H3216904   7.581   5.113   0.981  0.3672 -0.2111 -0.4125
   77MOL    H3316905   7.552   5.105   1.310 -1.0043 -0.5133 -0.3772
   77MOL    H3416906   7.594   4.984   1.409  0.5368 -0.3762 -0.8858
   77MOL    C3516907   7.391   5.045   1.424  0.1783 -1.0277 -0.7787
   77MOL    C3616908   7.368   4.921   1.518  0.5577 -0.5033 -0.2777
   77MOL    O3716909   7.307   4.820   1.484  0.5968  0.4047 -0.0794
   77MOL    C3816910   7.420   4.935   1.659  0.0561  0.8963  0.4032
   77MOL    C3916911   7.269   5.089   1.347  0.3846 -0.3643 -0.6165
   77MOL    H4016912   7.413   5.129   1.490 -0.6131 -0.5060 -1.1843
   77MOL    H4116913   7.524   4.903   1.655 -0.9000 -2.3314 -0.1939
   77MOL    H4216914   7.417   5.040   1.687 -0.0800  1.0469 -0.1719
   77MOL    H4316915   7.361   4.874   1.728  0.2258  0.0740 -0.1714
   77MOL    H4416916   7.223   5.000   1.303  0.8906 -0.2168 -1.4636
   77MOL    H4516917   7.299   5.149   1.261 -0.3435 -1.2963 -1.5279
   77MOL    C4616918   7.155   5.177   1.428 -0.2381  0.7758  0.4220
   77MOL    C4716919   7.213   5.297   1.503  0.1385  0.0720 -0.4477
   77MOL    O4816920   7.266   5.287   1.615 -0.1473 -0.2005 -0.1472
   77MOL    C4916921   7.212   5.434   1.432 -0.4697 -0.2154 -0.5545
   77MOL    C5016922   7.072   5.091   1.519  0.1082 -0.6443 -0.1014
   77MOL    H5116923   7.102   5.230   1.350 -0.5447  0.5395  0.4676
   77MOL    H5216924   7.268   5.416   1.341 -1.4600 -1.3838 -0.9419
   77MOL    H5316925   7.111   5.468   1.407 -0.2950  1.5197  0.9847
   77MOL    H5416926   7.262   5.507   1.496 -1.6971  0.5196 -0.4174
   77MOL    H5516927   7.128   5.084   1.613  0.5634 -0.7678 -0.3793
   77MOL    H5616928   7.061   4.990   1.480  0.6199 -0.1074 -1.6537
   77MOL    C5716929   6.932   5.154   1.547  0.0489 -0.6058  0.5124
   77MOL    C5816930   6.893   5.166   1.696  0.3908 -0.5253  0.2660
   77MOL    O5916931   6.814   5.090   1.748 -0.0398  0.3127  0.1187
   77MOL    C6016932   6.978   5.261   1.784  0.3160  0.7496 -0.3493
   77MOL    C6116933   6.819   5.081   1.465 -0.4132 -0.1884 -0.2974
   77MOL    H6216934   6.934   5.259   1.516  0.2824 -0.4935  0.9073
   77MOL    H6316935   6.918   5.311   1.860 -1.7070 -1.2336 -0.5986
   77MOL    H6416936   7.052   5.196   1.829 -1.8417 -0.9817  0.7706
   77MOL    H6516937   7.024   5.335   1.718  0.0244  0.3224 -1.0370
   77MOL    H6616938   6.719   5.104   1.505 -0.3944  0.9725 -0.8766
   77MOL    H6716939   6.828   4.974   1.478  2.2926 -0.0663 -1.0437
   77MOL    C6816940   6.812   5.114   1.319 -0.0984 -0.4832 -0.5904
   77MOL    C6916941   6.746   5.251   1.292 -0.3105  0.1625  0.1735
   77MOL    O7016942   6.636   5.289   1.343 -0.0337  0.9982 -0.0379
   77MOL    C7116943   6.820   5.351   1.209 -0.5101  0.5629 -0.2357
   77MOL    C7216944   6.743   4.998   1.241  0.3376 -0.1627 -0.4672
   77MOL    H7316945   6.914   5.119   1.281 -0.2775 -0.2777 -1.0525
   77MOL    H7416946   6.877   5.304   1.129  1.2246 -1.9587  2.3771
   77MOL    H7516947   6.754   5.430   1.174 -2.2846 -0.0463  1.6616
   77MOL    H7616948   6.897   5.399   1.269 -0.6672 -2.0770  2.1527
   77MOL    H7716949   6.641   4.986   1.276  0.6443  0.2723  0.5964
   77MOL    H7816950   6.794   4.915   1.291  0.9376  0.6622  0.3135
   77MOL    C7916951   6.751   4.975   1.085  0.6192  0.6070 -0.2462
   77MOL    C8016952   6.889   4.970   1.021 -0.3374  0.0009 -0.1834
   77MOL    O8116953   6.973   5.057   1.041  0.0610 -0.2827 -0.4624
   77MOL    C8216954   6.908   4.851   0.933 -0.3968 -0.0843 -0.3226
   77MOL    C8316955   6.648   5.058   1.000 -0.0507  0.4705  0.0668
   77MOL    H8416956   6.725   4.869   1.076  1.3027  0.0946  2.9266
   77MOL    H8516957   7.011   4.823   0.913 -0.0220  0.2203  1.1499
   77MOL    H8616958   6.858   4.760   0.965 -0.1800  0.3537  1.3148
   77MOL    H8716959   6.843   4.876   0.849 -0.7003 -0.7728 -0.3007
   77MOL    H8816960   6.668   5.049   0.893 -2.4905  3.5036 -0.7200
   77MOL    H8916961   6.668   5.163   1.024  0.1987 -0.1431  2.6794
   77MOL    C9016962   6.505   5.013   1.012  0.0855 -0.2596 -0.5443
   77MOL    C9116963   6.483   4.873   0.950 -0.3378 -0.2570  0.0591
   77MOL    O9216964   6.431   4.870   0.840 -0.3846 -0.3283 -0.0382
   77MOL    C9316965   6.512   4.746   1.030  0.3320  0.6552  0.9530
   77MOL    C9416966   6.424   5.128   0.944 -0.5894 -0.5926  0.0384
   77MOL    H9516967   6.480   5.001   1.117  0.6872  2.1596 -0.1128
   77MOL    H9616968   6.453   4.662   0.993 -0.7696  1.1574  1.5424
   77MOL    H9716969   6.615   4.714   1.013 -0.4007 -1.2075 -0.1291
   77MOL    H9816970   6.481   4.769   1.132 -0.9373 -2.6237  1.3782
   77MOL    H9916971   6.437   5.132   0.836  1.0492 -0.4533  0.2354
   77MOL   H10016972   6.469   5.221   0.979 -0.2161 -1.0665  0.8185
   77MOL   C10116973   6.272   5.123   0.970 -0.2986 -0.0460  1.2785
   77MOL   C10216974   6.212   5.228   0.880 -0.6419 -0.4292 -0.4811
   77MOL   O10316975   6.150   5.327   0.924 -0.0020 -0.3796  0.1045
   77MOL   C10416976   6.231   5.208   0.734  0.4932 -0.4355  0.2005
   77MOL   C10516977   6.232   5.140   1.117 -0.0029  0.2995  0.1437
   77MOL   H10616978   6.227   5.034   0.927 -1.3295 -0.3517  2.9454
   77MOL   H10716979   6.143   5.248   0.684  0.0895  0.5261  1.6586
   77MOL   H10816980   6.322   5.248   0.688 -0.4443  0.4651 -0.9030
   77MOL   H10916981   6.232   5.100   0.722 -0.5015 -0.2076 -2.1652
   77MOL   H11016982   6.285   5.229   1.150  0.7740  0.5517 -1.6810
   77MOL   H11116983   6.282   5.060   1.172  2.0222  0.7001 -1.0441
   77MOL   C11216984   6.081   5.155   1.157  0.3164 -0.0747 -0.1262
   77MOL   C11316985   6.069   5.250   1.281  0.4353 -0.5558 -0.0663
   77MOL   O11416986   6.041   5.209   1.395  0.1638 -0.2226 -0.0048
   77MOL   C11516987   6.090   5.393   1.261 -0.1258 -0.1893  0.4777
   77MOL   C11616988   5.994   5.027   1.157  0.2024 -0.4340 -0.2475
   77MOL   H11716989   6.027   5.207   1.078 -0.7574 -1.6478 -0.4591
   77MOL   H11816990   6.074   5.450   1.353 -0.3137  1.4928 -0.5638
   77MOL   H11916991   6.192   5.405   1.226  0.4000 -0.9645  1.7279
   77MOL   H12016992   6.032   5.428   1.175  3.1578 -0.5729 -1.9658
   77MOL   H12116993   5.987   4.977   1.061  2.3572 -0.5053 -0.3946
   77MOL   H12216994   5.896   5.070   1.176 -0.0531 -2.0918  2.4301
   77MOL   C12316995   6.031   4.920   1.268  0.0834  0.4905  0.4386
   77MOL   C12416996   6.156   4.839   1.226  0.1640 -0.4802 -0.2298
   77MOL   O12516997   6.180   4.803   1.113 -0.0033 -0.1706 -0.0164
   77MOL   C12616998   6.262   4.812   1.331  0.2141  0.0875  0.1700
   77MOL   C12716999   5.911   4.823   1.289 -0.2244 -0.4696  0.1718
   77MOL   H12817000   6.043   4.951   1.371  1.0469 -0.6865  0.6896
   77MOL   H12917001   6.243   4.860   1.427  1.4312  0.6326  0.1562
   77MOL   H13017002   6.280   4.705   1.342  0.8177  0.4847  3.5618
   77MOL   H13117003   6.353   4.851   1.286  0.7757 -1.4660 -0.0689
   77MOL   H13217004   5.935   4.744   1.360 -1.4647  0.3876  1.5748
   77MOL   H13317005   5.902   4.773   1.192 -0.1067 -1.3428  0.6057
   77MOL   C13417006   5.784   4.882   1.348  0.6923  0.1509  0.2423
   77MOL   C13517007   5.811   4.944   1.481  0.3656 -1.1058 -0.3192
   77MOL   O13617008   5.893   4.892   1.561 -0.3387 -0.0378  0.4363
   77MOL   C13717009   5.730   5.068   1.523  0.0084  0.0222  0.0900
   77MOL   C13817010   5.679   4.755   1.359 -0.0110 -0.0879  0.8719
   77MOL   H13917011   5.743   4.960   1.283  0.0638 -0.1527  0.2640
   77MOL   H14017012   5.748   5.154   1.458  0.6285 -1.2655 -1.4681
   77MOL   H14117013   5.623   5.046   1.520 -0.1514  0.9619 -1.3765
   77MOL   H14217014   5.757   5.081   1.628  1.8334  0.0920 -0.3720
   77MOL   H14317015   5.667   4.712   1.458 -0.1738  2.0093  1.7964
   77MOL   H14417016   5.721   4.670   1.306  0.0675 -1.2125  2.7077
   77MOL   C14517017   5.544   4.772   1.281 -0.1434 -0.0234 -0.0780
   77MOL   C14617018   5.567   4.785   1.131 -0.5760  0.5642 -0.1465
   77MOL   O14717019   5.532   4.893   1.078  0.6537 -0.5286 -0.3310
   77MOL   C14817020   5.614   4.666   1.047 -0.3108  0.4132 -0.3477
   77MOL   C14917021   5.467   4.889   1.346  0.3722  0.5542 -0.8936
   77MOL   H15017022   5.498   4.675   1.298  1.1370 -0.7664 -0.8002
   77MOL   H15117023   5.722   4.663   1.032 -0.5496 -3.2064 -1.8573
   77MOL   H15217024   5.587   4.578   1.104  0.3727  0.4246 -0.0054
   77MOL   H15317025   5.572   4.652   0.947 -3.0439 -0.5192  0.8870
   77MOL   H15417026   5.496   4.982   1.298 -2.9603  3.0590  1.6437
   77MOL   H15517027   5.498   4.907   1.449  2.2963  1.4340 -1.6003
   77MOL   C15617028   5.311   4.869   1.334  0.4857 -0.2849 -0.2732
   77MOL   C15717029   5.246   5.006   1.339  0.1770  0.3420 -0.9010
   77MOL   O15817030   5.293   5.096   1.402  0.2584 -0.8323  0.0331
   77MOL   C15917031   5.109   5.024   1.257 -0.7960 -0.1953 -0.1316
   77MOL   C16017032   5.251   4.757   1.423  0.0202 -0.0207 -0.4467
   77MOL   H16117033   5.297   4.833   1.233  0.5528 -0.5680 -0.1827
   77MOL   H16217034   5.045   5.101   1.299  1.4843  1.7550 -0.1417
   77MOL   H16317035   5.129   5.048   1.153  1.2902 -0.7525  0.1101
   77MOL   H16417036   5.052   4.931   1.252 -0.9574 -0.0939 -0.1440
   77MOL   H16517037   5.318   4.671   1.416  1.0930  0.6297  1.3068
   77MOL   H16617038   5.153   4.735   1.382 -0.4477 -2.0859  1.6757
   77MOL   C16717039   5.229   4.797   1.574 -0.3753  0.5907  0.5264
   77MOL   C16817040   5.368   4.791   1.655  0.4093 -0.0943  0.4486
   77MOL   O16917041   5.433   4.686   1.672  0.2772 -0.3884  0.4011
   77MOL   C17017042   5.402   4.918   1.726  0.1424 -0.3818  0.1075
   77MOL   C17117043   5.116   4.720   1.654  0.2413  0.6297  0.5474
   77MOL   H17217044   5.216   4.905   1.573  2.6912  1.0235  0.7772
   77MOL   H17317045   5.470   4.983   1.672 -0.4237 -0.1773 -0.3674
   77MOL   H17417046   5.316   4.973   1.765 -1.7469 -2.7647 -0.5084
   77MOL   H17517047   5.468   4.883   1.805  0.2262  0.1057  0.2539
   77MOL   H17617048   5.146   4.698   1.756 -0.3849  1.4825  0.9301
   77MOL   H17717049   5.110   4.621   1.608  0.4599  0.4508  0.9016
   77MOL   C17817050   4.975   4.773   1.627  0.8816  0.1255  0.1835
   77MOL   C17917051   4.951   4.895   1.715  0.1336 -0.2376  0.3035
   77MOL   O18017052   4.897   4.890   1.827 -0.5195 -0.2198  0.1785
   77MOL   C18117053   5.002   5.022   1.663 -0.5685 -0.4886 -0.0384
   77MOL   C18217054   4.853   4.673   1.638  0.3112  0.1245  0.7228
   77MOL   H18317055   4.971   4.807   1.524 -3.4395  1.4772  0.6822
   77MOL   H18417056   4.970   5.109   1.720 -1.6674 -0.3672 -0.8247
   77MOL   H18517057   5.111   5.020   1.662 -0.4877  2.6842 -2.1034
   77MOL   H18617058   4.959   5.033   1.563  1.2318 -1.2662 -0.9209
   77MOL   H18717059   4.846   4.636   1.741 -0.7248 -1.3478  0.1480
   77MOL   H18817060   4.878   4.576   1.593  0.2548 -0.8123  2.6599
   77MOL   C18917061   4.710   4.706   1.570  0.0814 -0.1253  0.8973
   77MOL   C19017062   4.737   4.744   1.423 -0.3186 -0.1604 -0.5034
   77MOL   O19117063   4.764   4.856   1.383  0.0219  0.0053  0.0108
   77MOL   C19217064   4.751   4.630   1.325 -1.4442  0.0648  0.0794
   77MOL   C19317065   4.629   4.806   1.651 -0.1786  0.4504 -0.0487
   77MOL   H19417066   4.661   4.609   1.558  0.8596 -0.3742 -0.3532
   77MOL   H19517067   4.842   4.651   1.269 -0.3763  0.3755  1.8812
   77MOL   H19617068   4.751   4.529   1.366 -3.2708  0.9509  2.3369
   77MOL   H19717069   4.664   4.644   1.260 -0.8520  0.3689 -0.6486
   77MOL   H19817070   4.659   4.908   1.629  1.8731 -0.1950 -0.3237
   77MOL   H19917071   4.668   4.790   1.751  0.7845  0.1648 -0.4697
   77MOL   C20017072   4.469   4.792   1.649  0.0806 -0.4017  0.2441
   77MOL   C20117073   4.419   4.853   1.522 -0.2016  0.0277  0.6028
   77MOL   O20217074   4.444   4.976   1.499 -0.1104 -0.0350 -0.7108
   77MOL   C20317075   4.340   4.780   1.413  0.0939  0.2645 -0.2289
   77MOL   C20417076   4.407   4.862   1.771  0.2797 -1.0266  0.0970
   77MOL   H20517077   4.435   4.688   1.651  0.3232 -0.4773  0.5529
   77MOL   H20617078   4.358   4.827   1.316 -0.0240 -0.0130 -0.3859
   77MOL   H20717079   4.363   4.674   1.401  4.1176  0.7086  2.6203
   77MOL   H20817080   4.235   4.801   1.431  0.1448 -0.2147  0.6461
   77MOL   H20917081   4.438   4.967   1.766 -1.4167 -0.3257  2.8050
   77MOL   H21017082   4.457   4.811   1.854 -3.6555 -1.5265  2.2842
   77MOL   C21117083   4.251   4.868   1.773  0.0043  0.7075 -0.2037
   77MOL   C21217084   4.214   4.959   1.890  0.1745  0.9405 -0.4317
   77MOL   O21317085   4.183   4.916   2.007  0.0229  0.2067 -1.0699
   77MOL   C21417086   4.192   5.109   1.865  1.1037  0.0648 -0.6640
   77MOL   C21517087   4.192   4.725   1.788 -0.7178  0.0630  0.1411
   77MOL   H21617088   4.227   4.899   1.671  0.8773 -1.4524 -1.0908
   77MOL   H21717089   4.243   5.160   1.947  0.2547  0.7576 -0.5648
   77MOL   H21817090   4.236   5.139   1.770  1.2706 -0.1151 -0.6434
   77MOL   H21917091   4.090   5.142   1.886  1.2881 -0.2536  0.7936
   77MOL   H22017092   4.096   4.738   1.839 -1.3545 -1.5032 -0.6014
   77MOL   H22117093   4.246   4.659   1.856  0.6600 -1.1533 -2.0837
   77MOL   H22217094   4.180   4.672   1.693  1.2163  0.2961 -0.2511
   78MOL     C117095   2.226   1.416   3.771 -0.4535  0.4843  0.4326
   78MOL     C217096   2.242   1.310   3.880 -0.3401  0.1135  0.3038
   78MOL     O317097   2.148   1.266   3.943 -0.4463  0.5293 -0.1213
   78MOL     C417098   2.389   1.260   3.904 -0.4129  0.0593 -0.1957
   78MOL     C517099   2.087   1.463   3.750  1.0595  0.2087 -0.8563
   78MOL     H617100   2.281   1.503   3.808  1.8159 -0.2584 -1.1114
   78MOL     H717101   2.390   1.160   3.948 -0.9019 -0.1044 -0.5543
   78MOL     H817102   2.440   1.260   3.807  0.5681  0.4014  0.3105
   78MOL     H917103   2.435   1.333   3.970 -1.6057 -1.4452  2.3796
   78MOL    H1017104   2.051   1.498   3.847 -0.1232 -1.2979 -0.7296
   78MOL    H1117105   2.022   1.377   3.731 -0.2555  1.1973 -0.9346
   78MOL    H1217106   2.268   1.384   3.676 -2.4332 -1.3569  0.1327
   78MOL    C1317107   2.058   1.580   3.655  0.6283  0.0281  0.2444
   78MOL    C1417108   2.101   1.718   3.701 -0.4811 -0.1438 -0.1948
   78MOL    O1517109   2.119   1.746   3.821  0.2461 -0.1154  0.0462
   78MOL    C1617110   2.146   1.813   3.594 -0.1105  0.0703 -0.8721
   78MOL    C1717111   1.904   1.582   3.615 -0.2297  0.2644 -0.6096
   78MOL    H1817112   2.121   1.563   3.568 -1.4765 -0.7098 -1.1874
   78MOL    H1917113   2.216   1.763   3.527  0.8030  0.3246 -0.1169
   78MOL    H2017114   2.051   1.846   3.550 -0.8704 -2.1864 -0.9519
   78MOL    H2117115   2.188   1.897   3.650 -0.6563 -1.9381  2.6566
   78MOL    H2217116   1.887   1.676   3.564  2.0149  0.0629 -1.7972
   78MOL    H2317117   1.843   1.593   3.705 -0.5141  0.6931 -0.8534
   78MOL    C2417118   1.837   1.471   3.535 -0.8455  0.1028 -0.0124
   78MOL    C2517119   1.921   1.438   3.405  0.2466 -0.3766 -0.5796
   78MOL    O2617120   1.965   1.529   3.334 -0.6148  0.4340 -0.0283
   78MOL    C2717121   1.964   1.296   3.374  0.1093 -0.5298 -0.7914
   78MOL    C2817122   1.688   1.509   3.516  0.0433 -0.3352 -0.0235
   78MOL    H2917123   1.848   1.382   3.598 -0.1326  0.5240  0.4572
   78MOL    H3017124   1.901   1.224   3.426  0.7028  0.7740  1.8287
   78MOL    H3117125   1.966   1.295   3.265 -2.1896 -1.2954 -0.8634
   78MOL    H3217126   2.064   1.270   3.409 -0.6652 -1.6853  0.6387
   78MOL    H3317127   1.663   1.467   3.419 -0.8090 -1.4219  0.6656
   78MOL    H3417128   1.676   1.617   3.523  0.2912 -0.4817  4.0262
   78MOL    C3517129   1.584   1.447   3.616  0.5672  0.1497 -0.5656
   78MOL    C3617130   1.586   1.293   3.611  0.3035 -0.3452 -0.1389
   78MOL    O3717131   1.654   1.239   3.697 -0.0990  0.5581 -0.4511
   78MOL    C3817132   1.510   1.226   3.498 -0.3033  0.0750 -0.2465
   78MOL    C3917133   1.442   1.508   3.610 -0.0939  0.0261 -0.2111
   78MOL    H4017134   1.613   1.464   3.720 -0.5937 -0.6724 -0.0968
   78MOL    H4117135   1.459   1.294   3.429 -0.9052 -2.0114 -1.9332
   78MOL    H4217136   1.579   1.163   3.440  0.1016 -0.4800  0.8119
   78MOL    H4317137   1.432   1.161   3.538 -1.9924  0.4776 -2.7670
   78MOL    H4417138   1.396   1.512   3.512  1.1794 -1.4222 -0.8838
   78MOL    H4517139   1.465   1.613   3.629  0.6066  0.5393 -3.5658
   78MOL    C4617140   1.329   1.472   3.709 -0.3023  0.1434  0.4594
   78MOL    C4717141   1.356   1.515   3.850 -0.3745  0.0780 -0.1416
   78MOL    O4817142   1.417   1.437   3.924  0.5947 -0.9656  0.1417
   78MOL    C4917143   1.312   1.650   3.900  0.1460  0.0037  0.2235
   78MOL    C5017144   1.283   1.321   3.703  0.3698  0.7288  0.7581
   78MOL    H5117145   1.243   1.531   3.676  0.1813  1.0278  0.7696
   78MOL    H5217146   1.350   1.682   3.997 -0.2686  1.3254 -0.0369
   78MOL    H5317147   1.332   1.723   3.822  0.5431 -0.7190 -0.3635
   78MOL    H5417148   1.204   1.642   3.915  0.4108 -3.2591  0.8009
   78MOL    H5517149   1.350   1.239   3.729 -0.3461  0.7236  2.7228
   78MOL    H5617150   1.260   1.304   3.598  1.8017 -1.1295  0.7256
   78MOL    C5717151   1.150   1.293   3.776 -0.3552 -0.8647  0.4613
   78MOL    C5817152   1.126   1.142   3.788  0.5117 -0.3718 -0.8829
   78MOL    O5917153   1.092   1.070   3.690 -0.3849 -0.2709 -0.2224
   78MOL    C6017154   1.170   1.074   3.919  0.2140  0.4894 -0.4286
   78MOL    C6117155   1.026   1.358   3.700 -0.6036 -0.4541  0.0382
   78MOL    H6217156   1.153   1.331   3.878  0.8504  1.7191 -0.4977
   78MOL    H6317157   1.242   1.143   3.963 -0.8970  1.2560  0.1813
   78MOL    H6417158   1.094   1.030   3.983  0.4586  1.7941  0.7615
   78MOL    H6517159   1.222   0.986   3.880  1.4637  2.1539 -2.6639
   78MOL    H6617160   0.984   1.280   3.636 -2.1373 -0.5864  1.1670
   78MOL    H6717161   1.053   1.447   3.643 -0.2491 -0.5664  0.0292
   78MOL    C6817162   0.901   1.397   3.787 -0.3013  0.1986  0.3222
   78MOL    C6917163   0.927   1.534   3.861  0.0606 -0.0256 -0.2580
   78MOL    O7017164   0.973   1.529   3.966  0.2611  0.0783 -0.2871
   78MOL    C7117165   0.895   1.669   3.795  0.1695 -0.5130  0.1429
   78MOL    C7217166   0.851   1.282   3.875 -0.0668 -0.2156  0.8124
   78MOL    H7317167   0.826   1.421   3.712 -1.6544 -0.8751  1.3211
   78MOL    H7417168   0.797   1.705   3.827  0.3817  0.6563 -0.4855
   78MOL    H7517169   0.971   1.735   3.836  0.5645  0.2962 -1.8471
   78MOL    H7617170   0.918   1.673   3.689  1.7776 -0.5989  0.4674
   78MOL    H7717171   0.927   1.260   3.949  2.6208 -0.6526 -1.9556
   78MOL    H7817172   0.830   1.189   3.821 -0.5942 -0.5479  1.5735
   78MOL    C7917173   0.722   1.311   3.949  0.2295 -0.1883 -0.5070
   78MOL    C8017174   0.609   1.366   3.862  0.2458 -0.0685  0.0825
   78MOL    O8117175   0.565   1.480   3.876 -0.1775  0.0110 -0.0175
   78MOL    C8217176   0.547   1.283   3.757  0.5732 -0.1037 -0.2242
   78MOL    C8317177   0.729   1.384   4.086 -0.0428 -0.2234  0.4262
   78MOL    H8417178   0.689   1.213   3.984 -1.9497  0.1931 -1.3885
   78MOL    H8517179   0.509   1.192   3.803  1.1487 -0.3744 -0.2700
   78MOL    H8617180   0.473   1.338   3.699  0.4101 -1.2460 -1.1187
   78MOL    H8717181   0.625   1.248   3.688  2.5931  3.1015  0.3216
   78MOL    H8817182   0.633   1.384   4.138  0.0088  1.3986  0.5568
   78MOL    H8917183   0.749   1.490   4.073 -0.1554 -0.5255 -2.5582
   78MOL    C9017184   0.830   1.331   4.190 -0.4469 -0.1176  0.0578
   78MOL    C9117185   0.795   1.194   4.237  0.2518  0.6995  0.1666
   78MOL    O9217186   0.680   1.162   4.267 -0.1058  0.1128  0.4488
   78MOL    C9317187   0.905   1.083   4.245  0.2826 -0.0633 -0.1367
   78MOL    C9417188   0.835   1.434   4.303 -0.0188  0.6743 -0.6806
   78MOL    H9517189   0.925   1.330   4.137 -0.4694  3.2961 -0.1575
   78MOL    H9617190   0.915   1.036   4.147  0.2282 -0.9295  0.2667
   78MOL    H9717191   1.006   1.112   4.277  0.8710 -2.0782 -0.1165
   78MOL    H9817192   0.864   1.009   4.313  0.0319  0.4314  0.2510
   78MOL    H9917193   0.736   1.459   4.342 -0.2075 -2.6947  1.2554
   78MOL   H10017194   0.861   1.527   4.252 -0.7855  1.3868  0.2204
   78MOL   C10117195   0.953   1.407   4.403 -0.2174  0.0882  0.4918
   78MOL   C10217196   0.890   1.380   4.544  0.1872 -0.3810  0.2569
   78MOL   O10317197   0.859   1.473   4.621  0.0350 -0.3918  0.5297
   78MOL   C10417198   0.855   1.235   4.581  0.2884 -0.2817 -0.3805
   78MOL   C10517199   1.043   1.527   4.411 -0.1244 -0.8034  0.6494
   78MOL   H10617200   1.005   1.318   4.369 -1.2762  0.3459 -1.8855
   78MOL   H10717201   0.771   1.229   4.650  0.9580 -0.8930  0.3832
   78MOL   H10817202   0.822   1.175   4.496  1.7930 -1.8366  0.1113
   78MOL   H10917203   0.940   1.178   4.618 -1.2553 -1.8258  0.8573
   78MOL   H11017204   1.118   1.516   4.489 -0.5848  0.8304  1.3520
   78MOL   H11117205   0.977   1.608   4.442  0.5439 -1.1364  2.9984
   78MOL   C11217206   1.124   1.553   4.275  0.7489 -0.1960  0.2910
   78MOL   C11317207   1.210   1.440   4.250 -0.0928  0.4594  0.1599
   78MOL   O11417208   1.183   1.354   4.169 -0.6882 -0.0366  0.0466
   78MOL   C11517209   1.323   1.402   4.353  0.1232 -0.9174  0.3668
   78MOL   C11617210   1.203   1.689   4.277 -0.4971  0.5036  0.4263
   78MOL   H11717211   1.055   1.565   4.191  3.9977  2.5588 -2.1026
   78MOL   H11817212   1.387   1.344   4.286  0.9988  1.5501 -1.0220
   78MOL   H11917213   1.382   1.489   4.383 -0.3687 -0.8992  1.2987
   78MOL   H12017214   1.275   1.350   4.436 -0.4086 -0.2309  0.4907
   78MOL   H12117215   1.278   1.687   4.199 -1.2514 -2.0556 -0.3070
   78MOL   H12217216   1.260   1.686   4.370  1.3252 -1.3851 -0.7047
   78MOL   C12317217   1.115   1.816   4.277 -0.0481 -0.8419  0.1378
   78MOL   C12417218   1.047   1.835   4.143  0.1213  0.2904  0.1463
   78MOL   O12517219   1.103   1.843   4.032  0.1369 -0.3774  0.2113
   78MOL   C12617220   0.893   1.865   4.159  0.1634 -0.1392 -0.8650
   78MOL   C12717221   1.206   1.937   4.300  0.4409  0.7729 -0.6336
   78MOL   H12817222   1.041   1.803   4.355 -0.0067 -0.5647  0.2214
   78MOL   H12917223   0.845   1.842   4.064 -1.2709  0.5530 -0.3284
   78MOL   H13017224   0.837   1.813   4.237 -1.2381 -1.0454 -2.4372
   78MOL   H13117225   0.875   1.972   4.167  2.9037  0.3560 -1.0247
   78MOL   H13217226   1.163   2.037   4.291  1.6053  1.4970  1.4409
   78MOL   H13317227   1.277   1.930   4.217 -0.7948 -0.1123 -1.6415
   78MOL   C13417228   1.289   1.934   4.437 -0.4993  0.3870  0.2668
   78MOL   C13517229   1.202   1.909   4.567 -0.3822 -0.0852 -0.3022
   78MOL   O13617230   1.077   1.927   4.571 -0.7966 -0.4386 -0.3530
   78MOL   C13717231   1.269   1.848   4.690  1.0661 -0.1226  0.0466
   78MOL   C13817232   1.362   2.065   4.469  0.1816 -0.0071  0.4481
   78MOL   H13917233   1.363   1.854   4.432 -0.6150  0.4379 -3.0069
   78MOL   H14017234   1.288   1.744   4.666  1.1745  0.1565 -1.0961
   78MOL   H14117235   1.358   1.912   4.696  0.8660  0.1021  0.6485
   78MOL   H14217236   1.209   1.856   4.780 -0.1265  0.8191 -0.8174
   78MOL   H14317237   1.374   2.075   4.577 -1.5332 -1.3778  0.7974
   78MOL   H14417238   1.295   2.146   4.441  0.1584 -0.4992 -0.9480
   78MOL   C14517239   1.493   2.071   4.395  0.0163 -0.1019  0.4507
   78MOL   C14617240   1.592   2.155   4.471 -0.8081  0.7934 -0.0055
   78MOL   O14717241   1.553   2.262   4.527 -0.0011  0.3115  0.0264
   78MOL   C14817242   1.735   2.113   4.477 -0.8465  0.4456 -0.0728
   78MOL   C14917243   1.490   2.139   4.256  0.1998 -0.6568  0.0472
   78MOL   H15017244   1.535   1.971   4.381  0.5352  0.0663  0.7653
   78MOL   H15117245   1.770   2.103   4.580 -0.0442  0.5123 -0.3293
   78MOL   H15217246   1.751   2.009   4.447  0.0239  0.3852  0.5750
   78MOL   H15317247   1.803   2.178   4.422  0.9593 -1.1308  0.2332
   78MOL   H15417248   1.509   2.246   4.258 -1.2166 -0.2288 -4.4339
   78MOL   H15517249   1.386   2.137   4.222 -0.4894 -0.6646  2.0774
   78MOL   C15617250   1.587   2.075   4.154  0.0228 -0.3289  0.0720
   78MOL   C15717251   1.604   2.179   4.041  0.5679  0.1823  0.3284
   78MOL   O15817252   1.555   2.160   3.932  0.2986 -0.3580  0.4918
   78MOL   C15917253   1.689   2.304   4.068  0.2449 -0.1907 -0.5997
   78MOL   C16017254   1.558   1.928   4.097 -0.4311 -0.5893 -0.2128
   78MOL   H16117255   1.689   2.084   4.194  0.2841  1.4573 -0.9542
   78MOL   H16217256   1.624   2.381   4.109  1.1986  1.4621 -2.1285
   78MOL   H16317257   1.769   2.284   4.138 -0.1330  1.3253  0.2734
   78MOL   H16417258   1.727   2.343   3.973 -0.2910 -0.1963 -0.8201
   78MOL   H16517259   1.466   1.937   4.039 -1.8884 -2.6991  1.6888
   78MOL   H16617260   1.534   1.872   4.187 -2.3845 -0.5206 -0.6738
   78MOL   C16717261   1.678   1.849   4.035 -0.1501 -0.3020  0.7898
   78MOL   C16817262   1.660   1.857   3.877  0.4152  0.0771  0.0777
   78MOL   O16917263   1.591   1.778   3.813  0.1942  0.3001 -0.2738
   78MOL   C17017264   1.757   1.945   3.795  0.0298  0.5994 -0.1344
   78MOL   C17117265   1.669   1.700   4.068  0.1935 -0.2537 -0.3517
   78MOL   H17217266   1.774   1.894   4.063  0.4252 -0.7930 -0.3545
   78MOL   H17317267   1.809   1.880   3.724 -1.2249 -0.3168 -0.2509
   78MOL   H17417268   1.702   2.023   3.741  0.1567 -1.0551 -2.7501
   78MOL   H17517269   1.829   1.998   3.857  0.2402  1.4539 -1.0928
   78MOL   H17617270   1.572   1.661   4.038 -0.0779 -0.8845  1.2595
   78MOL   H17717271   1.673   1.698   4.177 -0.8726  0.4712 -0.2954
   78MOL   C17817272   1.787   1.608   4.028 -0.0685  0.6238  0.9017
   78MOL   C17917273   1.761   1.456   4.045 -0.0937  0.0029  0.3545
   78MOL   O18017274   1.693   1.415   4.136 -0.1858  0.0365  0.1650
   78MOL   C18117275   1.815   1.362   3.941  0.4117  0.1537 -0.5414
   78MOL   C18217276   1.925   1.645   4.089  0.0739  0.2924  0.1983
   78MOL   H18317277   1.792   1.616   3.919  3.7975 -1.1365  0.8760
   78MOL   H18417278   1.767   1.265   3.950 -2.6444  1.2937 -3.4481
   78MOL   H18517279   1.797   1.385   3.836 -0.5985 -0.5805 -0.5367
   78MOL   H18617280   1.922   1.340   3.939  0.2970 -1.1041  3.1027
   78MOL   H18717281   1.946   1.747   4.055 -3.1709  0.8852 -0.1498
   78MOL   H18817282   2.014   1.597   4.048  1.6007  3.2944 -0.1448
   78MOL   C18917283   1.931   1.638   4.245 -0.3346  0.0207  0.3113
   78MOL   C19017284   1.875   1.759   4.314  0.2353 -0.6967 -0.1671
   78MOL   O19117285   1.882   1.870   4.269  0.0512 -0.3788 -0.0293
   78MOL   C19217286   1.788   1.734   4.439  0.0157 -0.5489 -0.1628
   78MOL   C19317287   2.079   1.629   4.293 -0.0051  0.5018 -0.3292
   78MOL   H19417288   1.867   1.560   4.286 -2.0257  1.0178 -0.3748
   78MOL   H19517289   1.703   1.673   4.406 -2.8230  2.9249  0.3976
   78MOL   H19617290   1.843   1.674   4.511  0.7668  1.4619  0.9821
   78MOL   H19717291   1.751   1.824   4.488  1.0765  1.1753 -2.4481
   78MOL   H19817292   2.086   1.652   4.400  0.8386  0.5832 -0.4012
   78MOL   H19917293   2.139   1.698   4.234  2.4248  0.1504  1.6407
   78MOL   C20017294   2.145   1.492   4.286  0.4482 -0.1466 -0.1426
   78MOL   C20117295   2.048   1.390   4.343  0.2248 -0.4964 -1.0107
   78MOL   O20217296   2.013   1.385   4.462  0.0689  0.3165  0.8269
   78MOL   C20317297   1.981   1.298   4.243  1.0412  0.2342 -0.2733
   78MOL   C20417298   2.284   1.482   4.355 -0.0299 -0.6964 -0.4357
   78MOL   H20517299   2.163   1.461   4.183  1.0693  1.6295 -0.5936
   78MOL   H20617300   1.990   1.324   4.138  0.3669 -1.2538 -0.7131
   78MOL   H20717301   2.015   1.195   4.254  0.8307  0.2608  0.6697
   78MOL   H20817302   1.875   1.294   4.265  1.4357  1.9699  2.1957
   78MOL   H20917303   2.273   1.516   4.458  2.1180 -0.1474 -0.3732
   78MOL   H21017304   2.353   1.554   4.310  0.9151  0.1153  2.2208
   78MOL   C21117305   2.359   1.344   4.377 -0.1838  0.1007 -0.7026
   78MOL   C21217306   2.504   1.364   4.431  0.0228  0.3573  0.4456
   78MOL   O21317307   2.545   1.471   4.463  0.1538  0.3164  0.8965
   78MOL   C21417308   2.593   1.238   4.444 -0.1023 -0.1982  0.0739
   78MOL   C21517309   2.377   1.270   4.241 -0.6877 -0.7850  0.0452
   78MOL   H21617310   2.311   1.289   4.457  0.5355  0.2796 -0.1379
   78MOL   H21717311   2.678   1.268   4.505 -0.2959  1.5814 -0.5111
   78MOL   H21817312   2.529   1.157   4.479 -2.7723  0.7263 -2.4620
   78MOL   H21917313   2.643   1.207   4.353 -0.8438  1.2374 -0.8447
   78MOL   H22017314   2.400   1.165   4.260  0.5834 -0.4223  0.5447
   78MOL   H22117315   2.457   1.320   4.187  0.5652 -1.5524  1.1631
   78MOL   H22217316   2.285   1.270   4.183 -1.0993  3.8337  0.4837
   79MOL     C117317   4.986   6.979   2.428 -0.2225  0.1534 -0.2410
   79MOL     C217318   5.080   7.051   2.529 -0.7645 -0.2471  0.1880
   79MOL     O317319   5.056   7.164   2.567 -0.7956  0.0498 -0.1922
   79MOL     C417320   5.207   6.981   2.565 -0.5201  1.0884 -0.2636
   79MOL     C517321   4.839   7.033   2.441 -0.6228  0.5070 -0.0440
   79MOL     H617322   5.020   6.982   2.325  0.2382 -0.1328 -0.0969
   79MOL     H717323   5.271   6.946   2.485 -0.6266  0.6783 -0.1711
   79MOL     H817324   5.273   7.044   2.625 -0.7319 -0.2327  1.4075
   79MOL     H917325   5.175   6.896   2.625 -0.4017  1.5989  0.5304
   79MOL    H1017326   4.782   6.992   2.358 -0.4259  1.4850 -0.6642
   79MOL    H1117327   4.844   7.142   2.437  1.3702  0.4647  0.6797
   79MOL    H1217328   4.991   6.872   2.450  0.6803  0.2963  0.2609
   79MOL    C1317329   4.770   6.996   2.573  0.5974 -0.5182 -0.0023
   79MOL    C1417330   4.773   6.842   2.597 -0.0288 -0.0838 -0.0876
   79MOL    O1517331   4.853   6.791   2.678  0.4750  0.0216 -0.2540
   79MOL    C1617332   4.684   6.755   2.513 -0.1021  1.0157  0.0103
   79MOL    C1717333   4.626   7.056   2.567 -0.4639  0.2449  1.1791
   79MOL    H1817334   4.824   7.033   2.660 -1.5764 -0.9654  1.5776
   79MOL    H1917335   4.745   6.726   2.428 -0.9102 -0.8171  0.0361
   79MOL    H2017336   4.657   6.662   2.564  0.0760 -0.0444 -1.8167
   79MOL    H2117337   4.591   6.802   2.482 -1.1640 -1.3842 -0.5229
   79MOL    H2217338   4.558   6.984   2.613  0.4074 -1.0123  0.5528
   79MOL    H2317339   4.604   7.066   2.461  1.9506  2.4601  0.8477
   79MOL    C2417340   4.600   7.190   2.626  0.0744 -0.9012 -1.0838
   79MOL    C2517341   4.637   7.181   2.776  0.2142 -0.0136 -0.7209
   79MOL    O2617342   4.633   7.074   2.835 -0.8432  0.0648 -0.5024
   79MOL    C2717343   4.678   7.313   2.831  0.1901 -0.1860 -0.7121
   79MOL    C2817344   4.446   7.237   2.618 -0.0089  0.1772  1.0143
   79MOL    H2917345   4.664   7.266   2.581 -3.7204  2.3267 -1.3259
   79MOL    H3017346   4.606   7.325   2.911  1.1075 -0.9179  0.2429
   79MOL    H3117347   4.785   7.309   2.855  0.2116 -2.1764 -1.0418
   79MOL    H3217348   4.654   7.390   2.758 -1.7104  0.2751  0.3759
   79MOL    H3317349   4.424   7.320   2.685  1.5119  1.8939 -0.5252
   79MOL    H3417350   4.386   7.150   2.645  0.4305 -0.9365 -1.4139
   79MOL    C3517351   4.409   7.285   2.482  0.4206  0.0065  0.1469
   79MOL    C3617352   4.484   7.414   2.441  0.3439  0.3392 -0.6710
   79MOL    O3717353   4.486   7.509   2.516 -0.0635 -0.1130  0.5025
   79MOL    C3817354   4.556   7.411   2.306  0.2139  0.5163 -0.4722
   79MOL    C3917355   4.257   7.307   2.485 -0.2632 -0.0262  0.4923
   79MOL    H4017356   4.434   7.203   2.414  0.2354  0.2977 -0.2691
   79MOL    H4117357   4.493   7.451   2.227 -0.1700 -1.2982 -1.0996
   79MOL    H4217358   4.638   7.483   2.307  0.3279  0.3929 -0.9087
   79MOL    H4317359   4.596   7.313   2.282 -0.9893 -0.3908  1.1170
   79MOL    H4417360   4.226   7.376   2.563  0.4155 -0.8316  1.4825
   79MOL    H4517361   4.207   7.217   2.520 -1.7881 -0.0147 -1.5342
   79MOL    C4617362   4.186   7.360   2.347  0.8903  0.4726 -0.1154
   79MOL    C4717363   4.218   7.270   2.224  0.0481 -0.1992  0.3653
   79MOL    O4817364   4.279   7.315   2.131  0.3661 -0.3203 -0.0217
   79MOL    C4917365   4.170   7.126   2.227 -0.2529 -0.2619 -0.0076
   79MOL    C5017366   4.189   7.516   2.327 -1.0031 -0.7489 -0.5398
   79MOL    H5117367   4.079   7.341   2.357  0.7905  0.0985 -1.7973
   79MOL    H5217368   4.179   7.094   2.331 -2.1612  0.6720  0.4715
   79MOL    H5317369   4.062   7.131   2.211 -0.0660  2.0288 -0.8419
   79MOL    H5417370   4.218   7.054   2.161  1.6514  0.7548  0.2258
   79MOL    H5517371   4.256   7.544   2.246 -1.2162 -3.4911 -1.7114
   79MOL    H5617372   4.238   7.566   2.411 -0.3980  0.9106 -1.8517
   79MOL    C5717373   4.046   7.578   2.321 -0.0564 -0.1461 -0.6557
   79MOL    C5817374   3.971   7.573   2.467 -0.7877 -0.1688 -0.1019
   79MOL    O5917375   3.869   7.507   2.495 -0.2834 -0.6207  0.1903
   79MOL    C6017376   4.026   7.668   2.569  0.7099 -0.5088 -0.7468
   79MOL    C6117377   3.952   7.530   2.212  0.3997  1.1551  0.1582
   79MOL    H6217378   4.051   7.685   2.301  0.5534 -0.1013 -0.3046
   79MOL    H6317379   3.945   7.691   2.638  1.1404 -0.2333 -0.3378
   79MOL    H6417380   4.122   7.637   2.610 -0.0557 -1.4739  0.3422
   79MOL    H6517381   4.059   7.758   2.518  0.5476  1.8596  3.1692
   79MOL    H6617382   3.847   7.520   2.239 -0.1436  0.8079 -1.9946
   79MOL    H6717383   3.970   7.427   2.179 -2.4867  1.4914 -2.7783
   79MOL    C6817384   3.969   7.626   2.095 -0.0650 -0.1194  0.3995
   79MOL    C6917385   3.877   7.747   2.101  0.4316  0.1098  0.3532
   79MOL    O7017386   3.765   7.747   2.049 -0.3560  0.0022  0.1030
   79MOL    C7117387   3.925   0.031   2.166  0.1904 -0.2439 -0.0335
   79MOL    C7217388   3.951   7.562   1.951 -0.7953  0.3679  0.0563
   79MOL    H7317389   4.072   7.660   2.104  0.0370 -0.4555  0.5091
   79MOL    H7417390   3.857   0.114   2.148 -0.8143 -1.2057 -0.7682
   79MOL    H7517391   3.931   0.013   2.274 -0.9743 -1.0790 -0.0984
   79MOL    H7617392   4.024   0.059   2.131 -0.7245  1.3767 -1.3865
   79MOL    H7717393   3.909   7.629   1.876 -0.1511 -2.5413 -3.0153
   79MOL    H7817394   3.869   7.491   1.966  0.9082 -1.3246  1.5148
   79MOL    C7917395   4.077   7.499   1.880  0.6618 -0.1071 -0.4503
   79MOL    C8017396   4.187   7.605   1.865  0.3916 -0.1998 -0.1846
   79MOL    O8117397   4.181   7.697   1.784 -0.0407  0.2203 -0.3217
   79MOL    C8217398   4.308   7.589   1.958 -0.4611  0.6197  0.2476
   79MOL    C8317399   4.046   7.441   1.739  0.1875 -0.0057  0.0982
   79MOL    H8417400   4.112   7.417   1.943  0.2626 -1.1009 -1.5130
   79MOL    H8517401   4.384   7.661   1.927  0.1520 -0.6826 -1.3567
   79MOL    H8617402   4.284   7.621   2.059  1.3050  0.1995  0.8108
   79MOL    H8717403   4.350   7.488   1.958  1.3945  1.3454 -2.4116
   79MOL    H8817404   4.001   7.522   1.681  0.5112  0.7049  0.8193
   79MOL    H8917405   3.965   7.372   1.764  0.5268  0.0181  1.2931
   79MOL    C9017406   4.150   7.345   1.662 -0.1498 -0.1149  0.4132
   79MOL    C9117407   4.233   7.267   1.765  0.2163 -0.2366  0.2591
   79MOL    O9217408   4.356   7.263   1.756 -0.0929 -0.0671 -0.1109
   79MOL    C9317409   4.166   7.168   1.857 -0.2519  0.8275  0.2409
   79MOL    C9417410   4.235   7.413   1.557 -0.3427 -0.1642 -0.3620
   79MOL    H9517411   4.087   7.274   1.608  1.5717 -0.0680 -1.7580
   79MOL    H9617412   4.061   7.195   1.869 -0.2190  1.2433 -0.4125
   79MOL    H9717413   4.182   7.063   1.836  2.7250  0.9623  1.6363
   79MOL    H9817414   4.212   7.178   1.955  1.0149  0.9731 -0.3649
   79MOL    H9917415   4.318   7.354   1.518  0.2476 -0.5505  1.4416
   79MOL   H10017416   4.277   7.497   1.613 -1.4680  0.2027 -0.0666
   79MOL   C10117417   4.165   7.492   1.442 -0.0880  0.0076 -0.0425
   79MOL   C10217418   4.089   7.406   1.342  0.1183  0.0497  0.1770
   79MOL   O10317419   4.141   7.331   1.262  0.6078 -0.5019 -0.0525
   79MOL   C10417420   3.941   7.426   1.347 -0.0696  0.5160 -0.3067
   79MOL   C10517421   4.272   7.590   1.375 -0.5440 -0.0971  0.2203
   79MOL   H10617422   4.085   7.547   1.494 -0.3338 -0.4845  0.1005
   79MOL   H10717423   3.891   7.396   1.255  0.7260  1.0443 -0.9159
   79MOL   H10817424   3.901   7.373   1.433  0.0624 -0.3444 -0.7733
   79MOL   H10917425   3.918   7.530   1.371 -1.8812  0.0794 -0.0402
   79MOL   H11017426   4.258   7.602   1.267  1.5950 -1.3533 -0.2388
   79MOL   H11117427   4.369   7.540   1.379 -0.5483 -0.0788  0.5336
   79MOL   C11217428   4.285   7.730   1.437 -0.4859  0.1064 -0.5055
   79MOL   C11317429   4.158   7.811   1.437  0.6190 -0.0745  0.3873
   79MOL   O11417430   4.063   7.781   1.371  0.2829 -0.5444 -0.6784
   79MOL   C11517431   4.159   0.090   1.530 -0.5074  0.5486 -0.2067
   79MOL   C11617432   4.408   7.809   1.373  0.7146  0.6120 -0.0156
   79MOL   H11717433   4.307   7.715   1.543  1.6972 -1.4679 -1.1522
   79MOL   H11817434   4.237   0.082   1.606  0.4880 -2.8045 -1.4688
   79MOL   H11917435   4.186   0.175   1.468 -2.8572 -0.2505 -2.4269
   79MOL   H12017436   4.059   0.113   1.569 -0.3611  1.2428 -0.2346
   79MOL   H12117437   4.386   7.841   1.271  1.3824 -0.8937 -0.6551
   79MOL   H12217438   4.489   7.736   1.365  0.6159  0.7803 -3.4361
   79MOL   C12317439   4.464   0.087   1.461  0.2991 -0.4971  0.0895
   79MOL   C12417440   4.570   0.146   1.367 -0.8108 -0.5420  0.5010
   79MOL   O12517441   4.679   0.086   1.353  0.0277  0.2475 -0.4212
   79MOL   C12617442   4.550   0.276   1.303  0.3233 -0.1391  0.5623
   79MOL   C12717443   4.519   0.049   1.608  0.5930 -0.4034 -0.5923
   79MOL   H12817444   4.384   0.160   1.469  0.3975 -0.5633  1.7723
   79MOL   H12917445   4.484   0.270   1.217  1.1800  0.7782 -0.1628
   79MOL   H13017446   4.501   0.328   1.386  1.7526 -0.3026  1.5249
   79MOL   H13117447   4.645   0.319   1.272  0.4416 -0.5546  0.3499
   79MOL   H13217448   4.615   7.840   1.599  1.6758  1.7413 -1.4711
   79MOL   H13317449   4.445   7.827   1.657  1.1570  0.8180  1.9879
   79MOL   C13417450   4.548   0.178   1.702 -0.2675  0.4233  0.2923
   79MOL   C13517451   4.683   0.245   1.689  0.1216 -0.2431  0.1250
   79MOL   O13617452   4.689   0.358   1.634 -0.2713  0.4393 -0.1928
   79MOL   C13717453   4.805   0.164   1.729 -0.2695 -0.3016 -0.2028
   79MOL   C13817454   4.522   0.150   1.849 -0.1423  0.0754 -0.3976
   79MOL   H13917455   4.489   0.263   1.666 -3.2299 -2.5818 -2.2459
   79MOL   H14017456   4.883   0.240   1.737  0.5773 -1.2709  1.0643
   79MOL   H14117457   4.797   0.116   1.826  1.3565  2.9731  1.6224
   79MOL   H14217458   4.836   0.086   1.658 -1.6074  0.6417 -1.8612
   79MOL   H14317459   4.592   0.216   1.899 -0.2486 -0.6064  0.6558
   79MOL   H14417460   4.559   0.049   1.866 -0.8023 -0.1181 -0.0702
   79MOL   C14517461   4.374   0.178   1.889  0.1288  0.5271  0.1273
   79MOL   C14617462   4.335   0.333   1.884 -0.4517 -0.2997 -0.1805
   79MOL   O14717463   4.427   0.416   1.899 -0.0654  0.5465  0.1746
   79MOL   C14817464   4.188   0.376   1.860 -0.7264  0.0392 -1.3542
   79MOL   C14917465   4.323   0.113   2.011  0.1298  0.0625  0.2516
   79MOL   H15017466   4.306   0.142   1.811 -0.8994 -1.3414  1.8166
   79MOL   H15117467   4.175   0.391   1.752 -2.2071 -0.6189 -1.2824
   79MOL   H15217468   4.121   0.299   1.897  2.4155 -2.4353 -0.6993
   79MOL   H15317469   4.166   0.472   1.907 -1.3611 -1.3153  1.2225
   79MOL   H15417470   4.309   0.007   1.987  0.9851 -0.7489  3.1613
   79MOL   H15517471   4.219   0.134   2.035 -1.1833 -1.3883 -3.6431
   79MOL   C15617472   4.408   0.118   2.135 -0.3822  0.0178  0.5784
   79MOL   C15717473   4.370   0.000   2.222 -0.4156 -0.0061  0.2526
   79MOL   O15817474   4.254   7.826   2.262 -0.0885  0.1844 -0.1004
   79MOL   C15917475   4.482   7.751   2.276 -0.1496 -0.5319 -0.9667
   79MOL   C16017476   4.396   0.253   2.206 -0.1912 -0.3337  0.9828
   79MOL   H16117477   4.514   0.102   2.115 -0.5278 -1.5085  0.9733
   79MOL   H16217478   4.512   7.670   2.210  1.5367 -2.2417  1.7748
   79MOL   H16317479   4.567   7.814   2.302 -1.1056  0.6741 -0.7283
   79MOL   H16417480   4.436   7.704   2.363  0.9448 -0.6107 -0.4240
   79MOL   H16517481   4.356   0.240   2.306 -3.8572 -0.9693 -0.4819
   79MOL   H16617482   4.316   0.310   2.158  2.4813  2.8521  0.1090
   79MOL   C16717483   4.515   0.342   2.195  0.0683  0.2486  0.1769
   79MOL   C16817484   4.639   0.282   2.256  0.0279  0.4575  1.1929
   79MOL   O16917485   4.636   0.209   2.354  0.0790  0.6338 -0.8815
   79MOL   C17017486   4.776   0.315   2.196  0.6840  0.7706 -0.2012
   79MOL   C17117487   4.485   0.483   2.265 -0.4073 -0.3584 -0.0920
   79MOL   H17217488   4.533   0.372   2.091 -0.6568  2.4447  0.6414
   79MOL   H17317489   4.777   0.424   2.190 -1.7950  0.8179 -0.2250
   79MOL   H17417490   4.856   0.279   2.261 -1.8328 -2.3950  1.2954
   79MOL   H17517491   4.778   0.272   2.096 -2.3266  1.5987 -0.6794
   79MOL   H17617492   4.578   0.535   2.288 -1.1249  0.5604  0.7722
   79MOL   H17717493   4.444   0.477   2.365 -1.2988 -2.4483 -0.5565
   79MOL   C17817494   4.394   0.575   2.185  0.1979 -0.4247  0.0757
   79MOL   C17917495   4.473   0.673   2.095  0.1717 -0.8689  0.6351
   79MOL   O18017496   4.595   0.689   2.101  0.0410  0.2112  0.1472
   79MOL   C18117497   4.394   0.757   2.002 -0.0691  0.2668 -0.2993
   79MOL   C18217498   4.295   0.663   2.277 -0.9968  0.0538 -0.3961
   79MOL   H18317499   4.325   0.528   2.116  0.6803  1.7622 -1.9786
   79MOL   H18417500   4.461   0.832   1.959  1.5043 -0.7986  0.2356
   79MOL   H18517501   4.352   0.699   1.921  0.8418 -0.9861  0.1117
   79MOL   H18617502   4.324   0.821   2.057  0.7368  1.1331 -0.2702
   79MOL   H18717503   4.227   0.727   2.222 -0.6768  1.5265  0.8945
   79MOL   H18817504   4.342   0.739   2.339  0.0892 -1.7908  1.1007
   79MOL   C18917505   4.201   0.580   2.361 -0.0210  0.3025  0.0909
   79MOL   C19017506   4.114   0.474   2.278 -0.2812  0.3799 -0.2379
   79MOL   O19117507   4.084   0.490   2.161 -0.7202  0.2381  0.3189
   79MOL   C19217508   4.084   0.337   2.341  0.1467  0.5671 -0.3820
   79MOL   C19317509   4.097   0.666   2.439 -0.4273  0.2070  0.3210
   79MOL   H19417510   4.262   0.524   2.431 -0.9242 -0.7481  0.0632
   79MOL   H19517511   4.173   0.282   2.369  0.7690  0.9396 -1.5855
   79MOL   H19617512   4.025   0.337   2.433  0.5162  2.4085 -0.1206
   79MOL   H19717513   4.050   0.273   2.260  2.4819 -2.4078  0.9315
   79MOL   H19817514   4.016   0.607   2.483 -1.5216  0.1936 -1.6232
   79MOL   H19917515   4.038   0.729   2.372 -0.7570  0.3606  0.7579
   79MOL   C20017516   4.149   0.765   2.552 -0.5121 -0.1952 -0.6645
   79MOL   C20117517   4.238   0.701   2.662 -0.8316 -0.3901  1.0005
   79MOL   O20217518   4.225   0.583   2.694  0.3266 -0.1741 -0.4098
   79MOL   C20317519   4.351   0.789   2.732  0.0381  0.3306  0.3096
   79MOL   C20417520   4.039   0.842   2.619  0.2630  0.1769 -0.0028
   79MOL   H20517521   4.214   0.833   2.496 -0.2444 -0.1715 -0.3228
   79MOL   H20617522   4.323   0.893   2.745  0.1056  0.3783  0.0803
   79MOL   H20717523   4.373   0.736   2.825  0.4645 -1.8961 -0.9997
   79MOL   H20817524   4.449   0.794   2.684  0.3646 -0.8641  0.8334
   79MOL   H20917525   4.081   0.896   2.705  2.0536 -0.0079 -0.7438
   79MOL   H21017526   3.961   0.773   2.650 -0.5728  0.3583 -1.6564
   79MOL   C21117527   3.973   0.954   2.528 -0.7367  0.1046 -0.0311
   79MOL   C21217528   4.074   1.056   2.468 -0.0857 -0.6360 -0.3595
   79MOL   O21317529   4.164   1.116   2.532 -0.5976  0.9624 -0.0791
   79MOL   C21417530   4.055   1.084   2.319  0.3076  0.2388 -0.6640
   79MOL   C21517531   3.858   1.023   2.602  0.1025 -0.0177 -0.5782
   79MOL   H21617532   3.936   0.906   2.437  0.4648 -2.9758  1.0661
   79MOL   H21717533   4.088   1.002   2.256 -1.2427 -1.4698  0.7077
   79MOL   H21817534   3.954   1.105   2.286  1.1358  2.2953 -1.9885
   79MOL   H21917535   4.113   1.171   2.286  0.1206  1.4887  2.1656
   79MOL   H22017536   3.903   1.072   2.688 -0.2424 -0.9129  0.1205
   79MOL   H22117537   3.774   0.960   2.633 -0.0972  0.3856 -0.2925
   79MOL   H22217538   3.822   1.099   2.532  2.3257  1.8816  0.3025
   80MOL     C117539   5.204   7.459   5.655 -0.3587 -0.1900  0.8682
   80MOL     C217540   5.280   7.582   5.704 -0.3495 -0.1980 -0.0875
   80MOL     O317541   5.243   7.659   5.794 -0.3032 -0.3560  0.3226
   80MOL     C417542   5.416   7.600   5.639 -0.0567 -0.3968 -0.3411
   80MOL     C517543   5.068   7.451   5.719  0.1739  0.5029  0.0914
   80MOL     H617544   5.194   7.461   5.547 -1.0133 -3.2458  0.8371
   80MOL     H717545   5.423   7.706   5.613 -0.1661 -0.0497  1.0062
   80MOL     H817546   5.502   7.575   5.700  0.4680  0.3928 -0.7507
   80MOL     H917547   5.428   7.537   5.551  0.2736  0.3224 -0.8193
   80MOL    H1017548   5.020   7.547   5.697 -2.3616 -0.4688  1.1329
   80MOL    H1117549   5.068   7.461   5.827  0.5771 -1.0567  0.2407
   80MOL    H1217550   5.274   7.377   5.673  0.7398  0.8445  1.3429
   80MOL    C1317551   4.983   7.326   5.677 -0.3392  0.3366 -0.1889
   80MOL    C1417552   5.029   7.194   5.743  0.4240 -0.0166  0.8521
   80MOL    O1517553   5.120   7.122   5.701  0.0492  0.0325 -0.4385
   80MOL    C1617554   4.953   7.161   5.875  0.6200  0.8078  1.0412
   80MOL    C1717555   4.967   7.311   5.523 -0.5143 -0.4074  0.0991
   80MOL    H1817556   4.883   7.344   5.718 -0.5737 -1.7766  0.1839
   80MOL    H1917557   4.870   7.091   5.863  0.3509  1.1411  0.9184
   80MOL    H2017558   5.024   7.115   5.943  1.0016  0.1696  0.2129
   80MOL    H2117559   4.921   7.251   5.928 -0.4173  0.3841  1.1516
   80MOL    H2217560   4.973   7.207   5.491  0.9880 -0.1522 -0.4884
   80MOL    H2317561   5.059   7.346   5.475 -0.6420  0.0079  0.1630
   80MOL    C2417562   4.840   7.369   5.462 -0.1302 -0.2457  0.1827
   80MOL    C2517563   4.808   7.507   5.515  0.8788  0.3341  0.1601
   80MOL    O2617564   4.747   7.525   5.621  0.1943 -0.3063 -0.2890
   80MOL    C2717565   4.868   7.624   5.442  0.4883 -0.4723  0.1350
   80MOL    C2817566   4.716   7.277   5.472 -0.3318 -0.9064 -0.4980
   80MOL    H2917567   4.858   7.381   5.355 -3.0897  0.5529 -0.2580
   80MOL    H3017568   4.813   7.661   5.356  0.2594  1.5076  1.1066
   80MOL    H3117569   4.892   7.703   5.514 -0.0552 -1.9547  2.0030
   80MOL    H3217570   4.964   7.599   5.397  1.0010  0.3390  0.7619
   80MOL    H3317571   4.626   7.337   5.455  0.0929 -0.5166 -1.4353
   80MOL    H3417572   4.700   7.238   5.572  1.2439  0.6315  0.3781
   80MOL    C3517573   4.705   7.155   5.380 -0.2473 -0.1681  0.4938
   80MOL    C3617574   4.714   7.202   5.228 -0.2540 -0.2781 -0.1617
   80MOL    O3717575   4.628   7.276   5.180 -0.2498  0.3090  0.2146
   80MOL    C3817576   4.834   7.146   5.147  0.1279  0.1398 -0.7825
   80MOL    C3917577   4.570   7.077   5.402  1.0491 -0.4737  0.1372
   80MOL    H4017578   4.792   7.089   5.383 -0.0415  0.0095 -1.0375
   80MOL    H4117579   4.840   7.049   5.196  0.0038 -0.5384 -2.0838
   80MOL    H4217580   4.797   7.127   5.046 -2.2094 -1.5057  0.3488
   80MOL    H4317581   4.929   7.198   5.135  0.6861 -0.5865  0.4642
   80MOL    H4417582   4.548   7.022   5.310 -1.0549 -0.7402  0.7785
   80MOL    H4517583   4.483   7.141   5.409  0.8797 -0.3054 -2.6610
   80MOL    C4617584   4.568   6.950   5.503 -0.3015  0.4408 -0.1139
   80MOL    C4717585   4.595   6.993   5.645  0.3114  0.0838 -0.6611
   80MOL    O4817586   4.695   6.956   5.702  0.5923 -0.1568 -0.1668
   80MOL    C4917587   4.487   7.070   5.725  0.1228 -0.0301  0.0639
   80MOL    C5017588   4.647   6.823   5.454 -0.1904 -0.4007  0.2848
   80MOL    H5117589   4.464   6.920   5.512  0.3477 -1.9819 -0.2943
   80MOL    H5217590   4.403   7.003   5.749 -0.4564  0.8979  0.6511
   80MOL    H5317591   4.531   7.112   5.815  0.1111  1.9823 -0.8514
   80MOL    H5417592   4.462   7.157   5.665 -0.0599 -0.7547 -0.9118
   80MOL    H5517593   4.751   6.833   5.485 -0.4529 -0.1321  1.0675
   80MOL    H5617594   4.656   6.822   5.345  0.0795  0.7775  0.2831
   80MOL    C5717595   4.590   6.684   5.496  0.4683 -0.0110 -0.3643
   80MOL    C5817596   4.703   6.584   5.514  0.6678 -0.8870 -0.3979
   80MOL    O5917597   4.741   6.500   5.436 -0.0896  0.2639  0.3810
   80MOL    C6017598   4.784   6.604   5.645 -0.8507  0.5464  0.0243
   80MOL    C6117599   4.479   6.628   5.407 -0.4392  0.5892  0.1652
   80MOL    H6217600   4.555   6.696   5.598 -1.1613  0.0316 -0.9286
   80MOL    H6317601   4.768   6.708   5.673 -2.2862  0.3733 -0.1045
   80MOL    H6417602   4.739   6.535   5.717 -1.3372 -0.1562 -0.9433
   80MOL    H6517603   4.889   6.582   5.630 -1.5144 -2.8498  0.0418
   80MOL    H6617604   4.505   6.653   5.304  0.9300  0.8841  0.5782
   80MOL    H6717605   4.389   6.689   5.422 -0.8847  0.6381 -2.3783
   80MOL    C6817606   4.432   6.478   5.417  0.1284 -0.2313 -0.0361
   80MOL    C6917607   4.366   6.431   5.286  0.0606  0.4165  0.6595
   80MOL    O7017608   4.253   6.462   5.252  0.3286 -0.4512  0.0016
   80MOL    C7117609   4.451   6.336   5.202 -0.0785  0.3469  0.6942
   80MOL    C7217610   4.353   6.447   5.542  0.1967 -0.7363 -0.1768
   80MOL    H7317611   4.526   6.423   5.421 -0.4861 -1.4456 -1.6957
   80MOL    H7417612   4.378   6.267   5.158  1.6222 -0.4160 -1.0150
   80MOL    H7517613   4.502   6.408   5.138  0.5534  0.3064  1.1507
   80MOL    H7617614   4.506   6.264   5.262  0.6399  0.0699 -0.2890
   80MOL    H7717615   4.276   6.524   5.538  2.0181  1.2179  1.6247
   80MOL    H7817616   4.411   6.478   5.629 -0.1854 -3.1733  0.9836
   80MOL    C7917617   4.295   6.310   5.575  0.2629 -0.3387 -0.2637
   80MOL    C8017618   4.408   6.201   5.574  0.3225 -0.0775 -0.0071
   80MOL    O8117619   4.426   6.128   5.477  0.4474 -0.0275 -0.6690
   80MOL    C8217620   4.504   6.188   5.692 -0.2358 -0.1674  0.3753
   80MOL    C8317621   4.175   6.263   5.487  0.3038 -0.2216 -0.4604
   80MOL    H8417622   4.252   6.314   5.675 -0.8713 -2.3935 -0.6464
   80MOL    H8517623   4.556   6.280   5.717 -0.7471  0.4210 -0.7133
   80MOL    H8617624   4.444   6.146   5.773 -0.2898  0.1712  0.5094
   80MOL    H8717625   4.581   6.117   5.661  0.8364  1.7423 -1.4329
   80MOL    H8817626   4.206   6.216   5.393  0.6329  0.0857 -0.5058
   80MOL    H8917627   4.125   6.357   5.465  0.2580 -0.4644 -1.4442
   80MOL    C9017628   4.069   6.175   5.559 -0.2330 -0.1912 -0.0428
   80MOL    C9117629   3.999   6.094   5.448  0.6471 -1.0236  0.3164
   80MOL    O9217630   3.906   6.144   5.386 -0.8229  0.4507 -0.4082
   80MOL    C9317631   4.044   5.949   5.443 -0.0041 -1.0166 -0.7300
   80MOL    C9417632   3.966   6.262   5.643 -0.1208  0.4360  0.1193
   80MOL    H9517633   4.112   6.105   5.631  0.4105  0.9483  0.7062
   80MOL    H9617634   3.987   5.900   5.522 -1.5558  2.3096  0.2964
   80MOL    H9717635   4.000   5.912   5.351 -2.9820  0.2196  0.1226
   80MOL    H9817636   4.149   5.936   5.468 -0.0885  2.4762  1.9568
   80MOL    H9917637   3.899   6.324   5.584 -0.8912  2.3360  2.8464
   80MOL   H10017638   4.023   6.332   5.705  0.8806  1.9632 -2.4348
   80MOL   C10117639   3.868   6.176   5.727 -0.9182 -0.1517  0.4340
   80MOL   C10217640   3.745   6.249   5.768  0.0794  0.0173 -0.4482
   80MOL   O10317641   3.745   6.326   5.863 -0.0448  0.2880 -0.3816
   80MOL   C10417642   3.623   6.247   5.673 -0.5601  0.2560  0.2014
   80MOL   C10517643   3.940   6.088   5.836  0.1022 -0.1331  0.0311
   80MOL   H10617644   3.819   6.112   5.654 -1.8498 -0.7866  1.6030
   80MOL   H10717645   3.574   6.150   5.661  1.0455 -0.1440 -3.8956
   80MOL   H10817646   3.551   6.323   5.702 -0.0592  0.6596  0.3833
   80MOL   H10917647   3.661   6.262   5.572 -1.1631 -2.0480 -0.4161
   80MOL   H11017648   4.008   6.011   5.799  0.3709  0.5639 -0.9691
   80MOL   H11117649   3.869   6.022   5.885  1.7413 -1.5582  0.5487
   80MOL   C11217650   4.023   6.165   5.944  0.1415  0.2453  0.0188
   80MOL   C11317651   4.174   6.170   5.922 -0.4286  0.4237  0.5646
   80MOL   O11417652   4.235   6.085   5.859  0.4797  0.1201 -0.1206
   80MOL   C11517653   4.253   6.287   5.979 -0.3882 -0.4971 -0.4362
   80MOL   C11617654   3.979   6.104   6.083 -1.1107 -0.1052  0.0352
   80MOL   H11717655   3.989   6.269   5.950 -1.3096 -0.2849  1.3034
   80MOL   H11817656   4.357   6.254   5.984 -0.3288 -0.3472 -0.6473
   80MOL   H11917657   4.250   6.374   5.913  1.5780  2.1234  2.7793
   80MOL   H12017658   4.216   6.318   6.076  0.4043  2.1908 -0.9576
   80MOL   H12117659   4.054   6.115   6.160  0.6792  0.3970 -1.7276
   80MOL   H12217660   3.971   5.995   6.088 -1.7347 -0.1635 -1.8072
   80MOL   C12317661   3.845   6.168   6.135 -0.3509 -0.3416 -0.1967
   80MOL   C12417662   3.862   6.316   6.197  0.1351  0.0694 -0.1514
   80MOL   O12517663   3.971   6.351   6.241  0.8709 -0.6075 -0.1971
   80MOL   C12617664   3.739   6.418   6.208 -0.5724  0.5062 -0.2060
   80MOL   C12717665   3.766   6.070   6.227  0.1791 -0.2228  0.9390
   80MOL   H12817666   3.792   6.174   6.040 -1.0278  1.4632  0.2571
   80MOL   H12917667   3.729   6.463   6.109 -1.2283  0.7065 -0.0488
   80MOL   H13017668   3.648   6.369   6.243 -0.2573  0.1813  0.1555
   80MOL   H13117669   3.768   6.501   6.273 -0.7894 -0.8645  1.6649
   80MOL   H13217670   3.734   6.118   6.320 -1.3710  0.8172 -0.1213
   80MOL   H13317671   3.835   5.993   6.263 -0.1293 -0.9655 -0.0470
   80MOL   C13417672   3.642   6.007   6.163  0.8440  0.7504  0.5238
   80MOL   C13517673   3.522   6.104   6.168  0.0697 -0.2272  0.6950
   80MOL   O13617674   3.504   6.169   6.268 -0.0959 -0.4921  0.4621
   80MOL   C13717675   3.429   6.111   6.046 -1.1149  0.1878 -0.4318
   80MOL   C13817676   3.613   5.864   6.218  0.2991  0.6313 -0.0773
   80MOL   H13917677   3.670   5.991   6.059 -1.2159 -0.8974  0.1788
   80MOL   H14017678   3.349   6.038   6.059 -0.7308  0.0576  1.2459
   80MOL   H14117679   3.399   6.216   6.044 -0.2220  0.4858  1.3898
   80MOL   H14217680   3.484   6.092   5.953 -0.7315  1.1642 -0.4044
   80MOL   H14317681   3.700   5.810   6.182  1.9157  4.3436 -2.0415
   80MOL   H14417682   3.519   5.826   6.180 -0.1435 -0.6364  2.2371
   80MOL   C14517683   3.604   5.850   6.373 -1.1690  0.5373  0.1347
   80MOL   C14617684   3.693   5.734   6.415  0.3943  0.6334  0.5750
   80MOL   O14717685   3.684   5.621   6.365  0.2842 -0.0691  0.2956
   80MOL   C14817686   3.796   5.765   6.523 -0.0975 -0.1035 -0.0722
   80MOL   C14917687   3.454   5.831   6.415 -0.3605  0.0666 -0.2743
   80MOL   H15017688   3.640   5.942   6.419  0.2643 -0.1411  0.3863
   80MOL   H15117689   3.748   5.768   6.621  0.0451  2.9688 -0.0524
   80MOL   H15217690   3.862   5.678   6.523 -1.3790 -1.0956  0.1634
   80MOL   H15317691   3.852   5.857   6.503 -0.0787  0.3530  1.9637
   80MOL   H15417692   3.416   5.732   6.388 -1.0815  0.0434  0.7661
   80MOL   H15517693   3.380   5.895   6.368 -0.4235 -0.3249 -0.7129
   80MOL   C15617694   3.446   5.857   6.564 -0.1434 -0.3547  1.1597
   80MOL   C15717695   3.315   5.798   6.623  0.4379 -0.6074 -0.0057
   80MOL   O15817696   3.213   5.785   6.559 -0.5677  0.6044  0.0391
   80MOL   C15917697   3.318   5.737   6.759  0.4517 -0.2969 -1.1503
   80MOL   C16017698   3.445   6.004   6.611 -0.5446  0.0532  0.3149
   80MOL   H16117699   3.515   5.795   6.620 -1.1299 -1.0519  1.6118
   80MOL   H16217700   3.360   5.636   6.761  0.2480 -0.4641 -3.6887
   80MOL   H16317701   3.396   5.790   6.814 -0.0574 -0.3056 -0.4247
   80MOL   H16417702   3.218   5.737   6.802 -0.5979  0.0254 -3.5143
   80MOL   H16517703   3.352   6.027   6.663 -1.7090 -0.8288 -1.3207
   80MOL   H16617704   3.439   6.058   6.516 -0.5159  1.6909  1.2174
   80MOL   C16717705   3.571   6.063   6.680  0.4991 -0.1690  0.4033
   80MOL   C16817706   3.577   6.029   6.834 -0.3554 -0.0356  0.1693
   80MOL   O16917707   3.476   6.039   6.901 -0.8225 -0.6548 -0.5746
   80MOL   C17017708   3.709   5.974   6.894  0.2478  0.4503 -0.5112
   80MOL   C17117709   3.582   6.218   6.662 -0.2322  0.9950 -0.2801
   80MOL   H17217710   3.652   6.003   6.639  2.4337  1.7629  1.2295
   80MOL   H17317711   3.795   6.033   6.863  0.9325 -0.1621  0.1845
   80MOL   H17417712   3.699   5.959   7.002  1.1726  2.6970 -0.0798
   80MOL   H17517713   3.728   5.874   6.855  0.9574  0.3547  0.0601
   80MOL   H17617714   3.498   6.275   6.702 -1.2137  1.2308 -2.6055
   80MOL   H17717715   3.562   6.229   6.556  1.3808  0.3743 -0.6647
   80MOL   C17817716   3.715   6.288   6.685  0.7722 -0.3050  0.0260
   80MOL   C17917717   3.711   6.439   6.645  0.3525  0.1423 -0.5598
   80MOL   O18017718   3.707   6.480   6.528  0.4547  0.1115  0.0626
   80MOL   C18117719   3.710   6.544   6.764 -0.4370  0.2842  0.1644
   80MOL   C18217720   3.830   6.213   6.613  0.1531 -0.3058 -0.2763
   80MOL   H18317721   3.740   6.274   6.790  0.4455  0.4899  0.2173
   80MOL   H18417722   3.792   6.525   6.834  1.9015  3.9716 -1.3912
   80MOL   H18517723   3.730   6.640   6.715 -0.7806  0.9933  1.3831
   80MOL   H18617724   3.614   6.549   6.815 -1.1532  0.0618 -1.1473
   80MOL   H18717725   3.794   6.189   6.513 -0.1598  0.2921 -0.3110
   80MOL   H18817726   3.838   6.118   6.665  1.1471  0.2163  0.5399
   80MOL   C18917727   3.980   6.261   6.610 -0.3914 -1.0140  0.5504
   80MOL   C19017728   4.060   6.173   6.518 -0.6251  0.0667 -0.1195
   80MOL   O19117729   4.007   6.090   6.448  0.5721 -0.0613  0.7628
   80MOL   C19217730   4.214   6.184   6.516  0.2444 -0.1264 -0.2934
   80MOL   C19317731   4.034   6.266   6.758  0.5452  0.1630 -0.5165
   80MOL   H19417732   3.973   6.359   6.563  0.3180 -1.4936 -0.5579
   80MOL   H19517733   4.253   6.140   6.424  0.7102 -1.6712  0.6264
   80MOL   H19617734   4.261   6.281   6.536 -0.2410 -0.2525  1.5224
   80MOL   H19717735   4.255   6.122   6.596  1.0805 -1.5453 -1.8038
   80MOL   H19817736   4.047   6.166   6.799  1.6738  1.2989  1.9745
   80MOL   H19917737   3.956   6.312   6.819  0.3288  1.1945 -1.5606
   80MOL   C20017738   4.151   6.363   6.783  0.3078  0.3346  0.7414
   80MOL   C20117739   4.207   6.346   6.924 -0.1150  0.0859  0.5377
   80MOL   O20217740   4.197   6.433   7.010  0.1188  0.0503 -0.1393
   80MOL   C20317741   4.265   6.206   6.961  0.6473 -0.0128  0.4776
   80MOL   C20417742   4.113   6.513   6.761 -0.6188  0.7227 -0.2425
   80MOL   H20517743   4.229   6.335   6.712  0.2601 -2.7251  1.8075
   80MOL   H20617744   4.254   6.135   6.879  0.6010  0.8677 -0.2728
   80MOL   H20717745   4.372   6.210   6.978  0.6223 -0.6760  0.8436
   80MOL   H20817746   4.209   6.164   7.045 -0.3725 -1.8451 -1.0664
   80MOL   H20917747   4.068   6.557   6.850  1.5949  0.7433  0.9318
   80MOL   H21017748   4.034   6.529   6.688  1.7730  2.0762 -2.6242
   80MOL   C21117749   4.230   6.606   6.719  0.1329 -0.0529 -0.8417
   80MOL   C21217750   4.201   6.759   6.727  0.1027 -0.8122 -0.1245
   80MOL   O21317751   4.089   6.797   6.754 -0.7194 -0.0888 -0.1009
   80MOL   C21417752   4.314   6.862   6.710  0.0009 -0.1636 -0.3148
   80MOL   C21517753   4.292   6.561   6.579  0.3817  0.3060 -0.1697
   80MOL   H21617754   4.303   6.590   6.798 -0.4769  0.5124 -0.1692
   80MOL   H21717755   4.288   6.941   6.640  1.7327 -0.0960 -0.9030
   80MOL   H21817756   4.329   6.903   6.810 -0.8283 -1.3101  0.2892
   80MOL   H21917757   4.406   6.810   6.682 -0.4182 -0.7839 -0.5338
   80MOL   H22017758   4.357   6.475   6.590 -0.5708 -0.0199  3.7647
   80MOL   H22117759   4.343   6.639   6.523  1.1277  1.3313  1.8869
   80MOL   H22217760   4.210   6.538   6.510 -2.2146  0.8982  2.5826
   81MOL     C117761   7.658   5.482   3.925  0.6607  0.1784 -0.5990
   81MOL     C217762   7.613   5.540   3.789  0.4508  0.1078 -0.0570
   81MOL     O317763   7.495   5.508   3.742 -0.0769 -0.1602 -0.8040
   81MOL     C417764   7.703   5.639   3.721 -0.2654 -0.1321 -0.3049
   81MOL     C517765   7.561   5.380   3.987  0.0724  0.1422 -0.2091
   81MOL     H617766   7.752   5.431   3.906  0.3103 -0.5467 -0.4110
   81MOL     H717767   7.798   5.636   3.774 -0.8326  1.5883  0.8684
   81MOL     H817768   7.711   5.603   3.619  0.4283 -0.7560 -0.0358
   81MOL     H917769   7.664   5.739   3.744  0.9881  0.1649  0.6031
   81MOL    H1017770   7.583   5.282   3.944 -1.5174  0.3079 -1.4344
   81MOL    H1117771   7.461   5.392   3.945 -0.7305 -2.0095  1.0249
   81MOL    H1217772   7.691   5.561   3.993 -0.6643  0.1459  0.1067
   81MOL    C1317773   7.560   5.383   4.139  0.3901 -0.1405  0.1466
   81MOL    C1417774   7.479   5.501   4.184  0.7123  0.6183 -0.3578
   81MOL    O1517775   7.462   5.597   4.109  0.3875 -0.2430 -0.0907
   81MOL    C1617776   7.426   5.504   4.327  0.3328  0.1885  0.0694
   81MOL    C1717777   7.690   5.367   4.212 -0.3590 -0.4721  0.2197
   81MOL    H1817778   7.497   5.296   4.159  0.2272  0.0613  0.5124
   81MOL    H1917779   7.370   5.411   4.336 -0.4307  0.8122  1.8790
   81MOL    H2017780   7.513   5.519   4.390  0.4132  0.0876 -0.0180
   81MOL    H2117781   7.359   5.591   4.329 -0.1544 -0.2067  0.9427
   81MOL    H2217782   7.669   5.376   4.319 -2.6997 -1.0464 -0.1648
   81MOL    H2317783   7.750   5.452   4.177 -0.7022 -0.7853 -1.1618
   81MOL    C2417784   7.782   5.250   4.184 -0.8610  0.2011 -0.0174
   81MOL    C2517785   7.710   5.115   4.183 -0.7615 -0.6364  0.0075
   81MOL    O2617786   7.653   5.079   4.283  0.6110  0.0323  0.5376
   81MOL    C2717787   7.744   5.012   4.073  0.0692 -0.2453 -1.4118
   81MOL    C2817788   0.069   5.245   4.278 -0.2480  0.3571 -0.0144
   81MOL    H2917789   7.818   5.256   4.081 -2.5081  0.5569 -0.5867
   81MOL    H3017790   7.715   5.056   3.977 -1.5545  0.5318 -0.5854
   81MOL    H3117791   0.002   4.970   4.061  0.8940  0.3201  2.7971
   81MOL    H3217792   7.674   4.929   4.080 -2.0558  1.7251  2.2773
   81MOL    H3317793   0.117   5.150   4.252 -2.0212 -0.3510 -0.7830
   81MOL    H3417794   0.035   5.239   4.382  1.1088 -0.9979  0.3624
   81MOL    C3517795   0.174   5.361   4.268  0.6229 -0.4135  0.3531
   81MOL    C3617796   0.125   5.463   4.368  0.3035  0.7109 -0.0523
   81MOL    O3717797   0.059   5.564   4.341 -0.0484  0.1297  0.3686
   81MOL    C3817798   0.178   5.438   4.507  0.4055 -0.6830 -0.4756
   81MOL    C3917799   0.202   5.409   4.124  0.1376  0.1217 -0.2990
   81MOL    H4017800   0.268   5.322   4.307  0.7855 -0.0188  0.3590
   81MOL    H4117801   0.097   5.422   4.578 -2.3051  2.5028 -2.6710
   81MOL    H4217802   0.242   5.351   4.516 -1.4355 -2.1435 -1.1086
   81MOL    H4317803   0.239   5.522   4.540 -1.8286  0.9697 -0.4310
   81MOL    H4417804   0.110   5.451   4.085  0.8261 -1.0623 -3.2968
   81MOL    H4517805   0.237   5.333   4.055 -0.6559  0.5038 -1.1246
   81MOL    C4617806   0.291   5.527   4.112 -0.0626  0.7635  0.3525
   81MOL    C4717807   0.272   5.586   3.960 -0.2186 -0.5620  0.2528
   81MOL    O4817808   0.296   5.515   3.865 -0.1417 -0.1260  0.2282
   81MOL    C4917809   0.216   5.723   3.940  0.1000 -0.5720  0.5446
   81MOL    C5017810   0.444   5.490   4.124 -0.4864 -0.1931  0.0397
   81MOL    H5117811   0.255   5.596   4.188 -0.5156  0.4143  0.4625
   81MOL    H5217812   0.227   5.792   4.023 -1.2920  0.8215 -0.3857
   81MOL    H5317813   0.256   5.773   3.852 -0.3539 -1.1672 -0.0058
   81MOL    H5417814   0.107   5.713   3.937  0.2146 -2.0526  0.9312
   81MOL    H5517815   0.488   5.458   4.030 -0.5393  2.1868 -0.8175
   81MOL    H5617816   0.445   5.390   4.168  0.0711  0.0738  0.6393
   81MOL    C5717817   0.538   5.595   4.191 -0.4166 -0.1693  0.1830
   81MOL    C5817818   0.478   5.622   4.331  0.1414  0.0294  0.3591
   81MOL    O5917819   0.415   5.723   4.362 -0.5590 -0.0188 -0.2848
   81MOL    C6017820   0.510   5.516   4.430  0.0672  0.0706 -0.5564
   81MOL    C6117821   0.569   5.721   4.106 -0.4471  0.3733  0.1184
   81MOL    H6217822   0.637   5.555   4.215 -0.5998  0.3852  1.9687
   81MOL    H6317823   0.430   5.441   4.430  0.0576  0.0809 -0.2875
   81MOL    H6417824   0.614   5.489   4.411 -0.0644  0.1287 -1.3824
   81MOL    H6517825   0.509   5.560   4.529 -1.5031  0.2936 -0.6625
   81MOL    H6617826   0.632   5.787   4.165  1.3868 -1.3359  0.1278
   81MOL    H6717827   0.475   5.776   4.107  0.9472  2.9587 -2.8353
   81MOL    C6817828   0.628   5.709   3.965 -0.3977 -0.3228 -0.0634
   81MOL    C6917829   0.766   5.633   3.979 -0.4687 -0.0729  0.4543
   81MOL    O7017830   0.856   5.671   4.052 -0.8158  0.0339  0.0020
   81MOL    C7117831   0.793   5.527   3.877 -1.1842 -0.6889 -0.1011
   81MOL    C7217832   0.621   5.843   3.898 -0.2057  0.4253 -0.2553
   81MOL    H7317833   0.568   5.634   3.914  0.2531 -0.8482 -0.0668
   81MOL    H7417834   0.730   5.529   3.788 -1.6057  0.5055  0.2111
   81MOL    H7517835   0.895   5.542   3.840 -0.5670 -2.6786  0.7416
   81MOL    H7617836   0.788   5.434   3.934 -0.1793 -0.7504 -0.1100
   81MOL    H7717837   0.524   5.887   3.924  0.1071  0.3043  1.1566
   81MOL    H7817838   0.609   5.827   3.790 -0.4575  3.4933 -0.7191
   81MOL    C7917839   0.737   5.945   3.920  0.2014  0.0228 -0.8096
   81MOL    C8017840   0.726   6.022   4.053  0.6197  1.0015 -0.3466
   81MOL    O8117841   0.616   6.071   4.088 -0.4046  0.2565  0.0490
   81MOL    C8217842   0.855   6.031   4.132 -0.3603 -0.0523 -0.0352
   81MOL    C8317843   0.750   6.043   3.801 -0.1910 -0.2287  0.2214
   81MOL    H8417844   0.828   5.885   3.927  0.8132  1.2901  3.3097
   81MOL    H8517845   0.874   6.119   4.194  3.1596 -0.6342 -0.1856
   81MOL    H8617846   0.872   5.943   4.194  0.0618  0.1167  0.0919
   81MOL    H8717847   0.931   6.015   4.055  1.8121  1.4883  1.7257
   81MOL    H8817848   0.774   6.003   3.703  4.2942  2.9358 -0.1397
   81MOL    H8917849   0.841   6.101   3.815 -0.8000  0.4623  1.4533
   81MOL    C9017850   0.638   6.153   3.771 -0.2578  0.9829 -0.5008
   81MOL    C9117851   0.525   6.105   3.685 -0.1409 -0.4115  0.2521
   81MOL    O9217852   0.534   6.033   3.581 -0.5515 -0.2059 -0.3014
   81MOL    C9317853   0.388   6.145   3.751 -0.2963 -0.7152 -0.1962
   81MOL    C9417854   0.693   6.287   3.717  0.0704  0.9684  0.1691
   81MOL    H9517855   0.597   6.190   3.865 -0.4933 -0.6664  0.0698
   81MOL    H9617856   0.304   6.103   3.697 -0.4720 -1.6103  0.7526
   81MOL    H9717857   0.379   6.116   3.856 -1.9574 -2.1704 -0.7260
   81MOL    H9817858   0.397   6.253   3.742 -0.2755 -0.8797 -2.4483
   81MOL    H9917859   0.613   6.353   3.685 -1.1329 -1.8468 -2.9595
   81MOL   H10017860   0.744   6.260   3.624 -0.8873 -2.8929  0.6884
   81MOL   C10117861   0.784   6.363   3.810 -0.9287  0.2893 -0.4558
   81MOL   C10217862   0.717   6.411   3.941  0.0216  0.8915 -0.1764
   81MOL   O10317863   0.780   6.403   4.047  0.1617  0.5279 -0.4970
   81MOL   C10417864   0.583   6.480   3.944  0.2316 -0.4699 -0.1107
   81MOL   C10517865   0.854   6.483   3.744  0.7722  0.1401 -0.3603
   81MOL   H10617866   0.863   6.295   3.841 -0.8919  0.2487 -0.6412
   81MOL   H10717867   0.555   6.492   3.840 -0.5471  0.5306  0.2052
   81MOL   H10817868   0.512   6.409   3.986 -0.5725  0.2895 -0.1746
   81MOL   H10917869   0.577   6.572   4.002 -1.8890  0.3354 -1.5626
   81MOL   H11017870   0.772   6.528   3.689  0.8039  1.0868  0.3499
   81MOL   H11117871   0.927   6.454   3.668  1.8559  1.1277  0.2789
   81MOL   C11217872   0.938   6.579   3.827 -0.7126 -0.5275 -0.0495
   81MOL   C11317873   0.958   6.712   3.755  0.5065  1.0074 -0.0723
   81MOL   O11417874   0.911   6.725   3.641  0.3413  0.0410 -0.2939
   81MOL   C11517875   1.034   6.834   3.807  0.7300 -0.5715  0.3839
   81MOL   C11617876   1.065   6.515   3.890 -0.4958 -0.2993 -0.0222
   81MOL   H11717877   0.867   6.601   3.907 -2.0075 -3.1434 -0.3914
   81MOL   H11817878   1.085   6.835   3.903  1.9229  0.0000 -0.2471
   81MOL   H11917879   1.117   6.851   3.738 -0.6263  1.5375 -0.8071
   81MOL   H12017880   0.963   6.917   3.802  0.7144 -0.4747  2.0860
   81MOL   H12117881   1.062   6.408   3.912 -1.1346 -0.0038  1.4178
   81MOL   H12217882   1.072   6.569   3.984  1.9206 -0.0605 -0.3133
   81MOL   C12317883   1.208   6.540   3.825 -0.3526  0.8687  0.9132
   81MOL   C12417884   1.206   6.520   3.669 -0.2739  0.0856 -0.5866
   81MOL   O12517885   1.210   6.617   3.590  0.0471  0.1313  0.4721
   81MOL   C12617886   1.202   6.378   3.613 -0.8036 -0.7975 -0.7881
   81MOL   C12717887   1.318   6.452   3.885 -0.1923 -0.0043  0.1380
   81MOL   H12817888   1.238   6.642   3.846  3.4576  0.1857 -0.7037
   81MOL   H12917889   1.289   6.322   3.645  0.2204  0.1971 -1.7730
   81MOL   H13017890   1.115   6.325   3.653  1.4737 -2.5716  1.9804
   81MOL   H13117891   1.203   6.373   3.504 -1.0505  0.5068 -0.8686
   81MOL   H13217892   1.406   6.452   3.821  1.3653  3.2810  2.1287
   81MOL   H13317893   1.277   6.351   3.888  3.3004 -1.4996 -0.2228
   81MOL   C13417894   1.368   6.486   4.023  0.1474 -0.0162 -0.1439
   81MOL   C13517895   1.464   6.607   4.017  0.8897  0.2575 -0.3375
   81MOL   O13617896   1.586   6.587   4.016 -0.5536  0.4543  0.3647
   81MOL   C13717897   1.403   6.743   3.988  0.6170  0.3553 -0.2146
   81MOL   C13817898   1.430   6.363   4.093 -0.6156 -0.8337  0.1733
   81MOL   H13917899   1.284   6.512   4.087 -1.2956 -2.9215 -0.7513
   81MOL   H14017900   1.460   6.817   4.043  0.6898  0.6903 -0.7370
   81MOL   H14117901   1.416   6.760   3.881  0.0462  0.8851 -0.2031
   81MOL   H14217902   1.297   6.729   4.010  0.6117 -0.8311 -0.9188
   81MOL   H14317903   1.496   6.397   4.173  1.4104 -2.0232 -0.9621
   81MOL   H14417904   1.501   6.320   4.023 -0.8280 -0.3591 -0.3364
   81MOL   C14517905   1.326   6.256   4.140  0.8022  0.5529  0.2832
   81MOL   C14617906   1.288   6.271   4.283 -0.4486  0.6419 -0.7361
   81MOL   O14717907   1.370   6.286   4.376 -0.3328  0.3852  0.4928
   81MOL   C14817908   1.136   6.294   4.317 -0.7442  1.1249 -0.5933
   81MOL   C14917909   1.379   6.115   4.115 -0.0251 -0.1695 -0.4609
   81MOL   H15017910   1.231   6.268   4.089  0.3327 -0.1657  0.9692
   81MOL   H15117911   1.067   6.231   4.260  0.8616  1.3693 -2.8944
   81MOL   H15217912   1.125   6.249   4.416 -0.5624 -0.1535 -1.1361
   81MOL   H15317913   1.095   6.394   4.327 -5.0948 -0.4478 -1.6916
   81MOL   H15417914   1.327   6.043   4.178 -0.9321 -0.7817 -1.8717
   81MOL   H15517915   1.486   6.123   4.131  0.0179  1.0423 -1.2761
   81MOL   C15617916   1.376   6.072   3.970  0.0289 -0.3902  0.1622
   81MOL   C15717917   1.238   6.080   3.896 -0.2042  0.1494  0.0513
   81MOL   O15817918   1.132   6.095   3.953  0.1706  0.1407  0.0349
   81MOL   C15917919   1.249   6.056   3.746 -0.0381 -0.6437 -0.1439
   81MOL   C16017920   1.454   5.937   3.956  0.1276 -0.1625 -0.4760
   81MOL   H16117921   1.444   6.133   3.910  0.7968 -2.0456 -0.6622
   81MOL   H16217922   1.290   5.956   3.733 -1.5001 -1.4531  1.2948
   81MOL   H16317923   1.147   6.055   3.706  0.7641 -0.2202 -2.2964
   81MOL   H16417924   1.318   6.130   3.704 -0.2024  0.2930  1.2183
   81MOL   H16517925   1.556   5.952   3.990  0.2383  0.9323 -1.2470
   81MOL   H16617926   1.454   5.905   3.852 -0.0610 -0.1799 -0.4718
   81MOL   C16717927   1.396   5.805   4.024 -0.5835 -0.1016 -0.0149
   81MOL   C16817928   1.512   5.702   4.008  0.2929 -0.2415  0.3610
   81MOL   O16917929   1.557   5.662   3.896  0.3128  0.1405 -0.4070
   81MOL   C17017930   1.575   5.651   4.132  0.2835  0.0511 -0.8238
   81MOL   C17117931   1.270   5.745   3.962 -0.2264 -0.4637  0.7688
   81MOL   H17217932   1.384   5.810   4.132  1.8169  0.4007  0.2541
   81MOL   H17317933   1.643   5.717   4.186 -1.2792 -0.9853  2.5187
   81MOL   H17417934   1.496   5.631   4.204  0.3400 -2.4472 -1.4342
   81MOL   H17517935   1.620   5.553   4.118  1.0038  0.0534  1.3022
   81MOL   H17617936   1.287   5.708   3.861  0.0488 -0.1129  0.6900
   81MOL   H17717937   1.186   5.811   3.940 -0.4971 -1.5505 -1.5742
   81MOL   C17817938   1.198   5.636   4.057 -0.4119  0.1009  0.9667
   81MOL   C17917939   1.184   5.678   4.204 -0.2544 -0.7040 -0.1259
   81MOL   O18017940   1.237   5.617   4.295  0.7216  0.2061  0.1620
   81MOL   C18117941   1.086   5.795   4.233 -0.1115 -0.2989  0.0618
   81MOL   C18217942   1.252   5.488   4.044 -0.0078 -0.7640  0.2331
   81MOL   H18317943   1.094   5.629   4.027  0.1592 -0.4545 -0.9684
   81MOL   H18417944   1.059   5.841   4.138  0.8370  0.2145  0.0263
   81MOL   H18517945   0.998   5.751   4.280 -0.4457 -1.3277 -1.4849
   81MOL   H18617946   1.135   5.872   4.293 -2.4642  0.4820  1.0360
   81MOL   H18717947   1.357   5.491   4.075 -0.1900 -1.3815  0.9084
   81MOL   H18817948   1.255   5.451   3.941  0.7413  0.1072 -0.0683
   81MOL   C18917949   1.196   5.374   4.132  0.9080  0.0031 -0.2379
   81MOL   C19017950   1.261   5.241   4.115 -1.0617 -0.4963  0.0098
   81MOL   O19117951   1.216   5.141   4.060 -0.7515 -0.2524 -0.0327
   81MOL   C19217952   1.411   5.234   4.152  0.2304  0.0321 -0.0675
   81MOL   C19317953   1.038   5.360   4.107  0.0418  1.1001 -0.1324
   81MOL   H19417954   1.201   5.398   4.238  0.7236 -0.7925 -0.0429
   81MOL   H19517955   1.471   5.299   4.088  0.6101 -0.5976 -0.3627
   81MOL   H19617956   1.425   5.266   4.255  0.5975  1.4257 -0.5398
   81MOL   H19717957   1.434   5.128   4.141 -1.3464 -0.4115  0.7983
   81MOL   H19817958   1.016   5.319   4.008 -1.0404  0.4804  0.3520
   81MOL   H19917959   1.003   5.463   4.099 -2.3145  0.2954 -0.6589
   81MOL   C20017960   0.956   5.295   4.216  0.2460 -0.5761 -0.1457
   81MOL   C20117961   0.819   5.244   4.161  0.1415 -0.1434 -0.8646
   81MOL   O20217962   0.715   5.308   4.159 -0.7109  0.0936 -0.1333
   81MOL   C20317963   0.834   5.111   4.086  0.0528  0.5447  1.0390
   81MOL   C20417964   0.933   5.405   4.328 -0.2318 -0.0918 -0.3102
   81MOL   H20517965   1.012   5.213   4.261 -0.5050 -1.6494 -1.1789
   81MOL   H20617966   0.796   5.029   4.146 -0.2517 -0.3908 -0.3981
   81MOL   H20717967   0.772   5.113   3.996  0.5419 -1.8530  0.6062
   81MOL   H20817968   0.938   5.091   4.058 -0.3451 -0.1137 -0.0121
   81MOL   H20917969   0.843   5.464   4.307 -0.4279 -0.7289 -1.3179
   81MOL   H21017970   1.001   5.488   4.311  0.8150 -1.0311 -0.7447
   81MOL   C21117971   0.943   5.354   4.476 -0.4962  0.4000  0.0340
   81MOL   C21217972   1.085   5.317   4.526 -0.0243  0.2979 -0.2848
   81MOL   O21317973   1.176   5.259   4.468 -0.3292 -0.8987 -0.1366
   81MOL   C21417974   1.112   5.347   4.671  0.0471  0.0254 -0.4025
   81MOL   C21517975   0.847   5.243   4.509  0.2158 -0.2776 -0.3838
   81MOL   H21617976   0.906   5.435   4.539 -0.9818  0.1085  0.1316
   81MOL   H21717977   1.019   5.361   4.726  0.0252 -0.4924 -0.3064
   81MOL   H21817978   1.162   5.259   4.712  0.9991  0.1930 -1.1790
   81MOL   H21917979   1.178   5.433   4.683 -1.6496  1.3372 -0.1709
   81MOL   H22017980   0.888   5.155   4.459  1.6061 -0.5756  1.2412
   81MOL   H22117981   0.751   5.271   4.465  0.6284 -1.1646 -1.9254
   81MOL   H22217982   0.844   5.210   4.613  1.7999 -0.2966 -0.3206
   82MOL     C117983   1.239   7.828   6.497  0.0214 -0.8033  0.8096
   82MOL     C217984   1.157   0.109   6.457  0.4879  0.3829  0.6417
   82MOL     O317985   1.099   0.119   6.350  1.1119 -0.0699  0.2543
   82MOL     C417986   1.167   0.233   6.543 -0.3474  0.0030 -0.1634
   82MOL     C517987   1.363   7.799   6.412  0.2771  0.7366  0.1487
   82MOL     H617988   1.274   0.001   6.600 -1.2218 -0.1245  1.1367
   82MOL     H717989   1.240   0.300   6.498 -0.0231 -1.7282 -2.2883
   82MOL     H817990   1.069   0.281   6.535 -1.8169 -2.3127  2.8549
   82MOL     H917991   1.200   0.221   6.646 -0.5737  0.4000 -0.0421
   82MOL    H1017992   1.414   7.717   6.462 -2.0262 -0.5075  0.5511
   82MOL    H1117993   1.436   0.035   6.430  1.1586 -0.2319  0.8066
   82MOL    H1217994   1.175   7.740   6.499 -2.0614  0.6038 -1.6908
   82MOL    C1317995   1.340   7.768   6.260  0.9455 -0.2552 -0.6373
   82MOL    C1417996   1.237   7.646   6.241 -0.9380 -0.2334 -0.0751
   82MOL    O1517997   1.221   7.551   6.319  0.4910 -0.9022 -0.2566
   82MOL    C1617998   1.166   7.644   6.107 -0.1118  0.4529  0.4080
   82MOL    C1717999   1.476   7.727   6.181  0.5090  0.1837 -0.1194
   82MOL    H1818000   1.298   0.011   6.206 -0.2116  0.3755  1.2206
   82MOL    H1918001   1.170   7.743   6.063 -0.0963 -0.4935 -1.7654
   82MOL    H2018002   1.210   7.570   6.040  2.8450 -0.1682  2.8897
   82MOL    H2118003   1.060   7.619   6.117  0.5587 -1.0453  5.1942
   82MOL    H2218004   1.458   7.684   6.082 -0.2910 -0.6380  0.3800
   82MOL    H2318005   1.522   7.643   6.232  0.2622  0.3948  0.4522
   82MOL    C2418006   1.586   7.840   6.175  0.1388  0.0012  0.3926
   82MOL    C2518007   1.547   0.115   6.081 -0.2416  0.7674  0.2818
   82MOL    O2618008   1.577   0.225   6.119 -0.5855 -0.3132 -0.0990
   82MOL    C2718009   1.480   0.089   5.945 -0.1092  0.2760 -0.2983
   82MOL    C2818010   1.727   7.790   6.131  0.0424 -0.0291  0.0759
   82MOL    H2918011   1.594   0.037   6.276  0.8068 -0.3135  0.4663
   82MOL    H3018012   1.558   0.079   5.870  0.6692 -0.6938  0.6406
   82MOL    H3118013   1.401   0.014   5.950  0.7490 -0.6048  0.1729
   82MOL    H3218014   1.436   0.186   5.922 -0.3361  0.4991  1.0279
   82MOL    H3318015   1.793   0.035   6.137  0.7507 -0.6100  0.7063
   82MOL    H3418016   1.732   7.757   6.028  0.0131 -0.3324  0.1710
   82MOL    C3518017   1.787   7.684   6.229 -0.3573  0.2441  0.1684
   82MOL    C3618018   1.822   7.740   6.369  0.1323  0.7374  0.3461
   82MOL    O3718019   1.934   7.793   6.384  0.3670  0.6813  0.7168
   82MOL    C3818020   1.728   7.717   6.484 -0.0129 -0.1971  0.3943
   82MOL    C3918021   1.923   7.629   6.167 -0.5965  0.5151  0.4389
   82MOL    H4018022   1.721   7.599   6.247  0.2819 -0.4806 -0.8314
   82MOL    H4118023   1.707   7.814   6.527 -1.8991 -0.5176  0.2431
   82MOL    H4218024   1.635   7.671   6.451  0.7562 -1.2620 -0.3467
   82MOL    H4318025   1.777   7.649   6.554  0.3985 -0.6688 -0.3389
   82MOL    H4418026   1.972   7.571   6.245 -1.6654 -0.0351  0.7088
   82MOL    H4518027   1.984   7.718   6.153  1.3049 -0.7034  0.8915
   82MOL    C4618028   1.926   7.540   6.031  0.2978 -0.7223 -0.1106
   82MOL    C4718029   1.811   7.443   6.035 -0.2401  0.0150  0.1108
   82MOL    O4818030   1.716   7.452   5.959  1.0932 -0.0438 -0.2325
   82MOL    C4918031   1.819   7.337   6.143  1.2022 -0.2792 -0.1769
   82MOL    C5018032   2.066   7.480   5.992  0.5959  0.4831 -0.1146
   82MOL    H5118033   1.898   7.612   5.954 -1.2089 -0.1081  0.9693
   82MOL    H5218034   1.752   7.259   6.107 -0.4392  1.2236 -0.4643
   82MOL    H5318035   1.923   7.309   6.158  1.0202  0.6878  3.3318
   82MOL    H5418036   1.784   7.376   6.239  1.7383  1.1628 -0.5441
   82MOL    H5518037   2.086   7.393   6.054  0.0347  1.2401  1.1517
   82MOL    H5618038   2.144   7.549   6.023 -0.2727  0.6623  1.7662
   82MOL    C5718039   2.078   7.445   5.838  0.1985  0.4186 -0.9647
   82MOL    C5818040   2.029   7.298   5.811  0.3234  0.1591  0.0731
   82MOL    O5918041   2.073   7.204   5.867 -0.3811  0.1809 -0.1640
   82MOL    C6018042   1.903   7.277   5.726  0.6690 -0.4821 -1.2638
   82MOL    C6118043   2.222   7.466   5.777 -0.4109  0.0092  0.1157
   82MOL    H6218044   1.998   7.501   5.789 -0.9111 -0.3872 -0.0841
   82MOL    H6318045   1.809   7.318   5.762  1.6466  0.9552 -0.2778
   82MOL    H6418046   1.913   7.337   5.635 -3.9126  0.1898 -1.4555
   82MOL    H6518047   1.875   7.174   5.703  2.4987 -1.2047 -0.3532
   82MOL    H6618048   2.296   7.409   5.833  0.2900 -0.5829 -1.3862
   82MOL    H6718049   2.254   7.566   5.806  0.0900 -0.4707  1.2496
   82MOL    C6818050   2.263   7.452   5.622 -0.6320  0.2797  0.0615
   82MOL    C6918051   2.164   7.511   5.524 -0.1837  0.2078 -0.5873
   82MOL    O7018052   2.066   7.570   5.563 -0.4252 -0.6883  0.4208
   82MOL    C7118053   2.183   7.493   5.371 -0.3780  0.6544 -0.1184
   82MOL    C7218054   2.296   7.308   5.591 -0.2418  0.3905 -0.2905
   82MOL    H7318055   2.356   7.506   5.605  0.4677 -2.0368 -1.4869
   82MOL    H7418056   2.284   7.459   5.349 -0.8280 -0.7654 -0.0515
   82MOL    H7518057   2.110   7.422   5.334  2.1885 -1.0940 -1.9944
   82MOL    H7618058   2.159   7.583   5.315  0.9058  2.0621  1.5283
   82MOL    H7718059   2.312   7.292   5.484  1.0046 -1.5734  0.1573
   82MOL    H7818060   2.215   7.239   5.612  2.0732 -1.5225  2.6840
   82MOL    C7918061   2.416   7.244   5.662  0.3838  0.6292  0.2662
   82MOL    C8018062   2.540   7.335   5.660  0.0669  0.5598 -0.1091
   82MOL    O8118063   2.584   7.383   5.557 -0.0751  0.6658 -0.5012
   82MOL    C8218064   2.628   7.343   5.783 -0.2302 -0.3681  0.3411
   82MOL    C8318065   2.441   7.099   5.603 -0.6526  0.2478  0.3893
   82MOL    H8418066   2.392   7.234   5.768 -1.6720  0.7454 -0.1715
   82MOL    H8518067   2.653   7.447   5.803 -0.3332 -0.0980 -0.8996
   82MOL    H8618068   2.579   7.311   5.875 -2.2931 -1.1465 -0.9834
   82MOL    H8718069   2.724   7.294   5.767 -0.4280 -0.6345 -0.0302
   82MOL    H8818070   2.444   7.113   5.495 -2.2784 -1.8592  0.0371
   82MOL    H8918071   2.345   7.048   5.614  0.5134 -1.6527  2.1047
   82MOL    C9018072   2.551   7.009   5.661 -0.1800 -0.2058 -0.2445
   82MOL    C9118073   2.590   6.908   5.549 -0.1111  0.3800 -0.0197
   82MOL    O9218074   2.516   6.815   5.522  0.3123  0.2125  0.2119
   82MOL    C9318075   2.724   6.932   5.470 -0.7078  0.0219  0.1145
   82MOL    C9418076   2.503   6.935   5.793  0.5137  0.4007  0.6462
   82MOL    H9518077   2.639   7.071   5.678 -0.2509 -0.0943 -0.2795
   82MOL    H9618078   2.752   6.835   5.429  0.7904  1.3206 -2.0370
   82MOL    H9718079   2.724   7.003   5.387  1.5889  0.3370  0.3565
   82MOL    H9818080   2.802   6.968   5.537  0.3739 -2.2691  0.1200
   82MOL    H9918081   2.429   6.860   5.765 -0.9767  2.1641 -0.2247
   82MOL   H10018082   2.441   7.005   5.848  0.9236  0.8751  0.5068
   82MOL   C10118083   2.610   6.878   5.887 -0.3636  0.5172  0.6503
   82MOL   C10218084   2.740   6.955   5.902  0.2755  1.0622  0.5662
   82MOL   O10318085   2.811   6.975   5.805  0.6721  0.5230  0.5347
   82MOL   C10418086   2.779   7.007   6.035 -0.5561  0.3015  0.9946
   82MOL   C10518087   2.640   6.727   5.868  0.4562  1.0374 -0.0037
   82MOL   H10618088   2.573   6.891   5.988  3.3544 -1.2641  2.3424
   82MOL   H10718089   2.882   7.040   6.023 -0.8784  0.8738 -0.2436
   82MOL   H10818090   2.721   7.097   6.061 -1.2184  0.8624 -2.2069
   82MOL   H10918091   2.767   6.934   6.115 -1.8243 -0.9111 -0.2843
   82MOL   H11018092   2.717   6.701   5.941  0.9131  0.6041 -0.6414
   82MOL   H11118093   2.676   6.713   5.766  2.5577 -1.0709  0.9629
   82MOL   C11218094   2.522   6.622   5.870 -0.6973 -0.1295 -0.6762
   82MOL   C11318095   2.439   6.636   5.999  0.4244 -0.1386  0.6717
   82MOL   O11418096   2.478   6.698   6.094  0.0118  0.2693 -0.0534
   82MOL   C11518097   2.298   6.570   5.995 -0.5755 -0.1811 -0.6465
   82MOL   C11618098   2.566   6.481   5.835 -0.2919  0.0105 -0.5083
   82MOL   H11718099   2.453   6.657   5.793  0.8528  2.2377 -1.0646
   82MOL   H11818100   2.253   6.583   6.093 -1.3957  2.3453 -1.3146
   82MOL   H11918101   2.245   6.613   5.910 -0.2624 -0.7342 -1.1286
   82MOL   H12018102   2.302   6.461   5.986  1.5006 -0.1784 -0.0081
   82MOL   H12118103   2.490   6.409   5.867  0.5875 -0.5450  0.3685
   82MOL   H12218104   2.653   6.456   5.896 -0.0894  0.1032 -0.7624
   82MOL   C12318105   2.603   6.455   5.690 -0.0426  0.1793 -0.6153
   82MOL   C12418106   2.482   6.392   5.615 -0.2915 -0.0862  0.8940
   82MOL   O12518107   2.454   6.275   5.615  0.0565  0.2758  0.1503
   82MOL   C12618108   2.405   6.486   5.533  0.5961  0.1137  0.1037
   82MOL   C12718109   2.732   6.367   5.682 -0.3798 -0.0313 -0.5990
   82MOL   H12818110   2.619   6.542   5.627 -0.2717  0.0978 -0.7884
   82MOL   H12918111   2.463   6.532   5.452  1.2418  0.7285  0.9099
   82MOL   H13018112   2.321   6.427   5.495  0.6808 -0.4346  0.7614
   82MOL   H13118113   2.363   6.571   5.587  2.6220  0.2588  1.4940
   82MOL   H13218114   2.752   6.337   5.579  0.3784 -0.5784 -0.2955
   82MOL   H13318115   2.707   6.267   5.718 -1.1678  0.8832  1.5155
   82MOL   C13418116   2.871   6.413   5.740 -0.0063 -0.1551  0.6982
   82MOL   C13518117   2.922   6.549   5.689  0.6871  0.0360 -0.4910
   82MOL   O13618118   2.867   6.602   5.594  0.3192  0.1867  0.1946
   82MOL   C13718119   3.026   6.633   5.758  0.6075  0.5869 -0.3382
   82MOL   C13818120   2.984   6.305   5.728 -0.0783  0.5457  0.5576
   82MOL   H13918121   2.853   6.433   5.846 -1.6785 -1.6342  0.7119
   82MOL   H14018122   3.115   6.576   5.787  0.3504 -0.2141 -1.0910
   82MOL   H14118123   3.050   6.722   5.700  0.7201  0.6939 -0.1291
   82MOL   H14218124   2.982   6.657   5.855  2.2770 -0.8967  0.8290
   82MOL   H14318125   3.040   6.332   5.639  0.7430  0.2055  0.9703
   82MOL   H14418126   2.956   6.203   5.699  1.6726 -0.0352  0.8718
   82MOL   C14518127   3.069   6.281   5.851  0.0348 -0.1912  0.6755
   82MOL   C14618128   3.215   6.255   5.805 -0.2246  0.2611  0.1182
   82MOL   O14718129   3.300   6.335   5.835 -0.0376 -0.0777 -0.4064
   82MOL   C14818130   3.253   6.138   5.723  0.4584  0.5607 -1.0683
   82MOL   C14918131   3.011   6.170   5.936 -0.6341  0.7260  0.5898
   82MOL   H15018132   3.084   6.371   5.912 -0.6994 -0.0786  0.6848
   82MOL   H15118133   3.192   6.050   5.743  0.9276  0.7124  1.1430
   82MOL   H15218134   3.225   6.168   5.622 -1.3006  1.4741 -0.3295
   82MOL   H15318135   3.356   6.115   5.751 -0.4262 -0.7228  1.2439
   82MOL   H15418136   3.015   6.069   5.895 -2.2166  1.9076 -2.6558
   82MOL   H15518137   2.906   6.193   5.955 -1.3401 -2.8162  1.2134
   82MOL   C15618138   3.076   6.165   6.079 -0.0400 -0.2575  0.2633
   82MOL   C15718139   3.039   6.043   6.158 -0.1768 -0.0475 -0.1052
   82MOL   O15818140   2.949   5.970   6.114  0.6724  0.1685 -0.2058
   82MOL   C15918141   3.137   5.986   6.262 -0.6236 -0.5679 -0.9801
   82MOL   C16018142   3.066   6.293   6.158 -0.0265  0.2739 -0.2389
   82MOL   H16118143   3.183   6.153   6.063 -0.0912 -1.6374  0.8779
   82MOL   H16218144   3.227   5.946   6.215  0.8168  0.7567  0.5759
   82MOL   H16318145   3.159   6.064   6.335 -0.3309 -1.7006  0.1762
   82MOL   H16418146   3.089   5.907   6.320 -1.0605 -0.2523 -0.9146
   82MOL   H16518147   3.112   6.376   6.104  1.7390 -0.0406  0.7392
   82MOL   H16618148   3.134   6.263   6.237 -2.9994 -1.0573  1.9239
   82MOL   C16718149   2.921   6.314   6.208 -0.3596 -0.8593  0.4112
   82MOL   C16818150   2.855   6.453   6.181  0.4759  0.1527  0.3816
   82MOL   O16918151   2.919   6.543   6.128 -0.6894 -0.8949 -0.0259
   82MOL   C17018152   2.705   6.462   6.220  0.1854 -0.3187 -0.1380
   82MOL   C17118153   2.904   6.284   6.364  0.2154 -0.1277  0.0419
   82MOL   H17218154   2.846   6.247   6.166 -0.2025 -1.0541  0.4362
   82MOL   H17318155   2.672   6.548   6.278  1.9477  1.2727 -1.4063
   82MOL   H17418156   2.656   6.478   6.124  1.5963 -0.0683 -0.8271
   82MOL   H17518157   2.672   6.372   6.270 -0.5325  0.7910  1.4061
   82MOL   H17618158   2.913   6.176   6.374  0.3969 -0.4453 -3.0062
   82MOL   H17718159   2.808   6.307   6.411 -0.5528 -0.0320 -1.5567
   82MOL   C17818160   2.997   6.357   6.465 -0.2986 -0.6801 -0.3846
   82MOL   C17918161   3.031   6.265   6.585  0.4965  0.1695 -0.3699
   82MOL   O18018162   2.939   6.215   6.650 -0.0319 -0.0810 -0.2060
   82MOL   C18118163   3.179   6.239   6.608 -0.2910 -0.2385  0.1227
   82MOL   C18218164   2.946   6.488   6.524  0.1368  0.1571  0.1214
   82MOL   H18318165   3.097   6.369   6.422 -0.7353  2.6340 -0.5455
   82MOL   H18418166   3.221   6.172   6.534  2.2951  1.2270  0.2084
   82MOL   H18518167   3.232   6.333   6.622 -2.8063  0.8265  3.1066
   82MOL   H18618168   3.185   6.181   6.701  1.1446  1.8956  1.4065
   82MOL   H18718169   2.874   6.452   6.597  0.6889  0.8953  1.0402
   82MOL   H18818170   2.883   6.540   6.452 -2.5618 -0.6001  1.8547
   82MOL   C18918171   3.060   6.580   6.575  0.0515 -0.4660  0.2835
   82MOL   C19018172   2.992   6.668   6.680  0.2704  0.5867  0.5429
   82MOL   O19118173   2.956   6.780   6.648 -0.0817 -0.2332 -0.3814
   82MOL   C19218174   2.968   6.600   6.820  0.7592  0.6654  0.5812
   82MOL   C19318175   3.123   6.680   6.469 -0.4430  0.3279  0.4346
   82MOL   H19418176   3.138   6.524   6.628 -0.1671  1.5274  2.7438
   82MOL   H19518177   2.973   6.492   6.812 -0.4752  0.6441  0.0028
   82MOL   H19618178   3.038   6.628   6.899 -0.2107  0.7609  1.4148
   82MOL   H19718179   2.868   6.620   6.860  0.2377  1.7737 -1.2080
   82MOL   H19818180   3.172   6.766   6.515  2.4732  0.6744 -3.0494
   82MOL   H19918181   3.045   6.714   6.400 -0.8758 -1.0845  0.2256
   82MOL   C20018182   3.227   6.622   6.378 -0.5734  0.3100  0.8028
   82MOL   C20118183   3.331   6.541   6.452 -0.5413 -0.4846 -1.0298
   82MOL   O20218184   3.365   6.431   6.415  0.6617  0.0846  0.6178
   82MOL   C20318185   3.404   6.611   6.568  0.3249  0.1025  0.1745
   82MOL   C20418186   3.284   6.736   6.280 -0.2718  0.5489 -0.0111
   82MOL   H20518187   3.181   6.549   6.312  0.4991 -0.1658  0.5654
   82MOL   H20618188   3.330   6.670   6.622 -0.6978  0.2745 -1.3852
   82MOL   H20718189   3.465   6.541   6.626  0.6604  1.1574  1.1169
   82MOL   H20818190   3.469   6.675   6.509 -0.5959 -1.1923 -2.3000
   82MOL   H20918191   3.347   6.811   6.328  0.5020  1.1685 -1.9554
   82MOL   H21018192   3.200   6.790   6.237  1.0290 -0.1092 -3.5647
   82MOL   C21118193   3.362   6.671   6.160  0.4655  0.0508  0.0819
   82MOL   C21218194   3.462   6.766   6.098  1.2999 -0.2963  0.3100
   82MOL   O21318195   3.435   6.880   6.076  0.0619  0.0399 -0.1099
   82MOL   C21418196   3.590   6.705   6.040  0.0616 -0.0965 -0.0939
   82MOL   C21518197   3.269   6.605   6.051 -0.3191 -0.0104 -0.2345
   82MOL   H21618198   3.422   6.589   6.200 -0.9531 -2.1086 -2.0843
   82MOL   H21718199   3.665   6.700   6.119  0.4618 -3.2454 -0.6159
   82MOL   H21818200   3.579   6.608   5.991 -0.0375  2.0653 -4.6000
   82MOL   H21918201   3.635   6.763   5.959 -0.2248  1.7494  1.0578
   82MOL   H22018202   3.165   6.595   6.083 -1.0228  2.8535 -1.4289
   82MOL   H22118203   3.316   6.512   6.020 -0.0718 -0.3104  1.0414
   82MOL   H22218204   3.272   6.656   5.955  2.0323  0.5267  0.0978
   83MOL     C118205   5.586   1.058   3.345  0.1380 -0.7160 -0.5458
   83MOL     C218206   5.503   1.113   3.231 -0.2802 -0.0981  0.0597
   83MOL     O318207   5.416   1.049   3.163  0.1304  0.0357  0.2354
   83MOL     C418208   5.533   1.265   3.209  0.0036 -0.2551 -0.0701
   83MOL     C518209   5.659   0.928   3.326 -0.2648  0.0535  0.0395
   83MOL     H618210   5.666   1.123   3.378  0.4172 -0.6692 -1.2908
   83MOL     H718211   5.540   1.277   3.101  1.0459 -1.2522 -0.1261
   83MOL     H818212   5.453   1.333   3.236 -0.2257 -0.5601  0.0234
   83MOL     H918213   5.630   1.296   3.246  0.6863  1.5712 -3.2304
   83MOL    H1018214   5.729   0.922   3.409  0.5244 -0.0063 -0.6292
   83MOL    H1118215   5.712   0.931   3.231 -1.0938  0.9459 -0.3972
   83MOL    H1218216   5.519   1.068   3.431  2.3694  0.6640  1.0805
   83MOL    C1318217   5.576   0.794   3.321 -0.6884 -0.2307  0.3594
   83MOL    C1418218   5.505   0.756   3.453 -0.3733 -0.3593  0.8375
   83MOL    O1518219   5.556   0.790   3.557  0.4190 -0.0160 -0.3880
   83MOL    C1618220   5.387   0.654   3.442  0.2143 -0.0746 -0.1168
   83MOL    C1718221   5.667   0.679   3.282  0.2256 -0.3250 -0.8315
   83MOL    H1818222   5.492   0.803   3.252 -0.8794 -2.2651  0.2858
   83MOL    H1918223   5.299   0.688   3.497  1.2684  1.2922  0.7715
   83MOL    H2018224   5.370   0.641   3.336  1.0806 -0.1806 -0.2486
   83MOL    H2118225   5.421   0.566   3.497 -1.7313 -0.9172 -0.2438
   83MOL    H2218226   5.629   0.578   3.299 -0.2430 -0.0190 -0.0525
   83MOL    H2318227   5.753   0.695   3.347  0.9503 -2.6543 -1.1526
   83MOL    C2418228   5.711   0.677   3.131 -0.7533 -0.1558  0.7518
   83MOL    C2518229   5.599   0.622   3.041 -0.2871 -0.6506 -1.0892
   83MOL    O2618230   5.529   0.694   2.969 -0.4708  0.6167  0.1424
   83MOL    C2718231   5.559   0.477   3.058  0.9367  0.3700 -0.3995
   83MOL    C2818232   5.841   0.597   3.104 -0.5507  0.6472 -0.7778
   83MOL    H2918233   5.730   0.779   3.099 -1.1342  0.1630  1.5139
   83MOL    H3018234   5.595   0.429   3.150 -2.2354  0.7191  1.1097
   83MOL    H3118235   5.451   0.462   3.061  1.1314 -1.3674 -1.1669
   83MOL    H3218236   5.596   0.418   2.974 -1.0242 -1.2402 -0.1684
   83MOL    H3318237   5.831   0.547   3.008  1.3355 -0.3467 -0.4869
   83MOL    H3418238   5.836   0.520   3.181 -2.0280  1.5389  0.0499
   83MOL    C3518239   5.978   0.672   3.105  0.2428  0.3846 -0.2330
   83MOL    C3618240   5.977   0.788   3.002  0.4529  0.2243  0.1634
   83MOL    O3718241   5.919   0.777   2.890 -0.5721  0.0005 -0.0965
   83MOL    C3818242   6.051   0.914   3.035 -0.6769 -0.3647  0.0918
   83MOL    C3918243   6.093   0.579   3.056  0.2641 -0.6158 -0.1841
   83MOL    H4018244   5.997   0.713   3.204  3.4595  3.0386 -1.8536
   83MOL    H4118245   6.117   0.942   2.952  1.5041 -1.2919  1.4721
   83MOL    H4218246   5.989   1.002   3.055 -0.3295  0.0487 -0.6161
   83MOL    H4318247   6.121   0.901   3.117  0.7367  1.6940 -0.7396
   83MOL    H4418248   6.094   0.576   2.947 -1.9966  0.1680 -0.2532
   83MOL    H4518249   6.074   0.478   3.094 -0.2374 -0.9221 -1.2187
   83MOL    C4618250   6.236   0.613   3.110 -0.2967  1.0804 -0.4211
   83MOL    C4718251   6.347   0.548   3.025 -0.2833 -0.1079  0.8541
   83MOL    O4818252   6.354   0.425   3.004 -0.4637  0.1580  0.2979
   83MOL    C4918253   6.455   0.639   2.982  0.1195 -0.4839  0.1634
   83MOL    C5018254   6.244   0.579   3.256  0.7027  0.6985 -0.2570
   83MOL    H5118255   6.241   0.721   3.093 -0.1802  1.9534  4.5164
   83MOL    H5218256   6.550   0.590   3.005  0.5480  0.2844  0.0463
   83MOL    H5318257   6.448   0.637   2.873 -1.3171  0.4941  0.2313
   83MOL    H5418258   6.439   0.739   3.022  1.3125 -0.5844  0.9165
   83MOL    H5518259   6.235   0.471   3.265 -2.8975  1.0697  1.2322
   83MOL    H5618260   6.157   0.614   3.311  0.8400  0.2620  0.2455
   83MOL    C5718261   6.369   0.618   3.340  0.7861 -0.1293  0.2882
   83MOL    C5818262   6.356   0.564   3.485  0.3518 -0.1421  0.4140
   83MOL    O5918263   6.339   0.641   3.585 -0.8026 -0.1338 -0.1910
   83MOL    C6018264   6.362   0.414   3.502  1.1705 -0.3290 -0.2683
   83MOL    C6118265   6.397   0.773   3.341 -0.5016  0.0006 -0.3334
   83MOL    H6218266   6.456   0.562   3.305 -0.5652 -2.1733  0.1008
   83MOL    H6318267   6.301   0.361   3.428  1.9449  4.0597 -4.2588
   83MOL    H6418268   6.461   0.376   3.477  1.6288 -0.2557  1.3881
   83MOL    H6518269   6.344   0.385   3.606 -1.5800  0.0247 -0.5966
   83MOL    H6618270   6.321   0.823   3.401 -2.7896 -2.4260 -1.0653
   83MOL    H6718271   6.382   0.807   3.239 -0.1781 -1.3172 -0.8395
   83MOL    C6818272   6.534   0.812   3.386 -0.2032  0.0935 -0.4373
   83MOL    C6918273   6.539   0.957   3.435  0.0981  0.1555  0.7141
   83MOL    O7018274   6.539   1.053   3.355  0.1579 -0.4408  0.5746
   83MOL    C7118275   6.534   0.974   3.589  0.1906  0.5766 -0.0021
   83MOL    C7218276   6.642   0.778   3.283  0.4406  0.3892 -0.0084
   83MOL    H7318277   6.555   0.752   3.474 -0.5034  0.0976 -0.3619
   83MOL    H7418278   6.462   0.903   3.629  0.1163 -0.1079 -1.3215
   83MOL    H7518279   6.630   0.957   3.639  0.6286 -1.8572 -1.5611
   83MOL    H7618280   6.506   1.075   3.619 -1.2766 -0.0942  0.9489
   83MOL    H7718281   6.608   0.810   3.185  2.1078  1.1221 -0.3629
   83MOL    H7818282   6.632   0.671   3.263  0.5170 -0.2481  3.1620
   83MOL    C7918283   6.796   0.785   3.312  0.4532  0.0122  0.2021
   83MOL    C8018284   6.833   0.737   3.453  0.4304 -0.6608  0.7260
   83MOL    O8118285   6.880   0.807   3.540 -0.1560 -0.3052  0.3887
   83MOL    C8218286   6.791   0.594   3.488  0.0165 -0.3724  0.4758
   83MOL    C8318287   6.846   0.927   3.288  0.2820  0.2261 -0.0546
   83MOL    H8418288   6.846   0.712   3.248 -0.6055 -2.5857  2.2230
   83MOL    H8518289   6.689   0.589   3.524  0.4953 -2.7937  1.6441
   83MOL    H8618290   6.795   0.519   3.408 -0.7142  1.3743 -1.2293
   83MOL    H8718291   6.851   0.543   3.564  1.0400 -1.8808 -1.2849
   83MOL    H8818292   6.951   0.932   3.318  0.1309 -0.7424  0.6679
   83MOL    H8918293   6.800   0.997   3.359 -0.0905  0.4867 -0.5483
   83MOL    C9018294   6.831   0.986   3.148 -0.2057  0.6044 -0.4340
   83MOL    C9118295   6.897   0.897   3.043  0.1719  0.7854 -0.6222
   83MOL    O9218296   6.824   0.844   2.962 -0.3380  0.1645 -0.0535
   83MOL    C9318297   7.043   0.867   3.053 -0.2274  0.1194 -0.1031
   83MOL    C9418298   6.864   1.136   3.140  0.1343  0.8567 -0.0956
   83MOL    H9518299   6.724   0.987   3.126 -0.6184 -2.2258  1.1094
   83MOL    H9618300   7.086   0.959   3.014  0.4235 -0.1046  0.0839
   83MOL    H9718301   7.072   0.854   3.157 -1.0294 -0.1613  0.0847
   83MOL    H9818302   7.075   0.778   3.000  2.2398  2.2794 -2.4180
   83MOL    H9918303   6.972   1.141   3.147  0.3212 -1.3386 -1.0074
   83MOL   H10018304   6.820   1.186   3.226  0.6817  0.5508  0.3554
   83MOL   C10118305   6.828   1.198   3.005  0.1580  0.7057  0.3561
   83MOL   C10218306   6.941   1.215   2.907 -0.0862 -0.3546 -0.0957
   83MOL   O10318307   7.059   1.239   2.948  0.6112 -0.2613  0.4276
   83MOL   C10418308   6.905   1.206   2.761  0.0342  0.0103 -0.3877
   83MOL   C10518309   6.744   1.323   2.998  0.5000 -0.5448  0.7056
   83MOL   H10618310   6.771   1.125   2.947  0.8666  0.2925  0.1739
   83MOL   H10718311   6.820   1.138   2.758  0.7277 -1.0355  2.0452
   83MOL   H10818312   6.877   1.298   2.711  1.8081  1.7447  1.6633
   83MOL   H10918313   6.985   1.166   2.698 -0.3378  0.6870 -1.2927
   83MOL   H11018314   6.722   1.371   2.903 -0.1884  0.3983  1.3360
   83MOL   H11118315   6.806   1.394   3.052  1.1147 -1.0727  0.7148
   83MOL   C11218316   6.601   1.313   3.061  0.5015  0.3196 -0.5424
   83MOL   C11318317   6.516   1.224   2.961  0.1791 -0.0096 -0.2881
   83MOL   O11418318   6.518   1.240   2.841 -0.1088 -0.2071 -0.3839
   83MOL   C11518319   6.443   1.105   3.025  0.2845 -0.1253 -0.4467
   83MOL   C11618320   6.540   1.458   3.078 -0.1193  0.2950 -0.7322
   83MOL   H11718321   6.614   1.261   3.156  1.6005 -1.6028 -1.6984
   83MOL   H11818322   6.502   1.047   3.096  1.8831  1.5109 -0.3910
   83MOL   H11918323   6.366   1.143   3.091 -0.1276 -3.6491  1.2165
   83MOL   H12018324   6.398   1.035   2.954 -0.5750 -0.6831  0.6298
   83MOL   H12118325   6.510   1.510   2.987 -2.2055  2.0168  0.8812
   83MOL   H12218326   6.613   1.527   3.118  0.1750  0.4358 -1.5008
   83MOL   C12318327   6.412   1.472   3.167  0.2975  0.5300 -0.0920
   83MOL   C12418328   6.424   1.399   3.303 -0.0841 -0.0038 -0.0378
   83MOL   O12518329   6.329   1.336   3.344  0.3969  0.2212 -0.2519
   83MOL   C12618330   6.547   1.417   3.388 -0.1381  0.0475 -0.2641
   83MOL   C12718331   6.287   1.439   3.089  0.5061  0.2045  0.3252
   83MOL   H12818332   6.397   1.579   3.179  1.6296  0.5616  1.5420
   83MOL   H12918333   6.600   1.324   3.408  0.3619  0.2683 -0.5674
   83MOL   H13018334   6.627   1.469   3.337  0.8049 -0.4788  0.6435
   83MOL   H13118335   6.539   1.464   3.486  0.9530  0.6217 -0.4414
   83MOL   H13218336   6.285   1.332   3.072 -0.1777 -0.3534  3.7021
   83MOL   H13318337   6.284   1.477   2.986 -1.2269  0.6721  0.5358
   83MOL   C13418338   6.148   1.479   3.153  0.7205  0.9385 -0.7895
   83MOL   C13518339   6.051   1.354   3.157  0.0166  0.6966 -0.4143
   83MOL   O13618340   6.037   1.271   3.061  0.0358 -0.3830  0.2578
   83MOL   C13718341   5.985   1.334   3.290  0.3018  0.5343  0.7139
   83MOL   C13818342   6.086   1.598   3.083  0.3375 -0.2566 -0.7376
   83MOL   H13918343   6.163   1.515   3.255  1.0187  0.7637 -0.7725
   83MOL   H14018344   6.001   1.227   3.307 -0.6033  0.3827  0.6657
   83MOL   H14118345   6.030   1.384   3.376  3.7106 -0.6430 -0.2848
   83MOL   H14218346   5.880   1.362   3.293  0.0953 -0.0081 -0.9809
   83MOL   H14318347   6.085   1.584   2.975 -1.8042 -2.2213 -0.5050
   83MOL   H14418348   6.148   1.686   3.100  0.9075 -0.8738  0.4593
   83MOL   C14518349   5.943   1.640   3.110 -0.2303  0.4044  0.4611
   83MOL   C14618350   5.910   1.751   3.006  0.6109 -0.2572  0.5469
   83MOL   O14718351   5.974   1.848   3.002 -0.4641 -0.0063 -0.1619
   83MOL   C14818352   5.803   1.712   2.903  0.2295 -0.0038  0.9987
   83MOL   C14918353   5.925   1.684   3.253  0.1388  0.2357 -0.5953
   83MOL   H15018354   5.882   1.552   3.089  0.2315 -0.5531  3.0137
   83MOL   H15118355   5.707   1.758   2.924  0.0717 -0.0211  0.3280
   83MOL   H15218356   5.835   1.736   2.801 -1.0574  0.4409  0.6957
   83MOL   H15318357   5.795   1.604   2.891 -0.3750  0.1911 -0.4329
   83MOL   H15418358   5.981   1.775   3.275  1.8563 -0.9828  0.1905
   83MOL   H15518359   5.973   1.615   3.323  0.3806 -1.1398 -2.0832
   83MOL   C15618360   5.784   1.713   3.307  0.7659 -0.1805  0.5778
   83MOL   C15718361   5.692   1.592   3.312 -0.0302 -1.1759  0.1864
   83MOL   O15818362   5.606   1.573   3.227  0.2003 -0.0392 -0.1975
   83MOL   C15918363   5.706   1.498   3.434 -0.2777 -0.4394 -0.5746
   83MOL   C16018364   5.711   1.833   3.250  0.1822 -0.2595 -0.7761
   83MOL   H16118365   5.793   1.741   3.412  0.5291 -1.9073  1.0701
   83MOL   H16218366   5.805   1.454   3.444 -1.1542 -2.5828 -0.8526
   83MOL   H16318367   5.696   1.569   3.515  1.4200 -1.1716  0.2915
   83MOL   H16418368   5.634   1.416   3.438  0.4040 -1.0365 -0.5023
   83MOL   H16518369   5.608   1.826   3.284 -0.1091 -0.9387 -1.7545
   83MOL   H16618370   5.693   1.806   3.146 -0.0464  0.3157 -0.8863
   83MOL   C16718371   5.785   1.966   3.253 -0.1236  0.0131  0.5151
   83MOL   C16818372   5.826   2.007   3.397  0.2899 -0.3268  0.2417
   83MOL   O16918373   5.759   1.981   3.493 -0.2301  0.7692 -0.2248
   83MOL   C17018374   5.954   2.085   3.413 -0.2778  0.0817  0.5722
   83MOL   C17118375   5.712   2.074   3.180  0.0954  0.5624  0.1946
   83MOL   H17218376   5.881   1.963   3.201 -1.0428  0.9208 -1.2818
   83MOL   H17318377   5.940   2.149   3.500  0.0768  0.6065  0.2438
   83MOL   H17418378   6.044   2.026   3.428 -0.5507 -0.6978 -0.7280
   83MOL   H17518379   5.964   2.149   3.325 -1.9873  0.4090  0.5886
   83MOL   H17618380   5.718   2.049   3.074 -1.4582  0.9106  0.0204
   83MOL   H17718381   5.759   2.171   3.194  0.6242  0.1239  1.6180
   83MOL   C17818382   5.559   2.088   3.224  0.3918  0.3636  0.3262
   83MOL   C17918383   5.470   2.005   3.127  0.0674  0.0689 -0.4544
   83MOL   O18018384   5.510   1.981   3.015 -0.2844  0.3092  0.2555
   83MOL   C18118385   5.349   1.936   3.183 -0.2455 -0.1721  0.3563
   83MOL   C18218386   5.513   2.237   3.221 -0.0666  0.4992 -0.6081
   83MOL   H18318387   5.554   2.062   3.330  1.5638  0.1199  0.3290
   83MOL   H18418388   5.267   2.007   3.192 -0.2085 -0.1698  0.6579
   83MOL   H18518389   5.327   1.854   3.114 -0.0796 -0.1464  0.2716
   83MOL   H18618390   5.380   1.900   3.280  1.4601  0.7281  0.1645
   83MOL   H18718391   5.420   2.264   3.171 -1.4361  0.1350  1.6704
   83MOL   H18818392   5.583   2.297   3.164 -1.3147  0.7268 -1.9024
   83MOL   C18918393   5.509   2.285   3.367  0.6803 -0.2734  0.0544
   83MOL   C19018394   5.395   2.220   3.447 -0.1437 -0.2241  0.5332
   83MOL   O19118395   5.285   2.201   3.398 -0.6925  0.0148 -0.3275
   83MOL   C19218396   5.433   2.175   3.587 -0.7170 -0.1579  0.2685
   83MOL   C19318397   5.486   2.433   3.367  0.2130 -0.7321  0.6073
   83MOL   H19418398   5.607   2.264   3.408  0.4489  1.0598  1.3563
   83MOL   H19518399   5.515   2.237   3.622 -1.3868  0.7969  0.1653
   83MOL   H19618400   5.350   2.210   3.649 -0.2112  3.8831 -1.2361
   83MOL   H19718401   5.457   2.069   3.597  2.4616  0.5175  0.1110
   83MOL   H19818402   5.407   2.462   3.436  0.9459  0.9266  0.7784
   83MOL   H19918403   5.437   2.466   3.275  1.6632  2.7262  0.9977
   83MOL   C20018404   5.610   2.520   3.376 -0.7182  0.2066 -0.2500
   83MOL   C20118405   5.714   2.490   3.266 -0.1498  0.2928 -0.4118
   83MOL   O20218406   5.810   2.416   3.279  0.7174  0.5149 -0.1482
   83MOL   C20318407   5.696   2.562   3.135  0.7646  0.5126 -0.4077
   83MOL   C20418408   5.672   2.501   3.518 -0.4857  0.0529 -0.2274
   83MOL   H20518409   5.569   2.620   3.362 -0.1996  0.7449  1.9296
   83MOL   H20618410   5.795   2.568   3.091  1.0153 -0.3846  0.0395
   83MOL   H20718411   5.638   2.503   3.063  1.8107  0.6097 -1.3410
   83MOL   H20818412   5.643   2.658   3.140  0.5138  0.4147 -1.0321
   83MOL   H20918413   5.720   2.404   3.534  1.5809  0.8113 -1.6744
   83MOL   H21018414   5.592   2.496   3.591 -1.1653 -0.6463 -1.0045
   83MOL   C21118415   5.771   2.608   3.570 -0.5641 -0.4286 -0.0786
   83MOL   C21218416   5.831   2.574   3.705 -0.3526 -0.7645 -0.0632
   83MOL   O21318417   5.949   2.589   3.722 -0.3086  0.1614  0.6021
   83MOL   C21418418   5.746   2.522   3.818 -0.1498 -0.6874 -0.1463
   83MOL   C21518419   5.690   2.747   3.582  0.2042  0.7562 -0.6935
   83MOL   H21618420   5.851   2.632   3.499 -0.8638 -0.8330 -0.5590
   83MOL   H21718421   5.643   2.554   3.801 -0.3796 -1.7038 -0.7303
   83MOL   H21818422   5.745   2.413   3.823  0.6747 -0.7783 -1.8974
   83MOL   H21918423   5.787   2.551   3.915  0.2428  0.4092 -0.6377
   83MOL   H22018424   5.609   2.724   3.652 -0.2165  0.1432 -1.3661
   83MOL   H22118425   5.645   2.773   3.486 -1.1856  0.5514 -0.1115
   83MOL   H22218426   5.746   2.828   3.629 -0.0739  0.4490  0.1763
   84MOL     C118427   4.905   1.677   2.778 -0.0452  0.0494 -0.1648
   84MOL     C218428   4.952   1.757   2.897 -0.1888 -0.5100 -0.9468
   84MOL     O318429   5.067   1.750   2.930  0.2469 -0.0555 -0.2231
   84MOL     C418430   4.853   1.838   2.981 -0.2470 -0.9226  0.6253
   84MOL     C518431   4.872   1.533   2.826 -0.1423 -0.1293  0.4505
   84MOL     H618432   4.822   1.729   2.730 -0.2351 -1.9351 -2.0855
   84MOL     H718433   4.825   1.791   3.075  0.4648 -2.7069 -0.0446
   84MOL     H818434   4.900   1.936   2.996 -0.7992 -0.3489 -1.1703
   84MOL     H918435   4.764   1.863   2.922 -0.5153 -0.2852  1.2853
   84MOL    H1018436   4.817   1.548   2.919  0.3893 -1.7051  1.0318
   84MOL    H1118437   4.962   1.472   2.837  0.3989  0.7417  1.0295
   84MOL    H1218438   4.980   1.662   2.700  0.5113  1.4913  0.0704
   84MOL    C1318439   4.771   1.462   2.730 -0.0070  0.8367 -1.2233
   84MOL    C1418440   4.637   1.544   2.716 -0.3778  0.1082  0.5065
   84MOL    O1518441   4.600   1.624   2.806  0.7229 -0.0681 -0.3333
   84MOL    C1618442   4.557   1.522   2.587  0.2746  0.1219 -0.1716
   84MOL    C1718443   4.755   1.316   2.772  0.2189 -0.3599 -0.9940
   84MOL    H1818444   4.799   1.461   2.625  0.1277 -0.3782 -1.1802
   84MOL    H1918445   4.470   1.457   2.599 -0.1613  1.2440  3.1464
   84MOL    H2018446   4.528   1.622   2.556  1.0517  0.0954 -1.0176
   84MOL    H2118447   4.617   1.480   2.506 -0.9078  0.6156 -1.3244
   84MOL    H2218448   4.852   1.274   2.799  0.7114  1.0258 -0.5601
   84MOL    H2318449   4.715   1.270   2.682 -0.6808 -2.2265  0.3214
   84MOL    C2418450   4.661   1.290   2.897  0.0010 -0.2838 -0.1995
   84MOL    C2518451   4.741   1.286   3.029  0.1200  0.7403  0.1593
   84MOL    O2618452   4.817   1.189   3.049 -0.0408  0.1507  0.1260
   84MOL    C2718453   4.726   1.398   3.124  0.0811 -0.1238 -0.1594
   84MOL    C2818454   4.577   1.156   2.880  0.1966  0.1356  0.5718
   84MOL    H2918455   4.590   1.373   2.900  1.7550  1.2391 -0.6212
   84MOL    H3018456   4.656   1.474   3.089 -0.6694 -1.5442 -1.8557
   84MOL    H3118457   4.692   1.361   3.221  0.5963 -1.4765 -0.4778
   84MOL    H3218458   4.824   1.442   3.139 -0.2428  0.0340  1.5611
   84MOL    H3318459   4.630   1.061   2.882 -0.3410 -0.1527  1.5052
   84MOL    H3418460   4.530   1.152   2.782  1.6180  0.1291 -0.1164
   84MOL    C3518461   4.455   1.158   2.973 -0.1122 -0.3414  0.3653
   84MOL    C3618462   4.419   1.016   3.003 -0.2076  0.0974  0.2030
   84MOL    O3718463   4.310   0.969   2.976  0.1379 -0.0693 -0.3890
   84MOL    C3818464   4.507   0.942   3.102  0.1201 -0.9616  0.1816
   84MOL    C3918465   4.332   1.252   2.916 -0.6480  1.2063  0.0364
   84MOL    H4018466   4.477   1.203   3.070  0.3044  0.2539 -0.0006
   84MOL    H4118467   4.589   0.880   3.065  1.6037  0.2798  1.3147
   84MOL    H4218468   4.547   1.017   3.170 -2.2304  0.6552 -0.1368
   84MOL    H4318469   4.454   0.867   3.160  0.6349 -2.0797 -0.7556
   84MOL    H4418470   4.277   1.206   2.834  0.6864 -1.4686  0.5931
   84MOL    H4518471   4.375   1.346   2.883 -1.3776  1.2540 -0.7848
   84MOL    C4618472   4.247   1.287   3.037 -0.3596  0.0349  0.0699
   84MOL    C4718473   4.101   1.297   2.987  0.1733 -0.2514 -0.4467
   84MOL    O4818474   4.048   1.402   2.950 -0.2627  0.6143  0.1592
   84MOL    C4918475   4.032   1.168   2.962 -0.2026  0.4166 -0.3961
   84MOL    C5018476   4.301   1.410   3.107 -0.6907  0.4170 -0.1871
   84MOL    H5118477   4.242   1.205   3.109  0.7620 -1.9132 -2.0083
   84MOL    H5218478   4.035   1.112   3.056  1.7047  0.2012 -0.5675
   84MOL    H5318479   3.929   1.199   2.946  0.2323  1.7212 -0.6970
   84MOL    H5418480   4.060   1.109   2.875 -0.2909 -2.8064  1.6677
   84MOL    H5518481   4.288   1.499   3.046  1.2956  2.8347  2.8097
   84MOL    H5618482   4.410   1.409   3.101 -0.6342  1.2674  0.6305
   84MOL    C5718483   4.256   1.427   3.251 -0.3497 -0.3816  0.4081
   84MOL    C5818484   4.226   1.577   3.290  0.2343 -0.0594  0.6082
   84MOL    O5918485   4.275   1.635   3.387  0.1409  0.2973 -0.3590
   84MOL    C6018486   4.132   1.652   3.195 -0.3540 -0.2345 -0.1197
   84MOL    C6118487   4.361   1.365   3.344  0.0601 -0.0782  0.1339
   84MOL    H6218488   4.160   1.378   3.265 -0.4197 -0.2033  0.5633
   84MOL    H6318489   4.084   1.736   3.246  1.1095  1.0984 -0.9068
   84MOL    H6418490   4.179   1.704   3.112  0.5695 -3.6575 -1.8243
   84MOL    H6518491   4.057   1.588   3.147 -0.1688 -0.5880  0.0571
   84MOL    H6618492   4.417   1.441   3.400  2.1332 -1.0731 -0.5509
   84MOL    H6718493   4.439   1.317   3.285  0.0452 -1.6513  1.3740
   84MOL    C6818494   4.306   1.277   3.454 -0.3331 -0.1631 -0.8501
   84MOL    C6918495   4.222   1.158   3.402  0.5508 -0.5395 -0.4851
   84MOL    O7018496   4.100   1.152   3.412  0.4402 -0.3554  0.7406
   84MOL    C7118497   4.294   1.040   3.334 -0.3471  0.9021  0.5122
   84MOL    C7218498   4.227   1.359   3.560 -0.6762 -0.8974  0.2535
   84MOL    H7318499   4.394   1.230   3.499  0.9005  1.9866 -0.9442
   84MOL    H7418500   4.400   1.063   3.323 -0.1560 -0.4765 -0.6948
   84MOL    H7518501   4.287   0.950   3.396  0.9064 -0.6827 -1.5610
   84MOL    H7618502   4.254   1.018   3.236 -0.1241 -2.8822  1.1661
   84MOL    H7718503   4.129   1.401   3.538 -1.3086 -0.6081  3.3379
   84MOL    H7818504   4.284   1.450   3.579  0.3667 -1.7675  1.4034
   84MOL    C7918505   4.232   1.290   3.701 -1.0268 -0.0124  0.1179
   84MOL    C8018506   4.368   1.265   3.756 -0.2961  0.2755 -0.1828
   84MOL    O8118507   4.414   1.155   3.794 -0.4915  0.5635 -0.4939
   84MOL    C8218508   4.467   1.377   3.758  0.7055 -0.0325  0.5880
   84MOL    C8318509   4.142   1.164   3.733 -0.0898  0.0451  0.5655
   84MOL    H8418510   4.192   1.371   3.763  0.9076  0.2999  0.9648
   84MOL    H8518511   4.545   1.348   3.827  1.1336 -0.9141 -0.2586
   84MOL    H8618512   4.505   1.403   3.659 -1.7705 -0.4636 -0.5386
   84MOL    H8718513   4.404   1.460   3.792  0.8896 -1.6073  5.1145
   84MOL    H8818514   4.165   1.124   3.831  0.8813 -0.1240  0.2766
   84MOL    H8918515   4.178   1.095   3.657 -1.9347  0.3665 -0.6317
   84MOL    C9018516   3.991   1.166   3.711 -0.3964  0.1579 -0.3320
   84MOL    C9118517   3.924   1.273   3.801  0.4199 -0.0979 -0.7613
   84MOL    O9218518   3.973   1.314   3.905 -0.1422  0.4899 -0.1447
   84MOL    C9318519   3.802   1.330   3.744  0.7160 -0.7739  0.7175
   84MOL    C9418520   3.918   1.037   3.754  0.0264 -0.6255 -0.3651
   84MOL    H9518521   3.970   1.182   3.605 -3.4533 -0.4104  0.1294
   84MOL    H9618522   3.804   1.360   3.639 -1.4329  0.0581  0.8863
   84MOL    H9718523   3.721   1.257   3.742  0.8696 -1.0311  2.9967
   84MOL    H9818524   3.758   1.410   3.804  0.0175  0.4554 -1.3834
   84MOL    H9918525   3.810   1.052   3.759 -0.2063 -1.8622 -1.3312
   84MOL   H10018526   3.954   1.013   3.854  0.7024 -0.9909 -0.6931
   84MOL   C10118527   3.948   0.918   3.662  0.6713 -0.3420  0.4719
   84MOL   C10218528   3.825   0.906   3.563  0.5805 -0.1764  0.1533
   84MOL   O10318529   3.734   0.822   3.570 -0.6231  0.1893  0.1163
   84MOL   C10418530   3.811   1.013   3.461 -0.5318  0.0108 -0.5869
   84MOL   C10518531   3.981   0.782   3.721 -0.6201 -0.4554 -0.3129
   84MOL   H10618532   4.026   0.951   3.593 -0.1151 -1.0536 -0.7816
   84MOL   H10718533   3.752   0.966   3.382 -0.7101 -0.8795  0.0622
   84MOL   H10818534   3.763   1.105   3.492  0.4228  0.6450 -0.9550
   84MOL   H10918535   3.906   1.035   3.412  0.0331 -2.8534 -0.9071
   84MOL   H11018536   3.967   0.704   3.647 -0.2639 -0.8628  0.0452
   84MOL   H11118537   3.897   0.766   3.789 -0.0682  1.3120  0.8303
   84MOL   C11218538   4.119   0.756   3.786 -0.2027 -0.7216 -0.4978
   84MOL   C11318539   4.225   0.749   3.682 -0.8480 -0.7221 -0.4834
   84MOL   O11418540   4.200   0.716   3.569  0.0776 -0.1643 -0.0105
   84MOL   C11518541   4.362   0.791   3.724  0.1863  0.1555 -0.1837
   84MOL   C11618542   4.109   0.617   3.857  0.1399  0.4587  0.9289
   84MOL   H11718543   4.145   0.829   3.863  1.1454  1.0709 -2.6023
   84MOL   H11818544   4.366   0.859   3.809  0.4838 -2.5196  2.0122
   84MOL   H11918545   4.436   0.720   3.762  1.3510  1.3659 -0.1664
   84MOL   H12018546   4.404   0.848   3.641 -0.2491 -0.2964 -0.7225
   84MOL   H12118547   4.083   0.544   3.781  2.9006  2.6381 -2.2712
   84MOL   H12218548   4.017   0.611   3.915  0.2968  0.8199  1.2199
   84MOL   C12318549   4.229   0.558   3.935 -0.4463 -0.2066  0.1621
   84MOL   C12418550   4.253   0.407   3.914  0.2126 -0.5372  0.2601
   84MOL   O12518551   4.161   0.329   3.888 -0.2777 -0.7611  0.0815
   84MOL   C12618552   4.391   0.354   3.914  1.7633 -0.3141 -0.2489
   84MOL   C12718553   4.221   0.594   4.085 -0.7404  0.3026 -0.2546
   84MOL   H12818554   4.316   0.603   3.887 -0.3938  0.8976  1.2570
   84MOL   H12918555   4.402   0.299   4.008  0.5559  2.2773  1.4826
   84MOL   H13018556   4.413   0.285   3.833  0.0312 -0.5494 -0.5231
   84MOL   H13118557   4.463   0.437   3.917  2.5737 -0.8285 -3.5485
   84MOL   H13218558   4.142   0.535   4.132  0.3791 -0.1098  1.1284
   84MOL   H13318559   4.196   0.698   4.106  1.0322  0.5834  0.5620
   84MOL   C13418560   4.348   0.564   4.167 -0.2546 -0.5826  0.6099
   84MOL   C13518561   4.321   0.541   4.320 -0.0935  0.0155  0.3020
   84MOL   O13618562   4.320   0.636   4.401  0.4268  0.5579 -0.4173
   84MOL   C13718563   4.292   0.394   4.359  0.1316 -0.8514  0.9236
   84MOL   C13818564   4.465   0.664   4.143 -0.1855  0.2317 -0.0739
   84MOL   H13918565   4.389   0.468   4.136  0.1004  0.1131 -1.1058
   84MOL   H14018566   4.191   0.385   4.399 -0.6440 -0.5071 -0.9214
   84MOL   H14118567   4.304   0.332   4.270  0.2132 -1.0810  1.0950
   84MOL   H14218568   4.369   0.368   4.431 -0.4717 -0.5093  1.6991
   84MOL   H14318569   4.444   0.763   4.183  0.7252 -0.0542  1.1333
   84MOL   H14418570   4.469   0.685   4.036 -0.3664  1.5383  0.1583
   84MOL   C14518571   4.611   0.619   4.181  0.4753 -0.2299 -0.1145
   84MOL   C14618572   4.650   0.481   4.119  0.1054 -0.6396 -0.0357
   84MOL   O14718573   4.619   0.382   4.179 -0.5875  0.4075 -0.5348
   84MOL   C14818574   4.723   0.479   3.988  0.0933  0.1307 -0.6020
   84MOL   C14918575   4.640   0.637   4.332 -0.0836  0.5880  0.0865
   84MOL   H15018576   4.674   0.684   4.121 -0.9696 -0.2275 -1.6627
   84MOL   H15118577   4.689   0.553   3.915  1.3907  1.2490 -0.1032
   84MOL   H15218578   4.827   0.504   4.009 -0.3780  2.0741 -0.4370
   84MOL   H15318579   4.720   0.381   3.942 -0.4641 -0.7069  1.1858
   84MOL   H15418580   4.674   0.539   4.365 -0.4179  0.2591 -0.5355
   84MOL   H15518581   4.549   0.638   4.391  0.3939 -1.5140  0.8621
   84MOL   C15618582   4.737   0.748   4.372  0.3347  0.1559  0.0191
   84MOL   C15718583   4.686   0.890   4.332  0.2320 -0.2127  0.4029
   84MOL   O15818584   4.753   0.964   4.257  0.1271  0.1893 -0.5405
   84MOL   C15918585   4.551   0.939   4.377 -0.5898  0.6098  1.1264
   84MOL   C16018586   4.880   0.716   4.324 -0.3833 -0.6225  1.0955
   84MOL   H16118587   4.747   0.742   4.480 -1.0762 -2.6364  0.0635
   84MOL   H16218588   4.480   0.959   4.297 -3.6347 -1.2906  3.2608
   84MOL   H16318589   4.511   0.857   4.437 -0.8273 -0.1322 -0.0270
   84MOL   H16418590   4.560   1.032   4.433  1.3521  0.7398  0.6431
   84MOL   H16518591   4.884   0.727   4.216 -1.1074 -1.1590  1.0094
   84MOL   H16618592   4.905   0.611   4.340  2.5107 -0.1767 -0.1453
   84MOL   C16718593   4.990   0.795   4.407  0.0518 -0.0269 -0.5691
   84MOL   C16818594   5.125   0.799   4.326 -0.1719  0.7183 -0.6724
   84MOL   O16918595   5.166   0.705   4.257 -0.2868 -0.2284 -0.1617
   84MOL   C17018596   5.192   0.931   4.336  0.5654  0.7037 -0.1867
   84MOL   C17118597   5.015   0.736   4.556 -0.1021  0.3392 -0.6836
   84MOL   H17218598   4.948   0.896   4.413 -0.9296 -0.4813  0.1899
   84MOL   H17318599   5.282   0.930   4.399  0.5744 -2.2008 -0.1653
   84MOL   H17418600   5.214   0.970   4.237 -1.1212 -1.5485 -1.4830
   84MOL   H17518601   5.128   1.002   4.387  0.1894  0.3547 -0.1683
   84MOL   H17618602   5.037   0.632   4.530  1.2254  0.6214 -0.7666
   84MOL   H17718603   4.920   0.737   4.609  0.5892  1.6146  0.5752
   84MOL   C17818604   5.119   0.789   4.656  0.0806 -0.7337  0.2548
   84MOL   C17918605   5.133   0.695   4.775  0.6139  0.0438 -0.6042
   84MOL   O18018606   5.079   0.720   4.885  0.5408 -0.2708 -0.5051
   84MOL   C18118607   5.181   0.556   4.739 -0.6727 -0.2402  0.3448
   84MOL   C18218608   5.092   0.942   4.693  0.2785 -0.7294 -0.4346
   84MOL   H18318609   5.207   0.777   4.593 -0.7794  0.9439 -1.3425
   84MOL   H18418610   5.088   0.508   4.709 -1.7923  1.5117  0.9213
   84MOL   H18518611   5.243   0.560   4.649 -0.6192 -1.8638  0.2865
   84MOL   H18618612   5.238   0.497   4.811  1.1983 -2.6538 -2.9315
   84MOL   H18718613   5.011   0.951   4.765 -0.8834  2.5657 -2.0647
   84MOL   H18818614   5.063   0.996   4.603 -0.9136 -0.3629  0.1548
   84MOL   C18918615   5.209   1.008   4.763 -0.7977  0.0139  0.7352
   84MOL   C19018616   5.167   1.133   4.835  0.8230 -0.2030 -0.7595
   84MOL   O19118617   5.142   1.237   4.776 -0.6101  0.1763 -0.1485
   84MOL   C19218618   5.149   1.128   4.991 -0.2581  0.7660 -0.1413
   84MOL   C19318619   5.317   1.046   4.656 -0.0078  0.3838 -0.8202
   84MOL   H19418620   5.258   0.935   4.828 -0.0492 -0.3166 -0.1915
   84MOL   H19518621   5.043   1.150   5.010 -0.8108 -3.2228  1.8354
   84MOL   H19618622   5.175   1.028   5.025 -0.7488  0.3217 -1.0784
   84MOL   H19718623   5.214   1.203   5.036  0.7462 -0.7790  1.0347
   84MOL   H19818624   5.270   1.115   4.586  0.0060  1.1074 -0.1341
   84MOL   H19918625   5.335   0.961   4.590 -2.0284 -0.6115 -0.1160
   84MOL   C20018626   5.453   1.101   4.707  0.7645  0.3114  0.3225
   84MOL   C20118627   5.527   1.141   4.579 -0.7820 -0.0536  0.0318
   84MOL   O20218628   5.535   1.260   4.554  1.1617  0.1518 -0.3736
   84MOL   C20318629   5.589   1.038   4.489  0.0577  0.7969 -0.8659
   84MOL   C20418630   5.531   1.009   4.803  0.5447  0.8293 -0.2646
   84MOL   H20518631   5.444   1.198   4.757 -0.7226  1.1772 -1.5376
   84MOL   H20618632   5.623   0.947   4.536  0.8289  2.1657  1.2687
   84MOL   H20718633   5.525   1.012   4.404  0.5548 -0.2702 -0.9214
   84MOL   H20818634   5.673   1.079   4.434  1.4529 -1.0323 -0.1304
   84MOL   H20918635   5.529   0.906   4.767  0.2097 -0.1540  2.4362
   84MOL   H21018636   5.475   1.007   4.896  0.6805  0.6629 -0.1866
   84MOL   C21118637   5.679   1.046   4.833  0.9345 -0.2759  0.5880
   84MOL   C21218638   5.734   0.935   4.924  0.0104 -0.2826  0.2506
   84MOL   O21318639   5.739   0.951   5.044  0.2237  0.4081 -0.5754
   84MOL   C21418640   5.764   0.803   4.867  0.1576 -0.6702  0.1016
   84MOL   C21518641   5.694   1.180   4.908  0.1718  0.2095  0.8931
   84MOL   H21618642   5.730   1.071   4.740  0.0605 -0.2528  0.1102
   84MOL   H21718643   5.799   0.737   4.946  1.2245  0.9433  0.9906
   84MOL   H21818644   5.681   0.758   4.811  0.9849 -0.1157 -1.6146
   84MOL   H21918645   5.849   0.806   4.799 -2.4602  1.5884 -3.2718
   84MOL   H22018646   5.800   1.189   4.933  0.2844  0.9099  0.1579
   84MOL   H22118647   5.633   1.193   4.997  0.2869  2.0019  0.7333
   84MOL   H22218648   5.677   1.261   4.838  0.7936 -2.5633 -2.5837
   85MOL     C118649   0.545   5.619   0.891  0.9800 -1.1778 -0.3848
   85MOL     C218650   0.692   5.594   0.911 -1.1030  0.9733  0.5634
   85MOL     O318651   0.765   5.530   0.839  0.2996 -0.1895  0.3285
   85MOL     C418652   0.748   5.630   1.047 -0.2474  0.3485 -0.1615
   85MOL     C518653   0.493   5.563   0.757 -0.0781  0.2632 -0.2296
   85MOL     H618654   0.482   5.568   0.965  0.9276  0.6087  0.8329
   85MOL     H718655   0.856   5.630   1.054 -0.2306 -3.4663  0.4124
   85MOL     H818656   0.712   5.733   1.058 -1.1053 -0.1386  1.7605
   85MOL     H918657   0.704   5.563   1.120 -0.1945  0.9689  0.4473
   85MOL    H1018658   0.385   5.554   0.764  0.1420 -1.5115  0.9629
   85MOL    H1118659   0.529   5.461   0.745 -1.4319 -0.4823  1.8216
   85MOL    H1218660   0.524   5.726   0.897 -0.1484 -1.4052 -0.0037
   85MOL    C1318661   0.527   5.627   0.622  0.1473  0.9034 -0.1386
   85MOL    C1418662   0.494   5.777   0.622  0.2566 -0.1164  0.0915
   85MOL    O1518663   0.378   5.810   0.600  0.1626 -0.2608  0.8668
   85MOL    C1618664   0.601   5.876   0.659  0.6849 -0.2868 -0.1200
   85MOL    C1718665   0.471   5.548   0.507 -0.4907 -0.5594 -0.2481
   85MOL    H1818666   0.636   5.622   0.617  0.0593 -1.3186 -0.4376
   85MOL    H1918667   0.666   5.894   0.573 -1.3534 -2.3729 -2.1844
   85MOL    H2018668   0.555   5.968   0.696 -0.2751 -0.5392 -0.6731
   85MOL    H2118669   0.671   5.844   0.736 -0.8927 -1.0860  1.0263
   85MOL    H2218670   0.473   5.616   0.421  0.4445  0.8749  0.8798
   85MOL    H2318671   0.368   5.517   0.523  0.0040 -1.2706  1.6709
   85MOL    C2418672   0.554   5.424   0.472  0.4220 -0.1341 -0.5506
   85MOL    C2518673   0.695   5.465   0.415 -0.4195  0.1710  0.0166
   85MOL    O2618674   0.707   5.522   0.306  0.8530  0.0464  0.6684
   85MOL    C2718675   0.819   5.430   0.498  0.0223 -0.3211  0.5524
   85MOL    C2818676   0.476   5.352   0.361  0.0853  0.5645  0.6102
   85MOL    H2918677   0.561   5.367   0.565  1.9889 -1.3076 -1.3575
   85MOL    H3018678   0.906   5.461   0.439  0.3835 -0.4243  1.0341
   85MOL    H3118679   0.819   5.466   0.601 -2.4803 -0.2090  0.5289
   85MOL    H3218680   0.804   5.324   0.517 -0.7565 -0.4560 -0.7414
   85MOL    H3318681   0.475   5.419   0.275  0.0137 -1.0115 -0.6146
   85MOL    H3418682   0.370   5.340   0.383  0.3441 -1.2364  0.9428
   85MOL    C3518683   0.523   5.212   0.330  0.6144  0.0594  0.7715
   85MOL    C3618684   0.458   5.184   0.191 -0.0291  0.4186  0.3806
   85MOL    O3718685   0.372   5.098   0.166  0.0476  0.6425  0.2262
   85MOL    C3818686   0.524   5.251   0.068  0.6057 -0.2193  0.7287
   85MOL    C3918687   0.485   5.110   0.434  0.4732  0.8041  0.2396
   85MOL    H4018688   0.632   5.215   0.323  0.5607  0.7132  0.1363
   85MOL    H4118689   0.448   5.287   7.841  2.1528 -1.3677 -1.6470
   85MOL    H4218690   0.586   5.335   0.099  1.2514 -0.7354  0.8522
   85MOL    H4318691   0.577   5.181   0.003 -2.5279 -0.4991 -1.6773
   85MOL    H4418692   0.377   5.102   0.422  0.6927  0.6094 -1.7300
   85MOL    H4518693   0.492   5.147   0.537  0.6321  0.7697  0.2411
   85MOL    C4618694   0.524   4.960   0.415 -0.5530  0.8128 -0.9335
   85MOL    C4718695   0.451   4.875   0.517 -0.8190  0.6421 -0.5345
   85MOL    O4818696   0.507   4.826   0.610  0.1832 -0.6147  0.0469
   85MOL    C4918697   0.298   4.858   0.502 -0.7995  0.4965  0.1899
   85MOL    C5018698   0.673   4.941   0.421 -0.6528  0.1985  0.4323
   85MOL    H5118699   0.488   4.939   0.314 -0.2984  0.6723 -0.9942
   85MOL    H5218700   0.261   4.888   0.404 -0.9541  0.5540  0.2648
   85MOL    H5318701   0.278   4.752   0.514  0.3686  0.3198  0.6764
   85MOL    H5418702   0.248   4.902   0.588  1.6220  2.7294  0.5295
   85MOL    H5518703   0.696   4.945   0.527 -4.2270 -0.7056  1.3181
   85MOL    H5618704   0.723   5.026   0.374  0.7258 -0.7646  0.1365
   85MOL    C5718705   0.715   4.806   0.353 -0.1931  0.1643  0.0983
   85MOL    C5818706   0.845   4.751   0.417 -0.4709  0.1673 -0.8293
   85MOL    O5918707   0.862   4.632   0.423  0.5820  1.1423  0.3118
   85MOL    C6018708   0.956   4.847   0.458 -0.4979 -0.2842  0.4720
   85MOL    C6118709   0.740   4.843   0.202 -0.2289 -0.3451  0.4808
   85MOL    H6218710   0.642   4.726   0.361 -0.6774  0.5596 -0.3388
   85MOL    H6318711   0.928   4.948   0.427 -2.0451 -0.7646  0.2254
   85MOL    H6418712   0.985   4.842   0.563  0.8965 -1.2267  0.0505
   85MOL    H6518713   1.046   4.833   0.398 -0.0277 -0.0701  1.1269
   85MOL    H6618714   0.835   4.894   0.187 -0.5232  0.6455  1.8692
   85MOL    H6718715   0.662   4.913   0.171 -1.9765 -1.7975  1.5519
   85MOL    C6818716   0.727   4.718   0.112 -0.0858 -0.0534  0.3372
   85MOL    C6918717   0.861   4.666   0.051  0.2635  0.2961  0.1675
   85MOL    O7018718   0.960   4.742   0.048  0.8179 -0.3490 -0.6767
   85MOL    C7118719   0.867   4.520   0.011  0.2479  0.9894 -0.7622
   85MOL    C7218720   0.619   4.741   0.004  0.1302 -0.2923 -0.5680
   85MOL    H7318721   0.698   4.640   0.182 -0.5117  2.4214  3.0171
   85MOL    H7418722   0.810   4.442   0.062  2.4027  0.4906  0.9422
   85MOL    H7518723   0.845   4.520   7.746  0.9420 -0.3239 -0.9239
   85MOL    H7618724   0.963   4.470   0.024 -0.6723  0.2316  4.1050
   85MOL    H7718725   0.630   4.661   7.773  0.6290 -0.7962  0.0459
   85MOL    H7818726   0.646   4.828   7.788 -1.3505 -0.3857 -1.4218
   85MOL    C7918727   0.472   4.740   0.057  0.6207  0.0076 -0.3024
   85MOL    C8018728   0.426   4.594   0.075  0.3269  0.4770  0.7229
   85MOL    O8118729   0.441   4.515   7.825 -0.2614  0.3408 -0.1343
   85MOL    C8218730   0.373   4.549   0.204  0.6612  0.1982  0.7091
   85MOL    C8318731   0.377   4.819   7.805  0.0160 -0.0011  0.4318
   85MOL    H8418732   0.453   4.793   0.150 -2.0896 -2.7939  0.8208
   85MOL    H8518733   0.390   4.442   0.216  1.8549 -0.1897 -3.5463
   85MOL    H8618734   0.440   4.605   0.269  1.3808  0.5865 -0.3353
   85MOL    H8718735   0.271   4.582   0.222  0.1143 -0.6865 -0.6666
   85MOL    H8818736   0.412   4.797   7.705  0.9950  2.3985  0.2192
   85MOL    H8918737   0.408   4.923   7.815  3.1937 -0.8823  0.2480
   85MOL    C9018738   0.221   4.820   7.799  0.7606  0.1570  0.3431
   85MOL    C9118739   0.149   4.852   0.087 -0.5139 -0.3003  0.7703
   85MOL    O9218740   0.209   4.831   0.193  0.0785 -0.1807  0.0377
   85MOL    C9318741   0.011   4.903   0.077  0.5041 -0.2963  0.3800
   85MOL    C9418742   0.160   4.692   7.735 -1.0703  0.1387  0.5121
   85MOL    H9518743   0.188   4.904   7.738 -1.7287 -1.0796 -0.0724
   85MOL    H9618744   7.796   4.860   0.159  0.5173 -1.4291 -0.1994
   85MOL    H9718745   0.013   5.009   0.104  0.9173  0.7953 -3.6022
   85MOL    H9818746   7.808   4.899   7.820  1.0092  1.9793  0.0213
   85MOL    H9918747   0.055   4.679   7.762 -1.4580  0.7465 -0.6547
   85MOL   H10018748   0.207   4.601   7.772  0.2877  0.1203 -1.1524
   85MOL   C10118749   0.177   4.672   7.582 -0.5172 -0.1537 -0.4280
   85MOL   C10218750   0.098   4.785   7.513  0.7702  0.5601  0.2967
   85MOL   O10318751   0.009   4.843   7.578  1.2307 -0.2926  0.3510
   85MOL   C10418752   0.135   4.818   7.370  0.2171 -0.0004  0.5728
   85MOL   C10518753   0.142   4.532   7.531 -0.1119  0.1150  0.1429
   85MOL   H10618754   0.280   4.682   7.549 -0.6380  1.0463 -0.4477
   85MOL   H10718755   0.127   4.735   7.300  2.0953 -0.7324  1.1909
   85MOL   H10818756   0.058   4.891   7.343 -0.1011 -0.9066 -1.0158
   85MOL   H10918757   0.231   4.866   7.353  1.0650 -2.0745 -0.6763
   85MOL   H11018758   0.106   4.536   7.428 -0.1208  1.4841  0.1870
   85MOL   H11118759   0.057   4.507   7.595 -0.3624  0.5742 -0.0063
   85MOL   C11218760   0.254   4.422   7.551 -0.1187  0.6652 -0.4883
   85MOL   C11318761   0.370   4.448   7.453  0.7723  0.3233 -0.3476
   85MOL   O11418762   0.339   4.467   7.333 -0.3024 -0.2080 -0.6211
   85MOL   C11518763   0.512   4.465   7.505  0.5732 -0.4455 -0.3357
   85MOL   C11618764   0.200   4.273   7.547 -0.0973 -0.8591  0.2469
   85MOL   H11718765   0.281   4.436   7.655 -1.4698 -2.0837  0.2842
   85MOL   H11818766   0.518   4.563   7.551 -0.0569  0.3743 -1.9471
   85MOL   H11918767   0.535   4.397   7.588 -0.3138  0.9226  1.0502
   85MOL   H12018768   0.591   4.460   7.429 -0.9427  1.1313 -2.0505
   85MOL   H12118769   0.194   4.250   7.441  0.7185  0.8017 -0.1732
   85MOL   H12218770   0.101   4.261   7.591  0.4811 -2.2865  1.1872
   85MOL   C12318771   0.302   4.179   7.606  0.0014  0.5733 -0.2999
   85MOL   C12418772   0.309   4.048   7.531  0.5409 -0.3887  0.2005
   85MOL   O12518773   0.411   4.013   7.477 -0.5744 -0.3381 -0.2431
   85MOL   C12618774   0.178   3.965   7.507  0.3180  0.0841  0.2510
   85MOL   C12718775   0.285   4.155   7.759  0.3380 -0.5601  0.2519
   85MOL   H12818776   0.408   4.203   7.595  1.0347 -3.7560 -0.4942
   85MOL   H12918777   0.183   3.923   7.407 -0.9545  0.1321  0.1581
   85MOL   H13018778   0.159   3.879   7.572  1.0390 -0.8905 -0.8015
   85MOL   H13118779   0.103   4.043   7.519 -0.4205 -0.2935 -1.8148
   85MOL   H13218780   0.191   4.105   7.783  0.6137 -0.0835  2.3928
   85MOL   H13318781   0.264   4.254   7.799 -3.6630 -0.9940 -0.5816
   85MOL   C13418782   0.397   4.083   7.826 -0.1011  0.1634  0.5398
   85MOL   C13518783   0.350   3.963   0.069  0.2727 -0.6256  0.7379
   85MOL   O13618784   0.292   3.983   0.177  0.7091  0.5524  0.2072
   85MOL   C13718785   0.379   3.821   0.026  0.0296 -0.1587 -0.1802
   85MOL   C13818786   0.493   4.180   0.061 -1.1408  0.9506  0.6770
   85MOL   H13918787   0.457   4.032   7.751 -0.1088 -0.2981  0.8458
   85MOL   H14018788   0.483   3.797   0.047  1.0571 -0.0451 -4.6705
   85MOL   H14118789   0.310   3.761   0.086  0.2913  0.9302  1.2422
   85MOL   H14218790   0.357   3.802   7.763 -0.1226 -0.0324 -0.1723
   85MOL   H14318791   0.424   4.222   0.133 -0.9302  0.8774  0.9239
   85MOL   H14418792   0.517   4.271   0.007 -0.4145  1.3783  1.7193
   85MOL   C14518793   0.619   4.123   0.134 -0.0792 -0.6505  0.2227
   85MOL   C14618794   0.668   4.220   0.245  0.3266  0.3294 -0.0634
   85MOL   O14718795   0.660   4.339   0.229 -0.3730 -0.9821  0.2217
   85MOL   C14818796   0.742   4.162   0.362 -0.0348 -0.5835  0.4448
   85MOL   C14918797   0.725   4.093   0.035 -0.6043  0.0781  0.6272
   85MOL   H15018798   0.575   4.038   0.186 -3.1692 -0.1982 -1.5339
   85MOL   H15118799   0.776   4.060   0.345 -0.3756 -0.5835 -0.2410
   85MOL   H15218800   0.836   4.215   0.381  0.0533 -0.4264 -0.4377
   85MOL   H15318801   0.671   4.157   0.445 -0.1450  0.5815  0.4323
   85MOL   H15418802   0.756   4.188   7.833 -1.0436  0.2402  0.6627
   85MOL   H15518803   0.678   4.053   7.787  0.3958 -0.1015  0.1735
   85MOL   C15618804   0.847   4.013   0.083 -0.4750 -0.0619  0.1683
   85MOL   C15718805   0.970   4.092   0.120 -0.2769 -0.3515  0.4313
   85MOL   O15818806   0.990   4.203   0.070 -0.5324 -0.0339  0.1092
   85MOL   C15918807   1.063   4.036   0.225 -0.0104  0.3178  0.6551
   85MOL   C16018808   0.869   3.905   7.829  0.6589 -1.2487  1.0061
   85MOL   H16118809   0.821   3.957   0.173  0.1054  1.2756  1.1784
   85MOL   H16218810   1.131   4.113   0.262 -0.1682 -0.2149  2.0778
   85MOL   H16318811   1.007   3.984   0.302  2.1762 -2.5302  0.3909
   85MOL   H16418812   1.125   3.977   0.158 -1.6380  0.8775 -1.4079
   85MOL   H16518813   0.975   3.880   7.837  1.3602  1.4283  0.7329
   85MOL   H16618814   0.848   3.943   7.729  0.3004  1.6553  2.1257
   85MOL   C16718815   0.796   3.767   0.014  1.1591 -0.1350 -1.2431
   85MOL   C16818816   0.838   3.703   0.157  0.8501 -0.2036  0.1206
   85MOL   O16918817   0.943   3.724   0.217  0.5368  0.9577 -0.1657
   85MOL   C17018818   0.737   3.614   0.218  0.0272  0.2003 -0.1627
   85MOL   C17118819   0.828   3.667   7.740  0.2356 -0.0075  0.1383
   85MOL   H17218820   0.689   3.783   0.027  1.3290  0.0908 -0.0587
   85MOL   H17318821   0.636   3.625   0.179 -1.5503  0.7650  3.8072
   85MOL   H17418822   0.775   3.514   0.201  1.1026  0.6548 -0.4804
   85MOL   H17518823   0.737   3.607   0.327  0.4686 -1.9473 -0.2844
   85MOL   H17618824   0.764   3.583   7.768 -0.1503  0.4162  0.5336
   85MOL   H17718825   0.931   3.633   7.750 -0.4899 -2.1239  0.6945
   85MOL   C17818826   0.817   3.713   7.592 -0.0164 -0.2026  0.2321
   85MOL   C17918827   0.686   3.791   7.549 -0.2417 -0.1138 -0.1948
   85MOL   O18018828   0.585   3.802   7.628  0.4270  0.1384  0.7696
   85MOL   C18118829   0.687   3.850   7.405  0.7508  0.4516  0.2325
   85MOL   C18218830   0.840   3.582   7.509  0.2855 -0.2995  0.9361
   85MOL   H18318831   0.896   3.782   7.562  2.1009 -1.2655  3.0486
   85MOL   H18418832   0.587   3.862   7.363  1.0299  0.8041 -0.3285
   85MOL   H18518833   0.740   3.944   7.389 -1.9965  2.2065  1.0614
   85MOL   H18618834   0.742   3.773   7.351 -1.5597  0.8430 -2.7610
   85MOL   H18718835   0.770   3.564   7.427  0.5408 -1.0925  0.8832
   85MOL   H18818836   0.815   3.491   7.565 -2.0044 -1.1512 -1.3662
   85MOL   C18918837   0.985   3.556   7.454 -0.6115 -0.1438 -0.1984
   85MOL   C19018838   1.028   3.667   7.354 -0.7453 -0.4594 -0.0062
   85MOL   O19118839   1.020   3.660   7.230 -0.2423  0.4998  0.2089
   85MOL   C19218840   1.099   3.792   7.400 -0.0683 -0.3657 -0.2190
   85MOL   C19318841   0.988   3.415   7.382 -0.3006 -1.5166  0.4187
   85MOL   H19418842   1.046   3.557   7.544 -3.7751  0.3349  2.0118
   85MOL   H19518843   1.018   3.850   7.444  0.1689 -0.3293  0.1717
   85MOL   H19618844   1.177   3.764   7.472  0.6369  0.1996 -0.7519
   85MOL   H19718845   1.148   3.853   7.324 -0.9687  3.2105  1.9464
   85MOL   H19818846   0.904   3.418   7.312  1.4092  1.8327 -1.5973
   85MOL   H19918847   0.964   3.346   7.463  1.3085 -2.1827  0.3392
   85MOL   C20018848   1.116   3.357   7.309 -0.1231  0.8356  0.6714
   85MOL   C20118849   1.072   3.244   7.219 -0.6044  0.0201  0.6393
   85MOL   O20218850   0.996   3.147   7.248  0.0466  0.0231  0.2019
   85MOL   C20318851   1.128   3.264   7.080  1.0762 -0.3829  0.6176
   85MOL   C20418852   1.228   3.307   7.402 -0.1959 -0.2874 -0.5168
   85MOL   H20518853   1.158   3.436   7.247  0.8658  0.5876  1.0151
   85MOL   H20618854   1.207   3.189   7.079  1.9837  0.5632  0.5270
   85MOL   H20718855   1.048   3.238   7.010  1.6702 -2.0595  0.5599
   85MOL   H20818856   1.165   3.367   7.071  0.3297 -0.3036 -2.3195
   85MOL   H20918857   1.207   3.208   7.442 -3.0365  0.4502 -0.0773
   85MOL   H21018858   1.210   3.357   7.497 -1.9807 -0.3460 -0.8018
   85MOL   C21118859   1.377   3.329   7.375  0.4490 -0.5720  0.2680
   85MOL   C21218860   1.418   3.476   7.387  0.0377  0.1745  0.5482
   85MOL   O21318861   1.345   3.567   7.340 -0.5425 -0.0570  0.4298
   85MOL   C21418862   1.551   3.510   7.446 -0.1123 -0.6545 -0.0068
   85MOL   C21518863   1.419   3.271   7.245 -0.7051 -0.5192 -0.1541
   85MOL   H21618864   1.454   3.288   7.440  1.2348  0.2842 -0.1080
   85MOL   H21718865   1.613   3.420   7.450 -1.7873 -1.7365  2.4717
   85MOL   H21818866   1.589   3.600   7.397 -3.6822  0.8142 -0.1920
   85MOL   H21918867   1.540   3.523   7.553  0.9053 -2.5344  0.3557
   85MOL   H22018868   1.524   3.247   7.259 -1.5365 -3.9015  0.6211
   85MOL   H22118869   1.404   3.328   7.153 -0.9571 -1.7898 -0.9072
   85MOL   H22218870   1.370   3.174   7.237  2.2858 -2.1982  1.0995
   86MOL     C118871   3.919   2.357   7.610 -0.2376 -0.1036 -0.3943
   86MOL     C218872   3.899   2.513   7.580  0.2820  0.7821 -0.0657
   86MOL     O318873   3.960   2.567   7.487 -0.4354  0.6326  0.4639
   86MOL     C418874   3.824   2.597   7.683  0.2439 -0.2758  0.0083
   86MOL     C518875   3.956   2.279   7.484  0.5582  0.0842  0.4666
   86MOL     H618876   3.993   2.349   7.690 -2.4431  1.5778  1.8774
   86MOL     H718877   3.827   2.705   7.669 -2.3882 -0.0199  1.1391
   86MOL     H818878   3.719   2.569   7.688 -0.4581  0.9561 -4.9470
   86MOL     H918879   3.860   2.576   7.783  0.6282 -2.3047 -0.5406
   86MOL    H1018880   3.974   2.177   7.517  1.0402 -0.8297 -2.4804
   86MOL    H1118881   4.045   2.331   7.449 -1.7415  2.4492 -2.1040
   86MOL    H1218882   3.826   2.321   7.654 -0.7368  0.2815 -1.1436
   86MOL    C1318883   3.843   2.270   7.375  0.8105 -0.1957 -0.0712
   86MOL    C1418884   3.700   2.228   7.426  0.3054  0.0145  0.0620
   86MOL    O1518885   3.671   2.106   7.436 -0.3136 -0.2660  0.2570
   86MOL    C1618886   3.579   2.317   7.434 -0.1830  0.3299 -0.0473
   86MOL    C1718887   3.894   2.188   7.254  0.1234  0.8083  0.0203
   86MOL    H1818888   3.835   2.374   7.344  4.9679 -0.2134 -1.4731
   86MOL    H1918889   3.621   2.417   7.418 -0.5591  0.8310  1.9742
   86MOL    H2018890   3.506   2.279   7.363  0.1981  1.4773 -1.0814
   86MOL    H2118891   3.542   2.313   7.537  3.0243  0.2018  1.1653
   86MOL    H2218892   3.899   2.086   7.291  1.7488  0.6417 -0.6190
   86MOL    H2318893   3.989   2.222   7.212  0.2560  1.5001  0.8542
   86MOL    C2418894   3.803   2.176   7.122  0.4933  0.1460 -0.1446
   86MOL    C2518895   3.812   2.316   7.044  1.0656 -0.4543  0.2822
   86MOL    O2618896   3.764   2.417   7.102  0.4789 -0.4358 -0.2360
   86MOL    C2718897   3.874   2.319   6.907 -1.2095 -0.2351  0.4859
   86MOL    C2818898   3.650   2.123   7.122  0.5796 -0.8451 -0.1711
   86MOL    H2918899   3.861   2.108   7.059 -0.7055  0.1567 -1.3012
   86MOL    H3018900   3.804   2.318   6.824 -0.0926  3.6858 -0.6048
   86MOL    H3118901   3.916   2.419   6.903 -3.1841  0.6130  0.5570
   86MOL    H3218902   3.945   2.237   6.889 -0.7486  0.6770 -2.0424
   86MOL    H3318903   3.617   2.127   7.018  0.1231 -0.4255 -0.0119
   86MOL    H3418904   3.579   2.189   7.173  0.6245 -1.0368  0.1440
   86MOL    C3518905   3.635   1.977   7.171  0.5849  0.2969  0.1684
   86MOL    C3618906   3.692   1.873   7.073 -0.4390 -0.3183  0.0011
   86MOL    O3718907   3.624   1.803   7.003  0.7165 -0.0878  0.4293
   86MOL    C3818908   3.841   1.855   7.082  0.5509  0.0525  0.1998
   86MOL    C3918909   3.485   1.951   7.202  1.3996  0.6917  0.1755
   86MOL    H4018910   3.684   1.957   7.266 -1.8943 -1.3824  1.1284
   86MOL    H4118911   3.884   1.892   6.988  0.3333 -0.5655 -0.1464
   86MOL    H4218912   3.890   1.908   7.163  2.4351 -2.2159  0.5886
   86MOL    H4318913   3.862   1.748   7.083 -0.9181 -0.2667 -0.5354
   86MOL    H4418914   3.418   1.958   7.116  1.2729 -2.6649 -0.0715
   86MOL    H4518915   3.450   2.029   7.270 -1.1963 -2.1968  2.2638
   86MOL    C4618916   3.455   1.814   7.279 -0.5664 -0.1405 -0.2678
   86MOL    C4718917   3.314   1.759   7.246 -0.1821  0.4100  0.9118
   86MOL    O4818918   3.218   1.808   7.303  0.4508  0.1976 -0.2976
   86MOL    C4918919   3.299   1.652   7.144 -0.9145 -0.4260  0.0602
   86MOL    C5018920   3.483   1.827   7.429 -0.5067  0.3494 -0.2373
   86MOL    H5118921   3.532   1.747   7.241  2.1944  0.7694  3.4368
   86MOL    H5218922   3.384   1.642   7.076 -0.2366 -1.0332  0.9866
   86MOL    H5318923   3.306   1.553   7.188 -0.1670 -0.1522  0.5678
   86MOL    H5418924   3.199   1.654   7.100 -0.8215 -2.5347 -0.2919
   86MOL    H5518925   3.405   1.897   7.460 -0.9017 -0.0299 -0.3727
   86MOL    H5618926   3.580   1.875   7.440  0.1792 -0.6906 -1.5483
   86MOL    C5718927   3.481   1.698   7.513 -0.6907  0.2482  0.1794
   86MOL    C5818928   3.468   1.744   7.661 -0.1920 -0.1804  0.6565
   86MOL    O5918929   3.542   1.816   7.721 -0.0845 -0.5572  0.5640
   86MOL    C6018930   3.343   1.695   7.725 -0.1999  0.1305  0.2784
   86MOL    C6118931   3.607   1.609   7.495 -0.1070  0.4109  0.3490
   86MOL    H6218932   3.392   1.640   7.491  1.5337 -2.8358 -1.2103
   86MOL    H6318933   3.301   1.758   7.804  1.7500  1.3103  0.4071
   86MOL    H6418934   3.264   1.668   7.655 -0.8940 -0.6787  1.3627
   86MOL    H6518935   3.370   1.598   7.767 -1.0586  0.5593  1.8331
   86MOL    H6618936   3.653   1.576   7.589  0.8097 -1.0368 -0.5909
   86MOL    H6718937   3.690   1.668   7.456 -0.4373 -0.5064 -1.7719
   86MOL    C6818938   3.581   1.495   7.390  0.4927 -0.3260 -0.2328
   86MOL    C6918939   3.486   1.391   7.446  0.2735 -0.5471  0.1419
   86MOL    O7018940   3.512   1.328   7.546  0.0109 -0.6994 -0.4803
   86MOL    C7118941   3.356   1.377   7.375  0.6839  0.3798 -0.2925
   86MOL    C7218942   3.713   1.423   7.351  0.2718  0.4217  0.0160
   86MOL    H7318943   3.538   1.537   7.299  0.8731 -2.5402 -1.4758
   86MOL    H7418944   3.372   1.376   7.267  1.1570  1.1538 -0.2343
   86MOL    H7518945   3.311   1.279   7.386 -1.4274  1.3045 -0.4479
   86MOL    H7618946   3.276   1.446   7.403  0.9948  0.7742 -0.3569
   86MOL    H7718947   3.748   1.363   7.435  0.0162  1.6322  1.0044
   86MOL    H7818948   3.796   1.493   7.339  1.1202 -0.7238 -0.8813
   86MOL    C7918949   3.701   1.330   7.227 -0.1664 -0.2031  0.2925
   86MOL    C8018950   3.705   1.183   7.271  0.1207 -0.6178  0.0418
   86MOL    O8118951   3.813   1.141   7.305 -0.3107 -0.0871 -0.5711
   86MOL    C8218952   3.573   1.101   7.281  0.1304  1.1126 -1.0468
   86MOL    C8318953   3.809   1.360   7.114  0.3481 -0.5965 -0.2384
   86MOL    H8418954   3.605   1.354   7.181  0.8261  2.3382 -0.5131
   86MOL    H8518955   3.601   0.996   7.287 -0.0844  1.0170 -1.5945
   86MOL    H8618956   3.511   1.129   7.366  0.9315 -0.3414  0.0250
   86MOL    H8718957   3.511   1.118   7.192 -1.1835  1.2927 -0.1088
   86MOL    H8818958   3.901   1.301   7.118  0.2868 -0.5986  1.3709
   86MOL    H8918959   3.842   1.463   7.127  2.8750 -1.4553  0.4624
   86MOL    C9018960   3.765   1.332   6.966  0.0514  0.5192  0.4424
   86MOL    C9118961   3.663   1.433   6.923  0.3676 -0.4405 -0.1124
   86MOL    O9218962   3.545   1.416   6.955 -0.1455 -0.1142 -0.1924
   86MOL    C9318963   3.718   1.554   6.863 -0.0440  0.0062 -0.6309
   86MOL    C9418964   3.729   1.180   6.939 -0.1508 -0.4313  1.0207
   86MOL    H9518965   3.849   1.368   6.906  1.5536  3.5485  4.1190
   86MOL    H9618966   3.784   1.518   6.783  0.6326  0.3666 -0.2390
   86MOL    H9718967   3.637   1.613   6.822  0.6130  1.9439  0.7828
   86MOL    H9818968   3.779   1.622   6.923  1.6937 -0.1561 -2.1475
   86MOL    H9918969   3.632   1.163   6.984  0.5615 -0.8099  2.4260
   86MOL   H10018970   3.793   1.110   6.992 -0.2962 -2.1091 -0.9462
   86MOL   C10118971   3.706   1.138   6.793  1.0104  0.1900  0.0796
   86MOL   C10218972   3.824   1.181   6.705  0.3433  0.6279 -0.2035
   86MOL   O10318973   3.824   1.278   6.626 -0.2492  0.1400 -0.2322
   86MOL   C10418974   3.951   1.091   6.714 -0.0538  0.1118 -0.4184
   86MOL   C10518975   3.573   1.175   6.738  0.3658  0.9177  0.4052
   86MOL   H10618976   3.701   1.029   6.789 -1.1828  0.2689  0.0617
   86MOL   H10718977   3.934   1.002   6.654 -0.2379 -0.6098  0.7055
   86MOL   H10818978   4.035   1.133   6.658  0.9752  1.8704  2.3662
   86MOL   H10918979   3.973   1.062   6.816  0.5392 -0.7875 -0.8002
   86MOL   H11018980   3.577   1.284   6.731 -0.1830  0.9070 -0.0536
   86MOL   H11118981   3.486   1.148   6.798 -0.3356 -0.5492 -1.2398
   86MOL   C11218982   3.540   1.117   6.599 -0.4225  0.1040  0.1590
   86MOL   C11318983   3.521   1.230   6.492 -0.5140 -0.3362  0.0361
   86MOL   O11418984   3.605   1.236   6.400 -0.3688  0.0362 -0.6011
   86MOL   C11518985   3.412   1.326   6.509 -0.3931  0.2017  0.4993
   86MOL   C11618986   3.431   1.008   6.597  0.2194 -0.5761  0.1225
   86MOL   H11718987   3.630   1.070   6.559 -0.6572  0.8851 -1.3042
   86MOL   H11818988   3.371   1.348   6.410  0.5272 -0.1775  0.0202
   86MOL   H11918989   3.330   1.287   6.569 -0.5744  2.3045  1.6600
   86MOL   H12018990   3.439   1.423   6.551 -1.0465  1.4106 -1.7498
   86MOL   H12118991   3.407   0.984   6.494 -0.5740 -0.4499  0.2750
   86MOL   H12218992   3.350   1.052   6.656  0.4132  0.6105 -0.4757
   86MOL   C12318993   3.471   0.876   6.654 -0.4716 -0.6890  0.2195
   86MOL   C12418994   3.587   0.816   6.572  0.2401  0.0082  0.2407
   86MOL   O12518995   3.699   0.814   6.617 -0.5002  0.0530 -0.4330
   86MOL   C12618996   3.562   0.755   6.427 -0.5410 -0.4443 -0.7411
   86MOL   C12718997   3.360   0.774   6.677  0.3533  0.0708 -0.5429
   86MOL   H12818998   3.512   0.912   6.749 -1.7783 -1.1220  0.9498
   86MOL   H12918999   3.462   0.712   6.425 -1.2614  1.0716  1.1648
   86MOL   H13019000   3.570   0.836   6.355  0.5650  0.6098  0.5107
   86MOL   H13119001   3.636   0.677   6.406  0.6604 -0.0958  1.9398
   86MOL   H13219002   3.410   0.700   6.740  1.1765  1.4059  0.4294
   86MOL   H13319003   3.324   0.725   6.587  0.0855 -0.8499  0.0606
   86MOL   C13419004   3.237   0.827   6.752 -0.4006 -0.0957 -0.5061
   86MOL   C13519005   3.271   0.894   6.886  0.4318  0.0957  0.5527
   86MOL   O13619006   3.364   0.858   6.953 -0.1334  0.0868 -0.4495
   86MOL   C13719007   3.191   1.017   6.942 -0.1218 -0.0065 -0.0482
   86MOL   C13819008   3.134   0.712   6.766 -0.1903 -0.8066  0.1869
   86MOL   H13919009   3.190   0.906   6.694  1.9363  0.6887 -1.3989
   86MOL   H14019010   3.234   1.042   7.039 -0.1918 -1.0343  0.2485
   86MOL   H14119011   3.208   1.101   6.873 -0.0089  1.0624  1.2632
   86MOL   H14219012   3.087   0.987   6.929 -0.1736  0.3118 -0.3951
   86MOL   H14319013   3.107   0.704   6.871  0.1390  1.1461  0.4275
   86MOL   H14419014   3.178   0.614   6.747 -0.3401 -1.0130  0.8698
   86MOL   C14519015   2.998   0.742   6.696  0.4490 -0.0600 -0.2481
   86MOL   C14619016   2.919   0.848   6.770 -0.6351  0.4845  0.4995
   86MOL   O14719017   2.888   0.846   6.886  0.0692 -0.1764 -0.0565
   86MOL   C14819018   2.881   0.973   6.691 -0.5928 -0.0460  0.2275
   86MOL   C14919019   2.921   0.613   6.666 -0.3100  0.8041  0.3992
   86MOL   H15019020   3.029   0.776   6.597 -0.9215  0.4873 -0.4993
   86MOL   H15119021   2.773   0.989   6.696 -0.7078  0.1213 -2.1487
   86MOL   H15219022   2.921   1.056   6.749  0.1912  1.6341 -2.5814
   86MOL   H15319023   2.923   0.987   6.591 -0.4504 -1.3927  0.0927
   86MOL   H15419024   2.822   0.626   6.709 -1.0143  0.6943 -1.1427
   86MOL   H15519025   2.970   0.531   6.718 -1.1850  0.9183  1.4232
   86MOL   C15619026   2.914   0.572   6.514  0.1665 -0.6151 -0.2809
   86MOL   C15719027   3.052   0.519   6.458  0.5597 -0.2880  0.7887
   86MOL   O15819028   3.156   0.574   6.476 -0.4690  0.1798 -0.1717
   86MOL   C15919029   3.049   0.398   6.367 -0.2911 -0.2748  0.4920
   86MOL   C16019030   2.834   0.665   6.434  0.2173  0.0489  0.2319
   86MOL   H16119031   2.859   0.478   6.525  0.5589 -0.5467  2.8975
   86MOL   H16219032   3.131   0.395   6.296 -1.1706  1.4297 -0.6149
   86MOL   H16319033   3.064   0.307   6.426  2.4099  1.0112  1.8607
   86MOL   H16419034   2.955   0.395   6.311  0.3555 -1.4751 -0.5568
   86MOL   H16519035   2.898   0.726   6.370 -1.4769  1.3349 -0.2855
   86MOL   H16619036   2.789   0.733   6.506  0.0361  0.1032  0.0647
   86MOL   C16719037   2.724   0.596   6.354 -0.3803  0.2975 -0.5047
   86MOL   C16819038   2.656   0.698   6.257  0.1092  0.4452 -0.1784
   86MOL   O16919039   2.700   0.809   6.242 -0.2979  0.0690 -0.5914
   86MOL   C17019040   2.536   0.655   6.171 -0.3606 -0.4803 -0.6234
   86MOL   C17119041   2.625   0.522   6.438 -0.5372 -0.3275 -0.6333
   86MOL   H17219042   2.783   0.529   6.291  2.6319  1.5005  0.9148
   86MOL   H17319043   2.541   0.691   6.068  2.8250 -1.5952 -0.8863
   86MOL   H17419044   2.528   0.547   6.180 -2.9808 -0.3702 -1.2332
   86MOL   H17519045   2.454   0.705   6.223 -0.7641 -0.2832 -1.4294
   86MOL   H17619046   2.521   0.546   6.415 -0.5460  0.7137  0.4278
   86MOL   H17719047   2.631   0.559   6.541 -1.5064  1.6287 -1.2440
   86MOL   C17819048   2.627   0.367   6.444  0.0190 -0.0608  0.4566
   86MOL   C17919049   2.571   0.301   6.319  0.1525  0.7148  0.2428
   86MOL   O18019050   2.446   0.286   6.304 -0.3930  0.2666 -0.0685
   86MOL   C18119051   2.667   0.264   6.211 -0.2839  0.0329  0.7015
   86MOL   C18219052   2.540   0.314   6.562  0.3205  0.0921 -0.4107
   86MOL   H18319053   2.728   0.327   6.457  0.0269 -0.5900 -1.1604
   86MOL   H18419054   2.704   0.363   6.183  1.3905  0.0166  2.6855
   86MOL   H18519055   2.748   0.202   6.250 -0.7651 -0.5169  0.8339
   86MOL   H18619056   2.607   0.222   6.131  0.1518  0.5363  0.1039
   86MOL   H18719057   2.521   0.207   6.549  0.7758  0.0270 -0.5421
   86MOL   H18819058   2.441   0.359   6.555  1.4798  2.9711  1.3227
   86MOL   C18919059   2.598   0.341   6.707 -0.1180 -0.3197 -0.4167
   86MOL   C19019060   2.719   0.245   6.723  0.5721 -0.2876  0.4591
   86MOL   O19119061   2.838   0.288   6.710  0.3134  0.0146  0.2605
   86MOL   C19219062   2.690   0.097   6.747  0.2954 -0.4118  0.1521
   86MOL   C19319063   2.497   0.315   6.827 -0.0241 -1.0332  0.2300
   86MOL   H19419064   2.639   0.440   6.722  1.0896 -0.9854  0.8536
   86MOL   H19519065   2.634   0.049   6.667  0.2970 -0.2661  0.0637
   86MOL   H19619066   2.782   0.039   6.757  1.2617  0.8856 -1.0313
   86MOL   H19719067   2.637   0.085   6.841  0.3384  0.3809  0.2805
   86MOL   H19819068   2.546   0.291   6.922 -0.2442  0.5781  0.7621
   86MOL   H19919069   2.434   0.231   6.801 -0.0909 -1.0413  0.4163
   86MOL   C20019070   2.408   0.438   6.887 -0.8158  0.1414  0.1341
   86MOL   C20119071   2.498   0.552   6.941 -0.4912 -0.2332  0.4121
   86MOL   O20219072   2.585   0.528   7.022  0.2419 -0.3756  0.4987
   86MOL   C20319073   2.477   0.688   6.871 -0.7439  0.9521  0.4260
   86MOL   C20419074   2.317   0.384   6.998  0.4424  0.3700  0.0816
   86MOL   H20519075   2.337   0.477   6.815 -0.8837 -1.1740 -0.5242
   86MOL   H20619076   2.387   0.738   6.907 -1.5329  0.4694 -0.8466
   86MOL   H20719077   2.562   0.757   6.872  0.7901 -0.9091  0.2644
   86MOL   H20819078   2.447   0.667   6.769  0.2608  1.6049 -0.0101
   86MOL   H20919079   2.384   0.356   7.080 -0.4112 -1.7183  0.1044
   86MOL   H21019080   2.261   0.295   6.969  1.4667 -0.3224  0.1839
   86MOL   C21119081   2.217   0.479   7.060 -0.0917  0.4068 -0.5905
   86MOL   C21219082   2.139   0.414   7.178 -0.1747  0.2422 -0.0834
   86MOL   O21319083   2.099   0.299   7.177 -0.0528 -0.3664  0.6433
   86MOL   C21419084   2.109   0.499   7.302 -0.6334  0.2993  0.3401
   86MOL   C21519085   2.112   0.518   6.946  0.7200  0.1173  0.4413
   86MOL   H21619086   2.263   0.573   7.088 -1.2304  0.8915 -0.3148
   86MOL   H21719087   2.176   0.490   7.387  0.6229  0.8790 -0.5770
   86MOL   H21819088   2.094   0.603   7.273  2.0347  1.2938  2.3657
   86MOL   H21919089   2.015   0.462   7.345 -0.0242  1.2456  2.5525
   86MOL   H22019090   2.093   0.424   6.896 -0.8537  1.0037 -0.6656
   86MOL   H22119091   2.157   0.589   6.877  1.8208  1.0310  2.0611
   86MOL   H22219092   2.013   0.546   6.983 -0.2624 -0.6313 -1.5442
   87MOL     C119093   3.573   5.030   6.930 -0.2887 -0.5783  0.0230
   87MOL     C219094   3.679   4.940   6.871 -0.5556 -0.2997 -0.0262
   87MOL     O319095   3.771   4.990   6.809  0.0924  0.2144 -0.3008
   87MOL     C419096   3.676   4.786   6.894 -0.4659  0.1226  0.4036
   87MOL     C519097   3.625   5.164   6.981  0.2155 -0.1309 -0.0143
   87MOL     H619098   3.496   5.057   6.859  0.6880  0.6669 -0.5783
   87MOL     H719099   3.670   4.725   6.804  0.7392  2.3477 -1.2255
   87MOL     H819100   3.769   4.768   6.947 -0.5605  2.8842  1.5923
   87MOL     H919101   3.586   4.749   6.945 -0.2054 -2.5445 -1.0040
   87MOL    H1019102   3.530   5.214   7.001 -1.2460 -2.2933 -1.3410
   87MOL    H1119103   3.663   5.223   6.898 -2.4369  2.8949  0.8516
   87MOL    H1219104   3.517   4.982   7.011  0.0689  1.2559  1.4063
   87MOL    C1319105   3.742   5.156   7.090 -1.2085 -0.5311  0.2606
   87MOL    C1419106   3.670   5.130   7.225  0.8690 -0.3320  0.5110
   87MOL    O1519107   3.651   5.223   7.301 -0.0817 -0.1090 -0.0690
   87MOL    C1619108   3.623   4.984   7.249 -0.7462 -0.2491 -0.1196
   87MOL    C1719109   3.815   5.293   7.094 -0.0890  0.2458  0.2673
   87MOL    H1819110   3.815   5.083   7.055 -0.3823  2.0872 -3.9294
   87MOL    H1919111   3.628   4.947   7.351 -0.7030  0.2572  0.0656
   87MOL    H2019112   3.517   4.988   7.224 -1.0321  3.9022  1.3390
   87MOL    H2119113   3.671   4.923   7.172 -2.5733  0.1969 -1.6590
   87MOL    H2219114   3.743   5.374   7.110  0.5860  0.7709  0.6624
   87MOL    H2319115   3.860   5.308   6.996  1.3153 -3.4114  0.2596
   87MOL    C2419116   3.926   5.304   7.205  0.2193 -0.3812  0.3118
   87MOL    C2519117   3.937   5.443   7.266 -0.2000 -0.7725  0.1077
   87MOL    O2619118   4.044   5.505   7.258 -0.3567 -0.2978 -0.2078
   87MOL    C2719119   3.814   5.495   7.342 -0.6715  0.0547 -0.5302
   87MOL    C2819120   4.055   5.242   7.157  0.3843 -0.0701  0.9183
   87MOL    H2919121   3.909   5.244   7.294 -0.8343 -0.5969 -0.0292
   87MOL    H3019122   3.721   5.478   7.289  0.3449 -0.1980 -2.2894
   87MOL    H3119123   3.807   5.442   7.437  0.8726  1.0915  0.1765
   87MOL    H3219124   3.843   5.600   7.347 -0.4942 -0.0267  0.2828
   87MOL    H3319125   4.089   5.319   7.087  1.1001 -1.6211 -0.4834
   87MOL    H3419126   4.030   5.153   7.099 -0.5854  0.0188  1.1900
   87MOL    C3519127   4.175   5.211   7.254 -0.2273 -0.1360 -0.4940
   87MOL    C3619128   4.300   5.184   7.158  0.4871  0.0518  0.2866
   87MOL    O3719129   4.355   5.076   7.162 -0.0519  0.0125  0.0408
   87MOL    C3819130   4.354   5.305   7.084  0.4240 -0.1104  0.1001
   87MOL    C3919131   4.155   5.103   7.362  0.7660 -0.4592  0.3521
   87MOL    H4019132   4.199   5.302   7.309 -0.1010 -1.2793  1.3708
   87MOL    H4119133   4.336   5.384   7.156 -0.1688 -1.3837  1.3848
   87MOL    H4219134   4.462   5.318   7.080  0.3358  1.5993  2.4317
   87MOL    H4319135   4.303   5.331   6.991  2.3913 -0.2477 -1.0447
   87MOL    H4419136   4.057   5.133   7.400  0.5079 -1.0740  0.1745
   87MOL    H4519137   4.217   5.115   7.450  1.7984 -1.4744 -0.2201
   87MOL    C4619138   4.165   4.950   7.339 -0.1494 -0.0921  0.1041
   87MOL    C4719139   4.056   4.910   7.237 -0.2573  0.1099  0.1387
   87MOL    O4819140   3.938   4.893   7.261  0.2311  0.8967 -0.3386
   87MOL    C4919141   4.097   4.874   7.097 -0.2256  0.7423 -0.0973
   87MOL    C5019142   4.132   4.869   7.465 -0.9498  0.0219 -0.3319
   87MOL    H5119143   4.270   4.938   7.312 -0.0495 -0.6235  0.7137
   87MOL    H5219144   4.006   4.857   7.039 -0.0821  1.6957 -0.6063
   87MOL    H5319145   4.168   4.945   7.055 -1.4389  1.5064 -0.8920
   87MOL    H5419146   4.136   4.772   7.096 -1.6814  0.1480  1.1454
   87MOL    H5519147   4.091   4.773   7.436 -1.1104 -0.0806  0.2217
   87MOL    H5619148   4.043   4.919   7.504 -0.1090  2.7159 -1.7709
   87MOL    C5719149   4.247   4.839   7.573  0.3520  0.2235 -0.3937
   87MOL    C5819150   4.250   4.949   7.678 -0.2612  0.3295  0.0540
   87MOL    O5919151   4.328   5.046   7.664  0.1231  0.0216  0.0665
   87MOL    C6019152   4.169   4.931   7.808 -0.1907 -0.5415  0.1039
   87MOL    C6119153   4.385   4.802   7.511  0.0098  0.2325 -0.4036
   87MOL    H6219154   4.216   4.746   7.620  5.1010 -1.7008 -0.7653
   87MOL    H6319155   4.175   5.019   0.030  2.5165 -0.5859 -0.0164
   87MOL    H6419156   4.066   4.906   7.785 -1.0026  2.8395 -0.1948
   87MOL    H6519157   4.205   4.836   0.006  2.0986  0.8034  1.3477
   87MOL    H6619158   4.417   4.892   7.458  1.7290  0.2890  0.7054
   87MOL    H6719159   4.373   4.725   7.435 -2.1192 -0.1832  0.3169
   87MOL    C6819160   4.494   4.750   7.614  0.0935  0.4002  0.0617
   87MOL    C6919161   4.634   4.798   7.563 -0.4512 -0.4286  0.5949
   87MOL    O7019162   4.700   4.726   7.487  0.0688 -0.3894 -0.2076
   87MOL    C7119163   4.685   4.933   7.602 -0.1430 -0.7633 -0.3959
   87MOL    C7219164   4.483   4.598   7.654 -0.9714  0.0547 -0.1208
   87MOL    H7319165   4.481   4.814   7.702 -0.5849  1.1954 -0.6099
   87MOL    H7419166   4.692   5.013   7.528 -0.3505 -0.2066  0.1928
   87MOL    H7519167   4.626   4.975   7.683  1.4596 -2.5064  1.7678
   87MOL    H7619168   4.784   4.934   7.648 -0.0346  0.7644 -0.6355
   87MOL    H7719169   4.522   4.544   7.567 -1.2756 -1.0991  0.4394
   87MOL    H7819170   4.377   4.575   7.653 -0.9910  0.1475 -0.0718
   87MOL    C7919171   4.551   4.555   7.787  0.2487  0.2699 -0.3942
   87MOL    C8019172   4.518   4.657   0.065 -1.1146  0.4115 -0.1561
   87MOL    O8119173   4.594   4.753   0.082  0.3305  0.1114  0.6095
   87MOL    C8219174   4.385   4.644   0.137 -0.0942 -0.2022 -0.5308
   87MOL    C8319175   4.706   4.532   7.776  0.1988  0.2162  0.2399
   87MOL    H8419176   4.501   4.461   7.814 -0.0213  0.5541  0.1109
   87MOL    H8519177   4.334   4.740   0.150 -1.3702 -1.1078  1.3576
   87MOL    H8619178   4.312   4.583   0.083 -0.2544 -0.9150  0.4829
   87MOL    H8719179   4.412   4.620   0.239 -0.1576  1.2864 -0.1457
   87MOL    H8819180   4.755   4.505   0.028  0.7716 -0.2902 -0.2092
   87MOL    H8919181   4.757   4.625   7.753 -1.5651  0.8986 -1.0380
   87MOL    C9019182   4.742   4.423   7.671 -0.0117 -0.6387  0.2683
   87MOL    C9119183   4.696   4.285   7.713 -0.0511 -0.1629  0.2761
   87MOL    O9219184   4.728   4.246   7.826 -0.7270 -0.2897 -0.6655
   87MOL    C9319185   4.611   4.202   7.621 -0.1606  0.1353  0.1861
   87MOL    C9419186   4.897   4.422   7.652 -0.0769 -0.3766 -0.0884
   87MOL    H9519187   4.707   4.441   7.569 -2.8207 -2.1131  0.9241
   87MOL    H9619188   4.526   4.264   7.593 -0.2351  0.1937  0.5414
   87MOL    H9719189   4.665   4.179   7.529 -1.6876 -0.6471 -0.5173
   87MOL    H9819190   4.579   4.112   7.673  0.2020 -0.2385 -0.2361
   87MOL    H9919191   4.937   4.321   7.649  2.2984  0.5540 -1.6083
   87MOL   H10019192   4.943   4.457   7.744 -0.8524 -0.6543  0.4102
   87MOL   C10119193   4.953   4.496   7.535 -0.7780  0.4640 -0.3094
   87MOL   C10219194   4.910   4.440   7.392 -0.8057 -0.1589 -0.7020
   87MOL   O10319195   4.856   4.330   7.388 -0.4384  0.1186  0.6118
   87MOL   C10419196   4.928   4.511   7.262 -0.3678  0.0783 -0.3101
   87MOL   C10519197   5.105   4.492   7.538  0.4779 -0.7372 -0.6862
   87MOL   H10619198   4.920   4.599   7.547  0.0409  0.8315 -1.1715
   87MOL   H10719199   5.033   4.520   7.235  0.0288 -1.8067  0.4546
   87MOL   H10819200   4.888   4.444   7.186 -1.5958 -0.3847  0.7221
   87MOL   H10919201   4.891   4.612   7.253  1.0939  0.8387  1.7849
   87MOL   H11019202   5.143   4.450   7.445  1.5259  0.9098 -1.0382
   87MOL   H11119203   5.140   4.422   7.614 -0.6410  0.2354  0.7498
   87MOL   C11219204   5.188   4.617   7.568  0.1211 -0.5109 -0.2960
   87MOL   C11319205   5.171   4.678   7.708  0.6517  0.2160 -1.0627
   87MOL   O11419206   5.062   4.734   7.740 -0.1630  0.0884  0.4112
   87MOL   C11519207   5.279   4.669   7.811 -0.6187  0.0779 -0.7911
   87MOL   C11619208   5.159   4.717   7.450  0.7846  0.5660 -0.0479
   87MOL   H11719209   5.292   4.588   7.550 -0.4685 -1.5529 -2.0924
   87MOL   H11819210   5.373   4.693   7.760 -0.0260  0.2794  0.3745
   87MOL   H11919211   5.273   4.738   0.053 -1.5172  0.6206 -1.2942
   87MOL   H12019212   5.306   4.573   0.013  3.0838  1.0894 -0.6565
   87MOL   H12119213   5.051   4.722   7.435  0.4606  3.2959  2.6476
   87MOL   H12219214   5.194   4.681   7.353  0.5838  2.1943 -0.7378
   87MOL   C12319215   5.215   4.865   7.455 -0.3348 -0.5032 -0.5077
   87MOL   C12419216   5.134   4.964   7.372  0.3196  0.1188  0.4132
   87MOL   O12519217   5.185   5.040   7.285 -0.0182 -0.5886  0.1490
   87MOL   C12619218   4.994   4.990   7.419  0.3357 -0.0794 -0.1978
   87MOL   C12719219   5.366   4.877   7.418  0.0397 -0.5810 -0.2245
   87MOL   H12819220   5.204   4.904   7.557  0.6955 -1.9091  0.1522
   87MOL   H12919221   4.983   4.943   7.517 -2.0536 -0.3739 -0.5637
   87MOL   H13019222   4.995   5.099   7.428  1.3337 -0.2087  1.4924
   87MOL   H13119223   4.914   4.951   7.356 -0.0075  0.3135 -0.0145
   87MOL   H13219224   5.378   4.847   7.314  0.5410 -0.8285 -0.0967
   87MOL   H13319225   5.417   4.792   7.461  0.7593 -0.2468 -0.4058
   87MOL   C13419226   5.445   5.006   7.454  0.3945  0.3083  0.1927
   87MOL   C13519227   5.545   5.053   7.346  0.1746 -0.0581  0.3146
   87MOL   O13619228   5.568   5.175   7.328 -0.0880  0.2823  0.0231
   87MOL   C13719229   5.629   4.957   7.259 -0.1060  0.2497  0.3119
   87MOL   C13819230   5.527   4.988   7.580  0.3952 -0.0054 -0.2153
   87MOL   H13919231   5.371   5.086   7.464  0.3281  0.2914 -0.1738
   87MOL   H14019232   5.734   4.985   7.245  0.5658 -0.9438  2.6613
   87MOL   H14119233   5.619   4.860   7.308 -0.4675 -0.8970 -1.9740
   87MOL   H14219234   5.579   4.940   7.164 -1.0813  2.0318  0.4785
   87MOL   H14319235   5.621   4.935   7.563  1.6296  2.3374 -0.8806
   87MOL   H14419236   5.476   4.920   7.648 -0.9454  0.7262 -0.4794
   87MOL   C14519237   5.579   5.114   7.654  0.0968 -0.4498  0.1841
   87MOL   C14619238   5.639   5.080   7.794 -0.1038 -0.6576  0.5441
   87MOL   O14719239   5.639   4.971   0.005 -0.0939  0.0199  0.0073
   87MOL   C14819240   5.707   5.193   0.025  0.2920 -0.1769  0.4006
   87MOL   C14919241   5.483   5.236   7.653 -0.0224 -0.3441  1.0363
   87MOL   H15019242   5.660   5.143   7.586  0.2735 -0.1042  0.5441
   87MOL   H15119243   5.705   5.169   0.131  1.4765  2.4687  1.0602
   87MOL   H15219244   5.809   5.174   7.833  0.2721 -0.7143  0.6366
   87MOL   H15319245   5.668   5.294   0.008  2.3392  0.7749  1.1991
   87MOL   H15419246   5.444   5.252   7.553  2.0291 -3.0145 -0.2400
   87MOL   H15519247   5.543   5.325   7.672 -0.3681  0.0289  0.4147
   87MOL   C15619248   5.370   5.241   7.764 -1.0289 -0.4166  0.4512
   87MOL   C15719249   5.258   5.143   7.725  0.0356  0.6316 -0.8958
   87MOL   O15819250   5.200   5.151   7.621  0.1316  0.7396 -0.3657
   87MOL   C15919251   5.237   5.019   7.817  0.1456 -0.7204  0.0498
   87MOL   C16019252   5.300   5.379   7.768 -0.7013  0.1984  0.2188
   87MOL   H16119253   5.412   5.199   0.014 -0.8050  1.7932  1.4134
   87MOL   H16219254   5.158   4.962   7.769 -0.4901  0.0250  0.1999
   87MOL   H16319255   5.319   4.956   0.010  1.1143  0.4235 -0.0837
   87MOL   H16419256   5.192   5.062   0.065  0.3445 -2.2107  0.8686
   87MOL   H16519257   5.205   5.390   7.716 -0.0801 -2.1674 -1.4952
   87MOL   H16619258   5.364   5.453   7.718  0.3818 -1.8895 -1.5684
   87MOL   C16719259   5.279   5.429   0.075  0.0618 -0.6109  0.5226
   87MOL   C16819260   5.400   5.497   0.127 -0.1462  0.0937 -0.1083
   87MOL   O16919261   5.502   5.437   0.163 -0.2030  0.1782  0.2991
   87MOL   C17019262   5.390   5.652   0.132 -0.6697  0.3458  1.1956
   87MOL   C17119263   5.224   5.319   0.179 -0.4622 -0.4075  0.4138
   87MOL   H17219264   5.202   5.505   0.058 -0.4537 -1.4081 -0.7275
   87MOL   H17319265   5.287   5.684   0.145 -1.1724 -0.6218 -0.3029
   87MOL   H17419266   5.460   5.706   0.196 -0.0423  0.7168  0.2162
   87MOL   H17519267   5.412   5.689   0.032 -2.6038 -2.7044 -0.4261
   87MOL   H17619268   5.226   5.361   0.280  1.3656  0.2217  0.1357
   87MOL   H17719269   5.289   5.231   0.185  0.7241  0.4519  0.3028
   87MOL   C17819270   5.074   5.272   0.163  0.3211 -0.2899 -0.0179
   87MOL   C17919271   4.992   5.396   0.175  1.6922  0.3399  0.4807
   87MOL   O18019272   4.948   5.437   0.278  0.2992 -0.0065 -0.5575
   87MOL   C18119273   4.933   5.439   0.046  0.7537 -0.6188 -0.3560
   87MOL   C18219274   5.036   5.165   0.267  0.6980  0.1615 -0.1772
   87MOL   H18319275   5.062   5.229   0.064  2.4780 -2.2953  0.5388
   87MOL   H18419276   4.824   5.443   0.038  0.7551 -0.5786 -0.3579
   87MOL   H18519277   4.961   5.538   0.010 -1.3310 -0.1253 -0.6936
   87MOL   H18619278   4.972   5.380   7.806 -0.3211  1.6873 -2.6168
   87MOL   H18719279   5.055   5.205   0.366 -1.0806 -1.8053  0.9999
   87MOL   H18819280   5.108   5.083   0.267  0.5062 -0.0297 -1.8375
   87MOL   C18919281   4.895   5.098   0.260  0.4051  0.1318  0.0549
   87MOL   C19019282   4.868   5.024   0.128  0.5368  0.4317  1.4636
   87MOL   O19119283   4.847   5.088   0.021  0.2401  0.4405 -0.0785
   87MOL   C19219284   4.866   4.875   0.128  0.2182 -0.0432  0.4031
   87MOL   C19319285   4.768   5.190   0.284 -1.1907 -0.0544 -0.1341
   87MOL   H19419286   4.895   5.027   0.342  1.9834  0.8158  0.6740
   87MOL   H19519287   4.789   4.841   0.197 -0.3551 -0.8316 -0.6216
   87MOL   H19619288   4.848   4.830   0.031  0.7301  1.1554 -0.2590
   87MOL   H19719289   4.960   4.836   0.166  0.6451 -1.1722 -1.7549
   87MOL   H19819290   4.754   5.265   0.207  0.1835  1.2318  0.8552
   87MOL   H19919291   4.793   5.261   0.362  1.4316 -0.5554 -0.4711
   87MOL   C20019292   4.640   5.126   0.330 -0.3191  0.9869 -0.1293
   87MOL   C20119293   4.513   5.148   0.241  0.4962  0.5186 -0.2278
   87MOL   O20219294   4.431   5.235   0.262  0.4187  0.0542 -0.5236
   87MOL   C20319295   4.477   5.039   0.134  0.3443  0.1365 -0.9019
   87MOL   C20419296   4.608   5.148   0.483 -0.2740 -0.1673 -0.2208
   87MOL   H20519297   4.652   5.018   0.334  1.3736  1.1273 -0.7979
   87MOL   H20619298   4.576   5.011   0.097  2.1093  2.8271  1.6177
   87MOL   H20719299   4.427   4.952   0.179 -0.2769  0.1828 -1.4976
   87MOL   H20819300   4.422   5.093   0.058  0.3316  0.3030 -0.7737
   87MOL   H20919301   4.511   5.107   0.509 -1.1113  0.5982 -2.0479
   87MOL   H21019302   4.593   5.256   0.491 -0.9601 -0.3103  0.4978
   87MOL   C21119303   4.705   5.085   0.584 -0.3821  0.7184  0.5300
   87MOL   C21219304   4.721   4.932   0.576  0.6702 -0.1744 -0.6237
   87MOL   O21319305   4.823   4.875   0.537 -0.1609  0.2969  0.3212
   87MOL   C21419306   4.605   4.850   0.624  0.4338  0.1829  0.8738
   87MOL   C21519307   4.677   5.133   0.723  0.0603 -0.3621 -0.0852
   87MOL   H21619308   4.798   5.136   0.560 -0.4211  0.3150 -0.5082
   87MOL   H21719309   4.508   4.893   0.599 -0.2640 -2.1744 -0.6649
   87MOL   H21819310   4.604   4.747   0.590  0.4885 -0.9679  4.2180
   87MOL   H21919311   4.608   4.848   0.733 -1.3293  1.0415  0.9552
   87MOL   H22019312   4.680   5.241   0.720 -0.1781 -0.3524  0.0085
   87MOL   H22119313   4.751   5.081   0.785  1.7480  0.5523 -1.2986
   87MOL   H22219314   4.581   5.095   0.758  0.1876 -0.3604  0.2797
   88MOL     C119315   5.764   4.643   3.628 -0.2939  0.0041 -0.4268
   88MOL     C219316   5.889   4.551   3.641 -0.2310 -0.6140 -0.0114
   88MOL     O319317   5.970   4.532   3.547  0.2445  0.3722 -0.1221
   88MOL     C419318   5.922   4.487   3.770  0.0241  0.0049  0.2158
   88MOL     C519319   5.724   4.664   3.481  0.2769 -0.7712 -0.3507
   88MOL     H619320   5.675   4.604   3.679 -0.5668  0.4281 -0.5752
   88MOL     H719321   6.012   4.531   3.811  0.0451 -1.4032  1.7356
   88MOL     H819322   5.838   4.496   3.839 -0.6609 -0.2508 -0.5780
   88MOL     H919323   5.943   4.382   3.750  3.3558  0.8361 -1.0137
   88MOL    H1019324   5.616   4.678   3.475  0.7136  2.5240 -1.5461
   88MOL    H1119325   5.742   4.581   3.414 -0.1871  0.0453 -1.4987
   88MOL    H1219326   5.794   4.736   3.678  1.8070 -0.5751 -0.5746
   88MOL    C1319327   5.782   4.795   3.433 -0.6982 -0.1091 -0.5984
   88MOL    C1419328   5.699   4.920   3.479  0.6163  0.1170 -0.8884
   88MOL    O1519329   5.607   4.968   3.408  0.1871  0.5184  0.3554
   88MOL    C1619330   5.728   4.979   3.617 -0.2237 -0.2966  0.4618
   88MOL    C1719331   5.783   4.803   3.279  0.2355 -0.1592 -0.3753
   88MOL    H1819332   5.885   4.803   3.469  0.1539 -4.2673 -1.8174
   88MOL    H1919333   5.836   4.978   3.631  0.2511 -1.2259 -2.7790
   88MOL    H2019334   5.690   5.081   3.627  1.6641  0.4132  0.7427
   88MOL    H2119335   5.663   4.939   3.694 -1.0519 -1.1587 -0.6698
   88MOL    H2219336   5.795   4.901   3.233  0.6627  0.4261  0.9589
   88MOL    H2319337   5.683   4.773   3.247  0.3798 -0.8496 -0.1943
   88MOL    C2419338   5.893   4.703   3.224 -0.2315 -0.1369  0.7706
   88MOL    C2519339   6.034   4.753   3.244 -0.1023 -0.5644 -0.1184
   88MOL    O2619340   6.055   4.874   3.278  0.5861  0.6116 -0.4083
   88MOL    C2719341   6.153   4.656   3.231  0.3689 -0.1769  0.7074
   88MOL    C2819342   5.861   4.673   3.072 -0.1556 -0.5108 -0.4395
   88MOL    H2919343   5.884   4.607   3.273 -1.9927 -1.0803 -1.3056
   88MOL    H3019344   6.246   4.708   3.253  0.0003  0.6759  0.2714
   88MOL    H3119345   6.153   4.577   3.307  0.5665 -0.7391  0.1279
   88MOL    H3219346   6.164   4.614   3.131 -1.4258 -0.0587  0.4463
   88MOL    H3319347   5.940   4.630   3.012 -0.0824  1.9091 -2.1552
   88MOL    H3419348   5.847   4.772   3.028 -0.1687  0.0208  0.7281
   88MOL    C3519349   5.740   4.582   3.051 -0.1867  0.3657 -0.5249
   88MOL    C3619350   5.776   4.436   3.081 -0.1748  0.2643 -0.4654
   88MOL    O3719351   5.887   4.392   3.068  0.1459  0.5480  0.1898
   88MOL    C3819352   5.665   4.352   3.138  0.3331 -0.4707  0.4025
   88MOL    C3919353   5.699   4.596   2.903 -0.0644 -0.3258  0.0883
   88MOL    H4019354   5.663   4.607   3.123  1.4375  2.7615  0.4787
   88MOL    H4119355   5.586   4.414   3.179  1.3808 -0.2593  2.1844
   88MOL    H4219356   5.627   4.289   3.058  1.7632 -0.5818 -0.2035
   88MOL    H4319357   5.698   4.287   3.220 -4.6111 -0.4495  2.5521
   88MOL    H4419358   5.650   4.506   2.864  2.3379 -1.7523  0.2952
   88MOL    H4519359   5.786   4.613   2.841 -1.0552 -1.3688 -1.6275
   88MOL    C4619360   5.606   4.722   2.899  0.0486 -0.3027  0.2585
   88MOL    C4719361   5.477   4.698   2.981 -0.1058  0.2679 -0.1024
   88MOL    O4819362   5.438   4.591   3.026 -0.2488  0.0258 -0.4220
   88MOL    C4919363   5.373   4.816   2.990  0.4307  0.1238 -0.5894
   88MOL    C5019364   5.587   4.779   2.755 -0.1618 -0.2741  0.2534
   88MOL    H5119365   5.653   4.803   2.955  1.3202 -1.6562  1.1636
   88MOL    H5219366   5.330   4.846   2.895 -0.9011 -1.5278 -0.5142
   88MOL    H5319367   5.296   4.794   3.064  1.7328 -0.6779  0.5675
   88MOL    H5419368   5.439   4.898   3.020  0.6799 -0.2330 -0.1516
   88MOL    H5519369   5.520   4.864   2.767 -0.5973 -0.5379 -0.2635
   88MOL    H5619370   5.546   4.702   2.689  2.3371 -1.4038 -0.0441
   88MOL    C5719371   5.720   4.812   2.683  0.5753  0.2723  0.4109
   88MOL    C5819372   5.829   4.889   2.777  0.2206  0.2444 -0.1238
   88MOL    O5919373   5.795   4.984   2.847  0.9827 -0.1696  0.1161
   88MOL    C6019374   5.978   4.850   2.759 -0.0818  0.1518  0.5217
   88MOL    C6119375   5.694   4.886   2.555 -0.2267  0.0424  0.0691
   88MOL    H6219376   5.762   4.714   2.657 -0.9620 -0.4182  0.4838
   88MOL    H6319377   6.021   4.895   2.670  0.0411  0.6504  0.8297
   88MOL    H6419378   6.042   4.893   2.836  1.7030  2.6556 -2.2745
   88MOL    H6519379   6.010   4.746   2.762 -1.2471 -0.2073  0.7875
   88MOL    H6619380   5.691   4.992   2.580  0.0666 -0.1493  0.9473
   88MOL    H6719381   5.596   4.858   2.517  1.3848 -3.7414 -1.6114
   88MOL    C6819382   5.796   4.864   2.441 -0.5299 -0.9258 -0.2082
   88MOL    C6919383   5.747   4.944   2.324 -0.0090  0.1566  0.5106
   88MOL    O7019384   5.654   4.913   2.248  0.5390 -0.1206 -0.3184
   88MOL    C7119385   5.807   5.083   2.308 -0.1249 -0.3924 -0.2192
   88MOL    C7219386   5.804   4.708   2.404 -0.6265 -0.3994 -0.6996
   88MOL    H7319387   5.895   4.900   2.468 -0.0822 -1.4561 -1.1540
   88MOL    H7419388   5.912   5.071   2.281 -0.0581  1.0854 -0.6726
   88MOL    H7519389   5.755   5.135   2.227  0.2887 -0.7358 -0.7110
   88MOL    H7619390   5.795   5.139   2.401 -0.4020 -1.0706  0.1538
   88MOL    H7719391   5.797   4.703   2.295  0.9732  1.4138 -0.9153
   88MOL    H7819392   5.718   4.660   2.450 -0.5573  1.6770  1.7158
   88MOL    C7919393   5.927   4.633   2.458  0.0416 -0.4213 -0.3147
   88MOL    C8019394   6.064   4.670   2.394  0.3469  0.0790  0.6268
   88MOL    O8119395   6.141   4.743   2.462  0.1389  0.1009  0.2076
   88MOL    C8219396   6.095   4.628   2.252 -0.2053  0.2021 -0.5007
   88MOL    C8319397   5.902   4.480   2.469 -0.4308  0.0392  0.5641
   88MOL    H8419398   5.934   4.669   2.561  1.2197  3.0806 -1.5318
   88MOL    H8519399   6.198   4.599   2.235 -0.4274 -1.0363  0.2033
   88MOL    H8619400   6.028   4.547   2.222  2.9820 -2.2716 -1.1895
   88MOL    H8719401   6.076   4.708   2.181 -0.9597  0.9226  0.4878
   88MOL    H8819402   5.862   4.455   2.371 -2.2027 -2.5483  1.8757
   88MOL    H8919403   5.819   4.449   2.533 -0.4588 -0.6397  0.2033
   88MOL    C9019404   6.019   4.392   2.516  0.3209  0.3785  0.2044
   88MOL    C9119405   5.984   4.246   2.471  0.5916 -0.3194  0.7759
   88MOL    O9219406   5.941   4.166   2.551  0.1107 -0.2064 -0.0062
   88MOL    C9319407   5.954   4.215   2.325  0.4478 -0.8126 -0.1055
   88MOL    C9419408   6.070   4.411   2.665  0.2874 -0.2408  0.2585
   88MOL    H9519409   6.104   4.410   2.450  0.0778 -1.5910 -0.6707
   88MOL    H9619410   5.846   4.207   2.314  0.6477 -0.0128 -3.2399
   88MOL    H9719411   5.979   4.295   2.255  0.2086  0.1360  0.8820
   88MOL    H9819412   6.015   4.126   2.308  1.7670 -0.4254  2.3175
   88MOL    H9919413   5.983   4.372   2.719 -0.1306  0.3724  0.0297
   88MOL   H10019414   6.059   4.515   2.696  0.4399 -0.3200  0.5765
   88MOL   C10119415   6.195   4.328   2.699  0.5338  0.4843  0.4399
   88MOL   C10219416   6.207   4.299   2.854  0.7196  0.3212  0.1147
   88MOL   O10319417   6.260   4.379   2.926  0.2580  0.6188 -0.3172
   88MOL   C10419418   6.131   4.174   2.901  0.5560 -0.2597  0.0252
   88MOL   C10519419   6.326   4.401   2.651 -0.0200  0.2233 -0.3033
   88MOL   H10619420   6.194   4.231   2.649 -1.6656  0.5096  0.4087
   88MOL   H10719421   6.131   4.096   2.825 -1.2177  0.6465 -0.9459
   88MOL   H10819422   6.170   4.126   2.991  1.3614 -0.7477 -0.5783
   88MOL   H10919423   6.027   4.198   2.923  0.5590  0.2652 -0.5208
   88MOL   H11019424   6.343   4.494   2.706  0.2303  1.1171 -1.8625
   88MOL   H11119425   6.306   4.437   2.550  0.5551 -0.0798 -0.5265
   88MOL   C11219426   6.453   4.310   2.654 -0.3651  0.0278  0.1117
   88MOL   C11319427   6.585   4.396   2.646  0.0408 -0.3489  0.4244
   88MOL   O11419428   6.577   4.503   2.597 -0.3499  0.0798  0.0237
   88MOL   C11519429   6.714   4.345   2.708  0.0633 -0.0370 -0.4268
   88MOL   C11619430   6.454   4.194   2.549  0.0828  0.0500 -0.6007
   88MOL   H11719431   6.455   4.260   2.751  1.7066 -1.0398 -0.4505
   88MOL   H11819432   6.786   4.303   2.637  1.3812  0.8279  0.3642
   88MOL   H11919433   6.754   4.423   2.773  1.5059 -0.5552 -0.6690
   88MOL   H12019434   6.683   4.256   2.762 -2.0245  1.5468  1.0552
   88MOL   H12119435   6.361   4.138   2.565  0.8038 -1.0181 -0.1394
   88MOL   H12219436   6.525   4.119   2.584  1.7192  1.7490 -0.2547
   88MOL   C12319437   6.488   4.209   2.400 -0.2728  0.7793  0.2270
   88MOL   C12419438   6.389   4.295   2.319 -0.7686  0.1666 -0.4053
   88MOL   O12519439   6.265   4.276   2.324  0.5387 -0.6518  0.6406
   88MOL   C12619440   6.443   4.420   2.249  0.1937  0.3658 -0.0805
   88MOL   C12719441   6.495   4.070   2.334  0.0293  0.0319 -0.1778
   88MOL   H12819442   6.584   4.260   2.397 -0.1259  0.5239  0.5169
   88MOL   H12919443   6.362   4.466   2.192 -0.6468  0.5582  1.2268
   88MOL   H13019444   6.462   4.484   2.336 -0.2402  0.0149  0.2762
   88MOL   H13119445   6.535   4.407   2.192  0.8384  0.9935  0.7912
   88MOL   H13219446   6.397   4.025   2.323  0.5044 -1.7747  2.4154
   88MOL   H13319447   6.551   3.998   2.394 -0.8317 -1.2315 -0.8732
   88MOL   C13419448   6.572   4.060   2.195 -0.2888  0.3513  0.3478
   88MOL   C13519449   6.523   3.946   2.104 -0.1874  0.3133  0.1745
   88MOL   O13619450   6.508   3.836   2.154 -0.5071  0.4271 -0.1816
   88MOL   C13719451   6.487   3.974   1.957  0.2689  0.4390 -0.1455
   88MOL   C13819452   6.726   4.059   2.203  0.4396  0.0745  0.1944
   88MOL   H13919453   6.550   4.151   2.139  0.1963  0.5599  0.4944
   88MOL   H14019454   6.551   4.055   1.923 -1.1165  1.1463 -1.1276
   88MOL   H14119455   6.490   3.885   1.894  0.4775 -0.0647  0.5681
   88MOL   H14219456   6.382   4.003   1.959  0.7768  2.3582 -0.0247
   88MOL   H14319457   6.769   4.158   2.215 -0.4234  0.6048 -0.9664
   88MOL   H14419458   6.756   4.035   2.101 -0.0992 -0.0794  0.0722
   88MOL   C14519459   6.780   3.936   2.290 -0.4721  0.5582 -0.3220
   88MOL   C14619460   6.815   3.969   2.432  0.1863  0.0017 -0.7353
   88MOL   O14719461   6.833   4.085   2.461  0.6692  0.0099  0.2515
   88MOL   C14819462   6.806   3.851   2.532  0.2054 -0.3439  0.1443
   88MOL   C14919463   6.902   3.863   2.216  0.1553  0.4767 -0.2553
   88MOL   H15019464   6.699   3.864   2.283  0.0863  0.0202 -1.5471
   88MOL   H15119465   6.762   3.874   2.628  2.0167  1.4893  0.5776
   88MOL   H15219466   6.738   3.778   2.487 -0.9992 -0.2399  1.7756
   88MOL   H15319467   6.899   3.794   2.542  1.3803  1.6607  0.8256
   88MOL   H15419468   6.975   3.840   2.292 -0.1786  2.1804  0.6197
   88MOL   H15519469   6.953   3.931   2.147 -0.1996  2.2956  1.2427
   88MOL   C15619470   6.860   3.738   2.139  0.4307  0.7417 -0.1161
   88MOL   C15719471   6.898   3.615   2.216 -0.2198 -0.5704  0.2027
   88MOL   O15819472   7.013   3.586   2.220 -0.0100  0.7564 -0.0664
   88MOL   C15919473   6.785   3.525   2.274  0.3092  0.0585  0.0052
   88MOL   C16019474   6.930   3.737   2.005 -0.5666 -0.4466 -0.0472
   88MOL   H16119475   6.752   3.739   2.128  0.1726 -1.3206  1.8903
   88MOL   H16219476   6.702   3.516   2.203  0.8601 -1.8651 -0.4087
   88MOL   H16319477   6.825   3.428   2.301  0.1591  0.3218  1.1727
   88MOL   H16419478   6.743   3.574   2.362 -0.1826 -1.1308  0.4407
   88MOL   H16519479   7.036   3.712   2.017 -0.2407  0.7274 -0.4381
   88MOL   H16619480   6.923   3.829   1.946  2.9218 -0.1464 -0.1371
   88MOL   C16719481   6.877   3.623   1.917 -0.0737 -0.6552  0.2270
   88MOL   C16819482   6.990   3.544   1.849 -0.0149 -0.2993  0.0272
   88MOL   O16919483   7.016   3.546   1.726  0.4688  0.3156  0.2638
   88MOL   C17019484   7.079   3.459   1.938  0.8170  0.9174  0.2255
   88MOL   C17119485   6.764   3.667   1.825 -0.5020 -0.3314  0.4233
   88MOL   H17219486   6.839   3.541   1.979 -0.4402 -1.3020 -0.8271
   88MOL   H17319487   7.133   3.396   1.867 -0.4246 -0.3845  0.4216
   88MOL   H17419488   7.153   3.526   1.982  0.9399  1.7617 -1.2134
   88MOL   H17519489   7.031   3.397   2.013 -0.8153 -2.1762 -3.2074
   88MOL   H17619490   6.806   3.708   1.733 -0.4309  0.1115  0.6505
   88MOL   H17719491   6.712   3.756   1.859  0.6549  0.5025  0.0483
   88MOL   C17819492   6.652   3.561   1.791 -0.1314  0.3267  0.1154
   88MOL   C17919493   6.575   3.518   1.923 -0.5707 -0.5465  0.1727
   88MOL   O18019494   6.619   3.430   1.999 -0.2900 -0.4198 -0.0563
   88MOL   C18119495   6.444   3.588   1.958  0.7099 -1.3216  0.2401
   88MOL   C18219496   6.693   3.441   1.706  0.1059 -0.4262  0.2559
   88MOL   H18319497   6.571   3.616   1.743  0.2983  1.1925  0.3537
   88MOL   H18419498   6.369   3.545   1.892  1.6435 -1.7087 -0.5816
   88MOL   H18519499   6.410   3.572   2.060  2.1785 -2.8595  0.5250
   88MOL   H18619500   6.443   3.692   1.925  1.4790 -1.2903  0.3124
   88MOL   H18719501   6.627   3.356   1.691 -1.9201  1.4767 -2.0986
   88MOL   H18819502   6.763   3.385   1.767 -0.1635  1.7098  2.6006
   88MOL   C18919503   6.752   3.474   1.568  0.0890 -0.3647 -0.0799
   88MOL   C19019504   6.643   3.506   1.463 -0.0108 -0.7331  0.0555
   88MOL   O19119505   6.650   3.605   1.394  0.2941 -0.7626  0.1493
   88MOL   C19219506   6.542   3.401   1.431 -0.0107 -0.2072 -0.2936
   88MOL   C19319507   6.847   3.359   1.520  0.0143  0.0360 -0.1676
   88MOL   H19419508   6.816   3.562   1.576  0.7901 -1.0253  1.9218
   88MOL   H19519509   6.545   3.405   1.322 -0.9931 -1.1635 -0.3682
   88MOL   H19619510   6.557   3.301   1.471  0.0175  0.2789  0.9229
   88MOL   H19719511   6.443   3.436   1.458  1.0647  0.8809  2.3923
   88MOL   H19819512   6.792   3.267   1.500  1.8735 -0.9019 -1.0998
   88MOL   H19919513   6.910   3.339   1.607 -1.9677 -0.1942  1.2471
   88MOL   C20019514   6.963   3.399   1.422 -0.0783 -0.1465  0.5049
   88MOL   C20119515   6.908   3.429   1.286  0.0559 -0.3176 -0.3819
   88MOL   O20219516   6.834   3.343   1.228 -0.1374  0.6627 -0.3207
   88MOL   C20319517   6.940   3.557   1.214 -0.0268  0.5978  0.2337
   88MOL   C20419518   7.081   3.302   1.414  0.0016  0.2992 -0.1133
   88MOL   H20519519   7.015   3.491   1.449  1.2943 -0.8360  0.2203
   88MOL   H20619520   6.855   3.578   1.149 -0.6546 -1.8464  0.2127
   88MOL   H20719521   6.947   3.646   1.276  2.2084  0.0413  0.8047
   88MOL   H20819522   7.019   3.533   1.143 -0.4283 -0.0552  0.0071
   88MOL   H20919523   7.054   3.226   1.340  1.7661 -1.5125  1.0476
   88MOL   H21019524   7.080   3.249   1.509 -1.1336 -1.7043 -1.2223
   88MOL   C21119525   7.218   3.360   1.385 -0.4799 -0.6167 -0.2942
   88MOL   C21219526   7.319   3.262   1.332  0.3606 -0.6320  0.5397
   88MOL   O21319527   7.353   3.155   1.388  0.0470  0.3270  0.2294
   88MOL   C21419528   7.411   3.314   1.218 -0.0747  0.3439 -0.1803
   88MOL   C21519529   7.274   3.443   1.507  0.1399  0.0477 -0.8701
   88MOL   H21619530   7.201   3.440   1.314  1.7087  2.3310  2.3411
   88MOL   H21719531   7.454   3.408   1.252 -1.0237  0.4405  0.7708
   88MOL   H21819532   7.478   3.230   1.201 -1.4102 -0.4867 -1.4715
   88MOL   H21919533   7.359   3.331   1.124 -0.1212  2.5836  0.2293
   88MOL   H22019534   7.250   3.548   1.491  1.5871  0.8446  1.8660
   88MOL   H22119535   7.383   3.441   1.507  0.1704  0.1859  1.1037
   88MOL   H22219536   7.242   3.403   1.604  3.7930  0.3334  0.5121
   89MOL     C119537   1.532   7.329   6.434  0.4986 -0.7363  0.9021
   89MOL     C219538   1.624   7.259   6.540 -0.1772  0.3199 -0.1697
   89MOL     O319539   1.621   7.139   6.577  0.1325 -0.4471  0.2007
   89MOL     C419540   1.723   7.349   6.613  0.1168 -0.2637 -0.2199
   89MOL     C519541   1.394   7.264   6.423  0.2963 -0.1794 -0.2671
   89MOL     H619542   1.529   7.427   6.480 -1.7748 -0.6924  0.7104
   89MOL     H719543   1.668   7.439   6.643 -0.8407 -1.1486  0.7152
   89MOL     H819544   1.757   7.307   6.707 -0.6999 -1.2529 -0.3616
   89MOL     H919545   1.807   7.375   6.548 -0.0915 -0.9467 -0.7726
   89MOL    H1019546   1.315   7.339   6.420  1.0893  0.6630 -0.5448
   89MOL    H1119547   1.373   7.210   6.515  0.0114 -1.2450 -0.9547
   89MOL    H1219548   1.583   7.354   6.341 -1.4160 -1.0053 -0.2481
   89MOL    C1319549   1.373   7.184   6.301  0.1644  0.4072  0.4393
   89MOL    C1419550   1.325   7.257   6.173  0.2523 -0.2152 -0.0003
   89MOL    O1519551   1.220   7.239   6.114 -0.1043 -0.2565  0.1404
   89MOL    C1619552   1.428   7.358   6.119 -0.2974 -0.6359  0.4654
   89MOL    C1719553   1.275   7.072   6.337  0.0498  0.2281  0.1542
   89MOL    H1819554   1.464   7.128   6.279 -0.4212 -0.1689 -0.5724
   89MOL    H1919555   1.526   7.316   6.142  0.7284  0.5398 -1.5464
   89MOL    H2019556   1.408   7.368   6.012  1.7078  0.1863  0.1393
   89MOL    H2119557   1.422   7.455   6.168  0.1885 -0.2378 -0.2365
   89MOL    H2219558   1.271   7.008   6.248  0.0188 -1.3992  1.3078
   89MOL    H2319559   1.170   7.100   6.346 -0.3255 -0.3055 -2.1175
   89MOL    C2419560   1.321   6.966   6.436  0.2388  0.3277 -0.4443
   89MOL    C2519561   1.443   6.873   6.381  0.5041 -0.2483 -0.1759
   89MOL    O2619562   1.447   6.836   6.261 -0.0242  0.2277 -0.2198
   89MOL    C2719563   1.550   6.823   6.479 -0.3677 -0.9973 -0.6775
   89MOL    C2819564   1.199   6.874   6.483 -0.5450 -0.2460  0.5351
   89MOL    H2919565   1.352   7.017   6.528  0.2131  1.1236 -0.8755
   89MOL    H3019566   1.491   6.779   6.559 -0.5958 -1.4924 -1.1163
   89MOL    H3119567   1.620   6.755   6.429 -0.2587 -2.0651  0.8851
   89MOL    H3219568   1.611   6.905   6.517  0.6487 -2.9439  2.0347
   89MOL    H3319569   1.120   6.935   6.528 -2.0731 -0.7692 -1.3532
   89MOL    H3419570   1.238   6.821   6.570  2.7288 -0.8241 -1.2066
   89MOL    C3519571   1.138   6.768   6.380 -0.3220 -0.5827  0.0518
   89MOL    C3619572   1.050   6.827   6.270 -0.1381 -0.3241 -0.5732
   89MOL    O3719573   0.950   6.894   6.299  0.3901  0.3036 -0.0014
   89MOL    C3819574   1.094   6.804   6.130 -0.1831 -0.3208 -0.9305
   89MOL    C3919575   1.065   6.662   6.462 -0.1728 -0.8048 -0.0380
   89MOL    H4019576   1.222   6.708   6.344 -0.6333 -1.9989  1.6039
   89MOL    H4119577   1.015   6.845   6.067 -0.2943  2.8327  1.1727
   89MOL    H4219578   1.195   6.839   6.110 -0.3976  0.8948  0.0816
   89MOL    H4319579   1.091   6.697   6.108 -0.8930 -0.1459 -1.6985
   89MOL    H4419580   0.959   6.686   6.459 -0.0228 -0.3224 -2.3064
   89MOL    H4519581   1.096   6.670   6.566 -1.5801 -0.4702  0.3614
   89MOL    C4619582   1.071   6.514   6.417 -0.2549 -0.5490 -0.2834
   89MOL    C4719583   1.204   6.454   6.439  0.7512  0.6398 -0.5489
   89MOL    O4819584   1.295   6.474   6.356 -0.3116  0.0794 -0.0698
   89MOL    C4919585   1.217   6.350   6.553 -0.1038  0.1868 -0.6614
   89MOL    C5019586   1.024   6.500   6.269 -0.3039  0.2677 -0.4015
   89MOL    H5119587   1.007   6.470   6.494  0.1753  1.5131  1.3073
   89MOL    H5219588   1.313   6.379   6.597 -0.5884  0.3887  0.2718
   89MOL    H5319589   1.146   6.358   6.635  0.8970  2.5353  0.0124
   89MOL    H5419590   1.222   6.249   6.511 -0.5967  0.1098 -0.5369
   89MOL    H5519591   1.113   6.529   6.214 -0.7094  0.4630 -0.9598
   89MOL    H5619592   0.943   6.566   6.237  0.3341  1.8855  1.2057
   89MOL    C5719593   0.982   6.355   6.217  0.2623 -0.4894  0.2018
   89MOL    C5819594   0.846   6.317   6.270  0.3850  0.4073  0.2738
   89MOL    O5919595   0.823   6.318   6.390 -0.4801 -0.2180 -0.6899
   89MOL    C6019596   0.730   6.327   6.166  0.0709 -0.7048 -0.0839
   89MOL    C6119597   1.082   6.236   6.238 -0.0964  0.0338 -0.1917
   89MOL    H6219598   0.961   6.361   6.111 -1.6407  0.2394  0.5960
   89MOL    H6319599   0.678   6.230   6.164 -1.4610  0.1149 -0.7938
   89MOL    H6419600   0.662   6.405   6.199 -0.1414 -1.8546  2.2960
   89MOL    H6519601   0.769   6.339   6.065  0.4995  0.1021  0.1802
   89MOL    H6619602   1.032   6.143   6.212 -1.5400  0.2630  1.7062
   89MOL    H6719603   1.104   6.215   6.342  1.1710  0.2054 -0.4096
   89MOL    C6819604   1.212   6.248   6.152 -0.0681  0.3184 -0.4108
   89MOL    C6919605   1.193   6.198   6.008  0.3787 -0.3387 -0.0112
   89MOL    O7019606   1.225   6.083   5.963  0.2793 -0.1051 -0.6659
   89MOL    C7119607   1.157   6.297   5.901  0.4683 -0.3729  0.1336
   89MOL    C7219608   1.322   6.167   6.219 -0.8798  0.3431  0.1345
   89MOL    H7319609   1.231   6.353   6.133  0.2840  0.1118 -1.2100
   89MOL    H7419610   1.065   6.349   5.926  0.2490 -0.6782 -0.0372
   89MOL    H7519611   1.247   6.358   5.896 -0.2021  0.4403 -2.4813
   89MOL    H7619612   1.146   6.263   5.798 -1.2712 -0.6545  0.3969
   89MOL    H7719613   1.292   6.063   6.206 -2.0537  0.6824  0.0785
   89MOL    H7819614   1.325   6.171   6.328 -0.0347 -1.3760  0.1771
   89MOL    C7919615   1.465   6.178   6.166 -0.2579  0.5502  0.1632
   89MOL    C8019616   1.559   6.072   6.232 -0.6905 -0.3199 -0.3626
   89MOL    O8119617   1.607   5.990   6.157  0.1589 -0.5193  0.4272
   89MOL    C8219618   1.574   6.066   6.391  0.1047 -0.2840 -0.1683
   89MOL    C8319619   1.522   6.325   6.173 -0.0697  1.0756 -1.2018
   89MOL    H8419620   1.460   6.153   6.060 -1.7332 -0.8210  0.5335
   89MOL    H8519621   1.485   6.113   6.433 -0.6290 -2.3313  0.6234
   89MOL    H8619622   1.565   5.962   6.423  2.6388  0.1091  1.9719
   89MOL    H8719623   1.670   6.107   6.423 -0.8888  1.7227  0.3426
   89MOL    H8819624   1.558   6.338   6.275  0.8104 -4.7114 -0.6432
   89MOL    H8919625   1.430   6.380   6.149 -0.6241  0.8683  0.3479
   89MOL    C9019626   1.626   6.382   6.072 -0.0070 -0.0802  0.0608
   89MOL    C9119627   1.560   6.408   5.937 -0.9012 -0.5727  0.5907
   89MOL    O9219628   1.581   6.334   5.839  0.0306 -0.4197 -0.6307
   89MOL    C9319629   1.486   6.538   5.924  0.1675 -0.2981 -0.0295
   89MOL    C9419630   1.766   6.310   6.051 -0.2050 -0.2557 -0.4286
   89MOL    H9519631   1.652   6.483   6.104  0.0126 -0.7355  2.2393
   89MOL    H9619632   1.454   6.555   5.822  1.9129  2.0956 -0.2311
   89MOL    H9719633   1.394   6.522   5.981 -0.2936 -0.8677 -0.9297
   89MOL    H9819634   1.526   6.627   5.972 -1.6677  0.7311 -0.3500
   89MOL    H9919635   1.830   6.350   5.972  1.5282 -2.1950 -0.0320
   89MOL   H10019636   1.747   6.207   6.021  0.4912 -1.0300  1.7091
   89MOL   C10119637   1.856   6.298   6.173 -0.0882  0.3063 -0.1697
   89MOL   C10219638   1.876   6.427   6.243 -0.3129  0.0539 -0.3584
   89MOL   O10319639   1.953   6.507   6.192 -0.3060 -0.1561 -0.2594
   89MOL   C10419640   1.808   6.450   6.381  0.2681 -0.6222 -0.5291
   89MOL   C10519641   1.997   6.240   6.132 -0.1581 -0.1558 -0.8832
   89MOL   H10619642   1.807   6.222   6.234 -1.2785  1.0925 -0.1359
   89MOL   H10719643   1.716   6.508   6.382  0.1517 -0.7712 -2.0293
   89MOL   H10819644   1.789   6.354   6.428  1.9736 -1.0020 -0.5935
   89MOL   H10919645   1.882   6.507   6.438 -0.5372 -0.0804  0.0015
   89MOL   H11019646   2.068   6.240   6.214 -0.0886  1.0788 -0.9371
   89MOL   H11119647   2.034   6.311   6.058 -1.6826  1.4100 -0.1821
   89MOL   C11219648   2.005   6.091   6.089  0.2852  0.1272 -0.0187
   89MOL   C11319649   1.943   5.995   6.198  0.1029  0.4349 -0.2531
   89MOL   O11419650   1.905   6.032   6.308 -0.1722  0.0676 -0.2878
   89MOL   C11519651   1.929   5.848   6.155 -0.5462 -0.2241 -0.3825
   89MOL   C11619652   2.147   6.037   6.058  0.0299 -0.0484  0.4553
   89MOL   H11719653   1.939   6.085   6.002  0.4011 -1.2003 -0.0262
   89MOL   H11819654   2.003   5.789   6.209 -2.2374 -0.1869  2.0170
   89MOL   H11919655   1.833   5.800   6.173 -0.8017 -0.5619 -2.5069
   89MOL   H12019656   1.946   5.834   6.048  2.2918  1.3891 -0.1849
   89MOL   H12119657   2.148   5.934   6.025 -0.2233 -0.4424  1.6601
   89MOL   H12219658   2.199   6.034   6.154 -1.6051  0.0398  1.3818
   89MOL   C12319659   2.228   6.122   5.948  0.7332  0.0368 -0.3853
   89MOL   C12419660   2.147   6.125   5.823 -0.3780 -0.2461 -0.0813
   89MOL   O12519661   2.063   6.039   5.789 -0.1909  0.0539  0.0702
   89MOL   C12619662   2.169   6.252   5.735  0.0133 -0.3814  0.0042
   89MOL   C12719663   2.363   6.066   5.916  0.1888 -0.0161 -0.0824
   89MOL   H12819664   2.243   6.225   5.982  2.9206 -0.3106 -0.1728
   89MOL   H12919665   2.246   6.317   5.776 -1.3284  1.5430 -0.4222
   89MOL   H13019666   2.203   6.240   5.633 -0.3835  0.7552 -0.2799
   89MOL   H13119667   2.075   6.309   5.734 -0.2107 -0.7242  0.8943
   89MOL   H13219668   2.414   6.122   5.837 -0.9881  0.8773 -0.2198
   89MOL   H13319669   2.349   5.968   5.872 -1.7260  0.4677 -0.5938
   89MOL   C13419670   2.461   6.043   6.038 -0.1160  0.1447  0.6991
   89MOL   C13519671   2.504   6.174   6.108  0.2956 -0.0336 -0.6468
   89MOL   O13619672   2.596   6.242   6.061 -0.2930 -0.0285 -0.6356
   89MOL   C13719673   2.421   6.215   6.228 -0.3208  0.0117  0.1645
   89MOL   C13819674   2.588   5.961   5.993 -0.1418 -0.3136  0.2038
   89MOL   H13919675   2.404   5.980   6.106 -0.4958 -0.4593 -0.1579
   89MOL   H14019676   2.347   6.293   6.211 -1.4950 -1.6012 -2.4005
   89MOL   H14119677   2.365   6.132   6.270  2.9692 -2.8200 -0.7779
   89MOL   H14219678   2.488   6.245   6.309  2.1747 -0.5815 -1.5969
   89MOL   H14319679   2.671   5.961   6.065 -0.2476  1.7589  0.3396
   89MOL   H14419680   2.631   6.008   5.905  0.9734  0.4077  1.1146
   89MOL   C14519681   2.554   5.812   5.956 -0.4472 -0.9464 -0.0041
   89MOL   C14619682   2.555   5.722   6.084 -0.1773 -0.6337  0.1710
   89MOL   O14719683   2.653   5.656   6.124 -0.0141  0.2442  0.3816
   89MOL   C14819684   2.419   5.718   6.158 -0.2190  0.4347 -0.0312
   89MOL   C14919685   2.642   5.762   5.842 -0.3986 -0.8910  0.2548
   89MOL   H15019686   2.453   5.800   5.917  0.6468 -1.8918 -2.6843
   89MOL   H15119687   2.343   5.686   6.087  0.3240  0.3335 -0.5705
   89MOL   H15219688   2.417   5.654   6.246  1.8327 -0.5985 -0.7102
   89MOL   H15319689   2.378   5.811   6.197 -0.6006  0.7841 -1.2312
   89MOL   H15419690   2.602   5.664   5.815  1.4799 -1.0477 -2.1411
   89MOL   H15519691   2.748   5.757   5.868  0.5216 -0.2250 -3.1355
   89MOL   C15619692   2.660   5.829   5.706  0.5681  0.1856 -0.0498
   89MOL   C15719693   2.531   5.875   5.629  0.3054  0.2715  0.4197
   89MOL   O15819694   2.421   5.813   5.636  0.0238  0.0803  0.7396
   89MOL   C15919695   2.547   5.997   5.537 -0.3618 -0.1900  0.1650
   89MOL   C16019696   2.745   5.749   5.606 -0.3804 -0.0478  0.6085
   89MOL   H16119697   2.722   5.916   5.726  1.3744 -0.5661  0.8147
   89MOL   H16219698   2.450   6.035   5.505  0.0191  0.3938 -0.3005
   89MOL   H16319699   2.596   6.079   5.589  2.3154 -0.7197 -1.4287
   89MOL   H16419700   2.598   5.963   5.447 -1.2459 -0.7115 -0.1476
   89MOL   H16519701   2.744   5.794   5.507 -2.3298 -1.0785  0.1152
   89MOL   H16619702   2.684   5.661   5.584  0.0382 -0.3069  0.4935
   89MOL   C16719703   2.887   5.705   5.641  0.5398  0.5143  0.2973
   89MOL   C16819704   2.984   5.819   5.658 -0.4922 -0.6133 -0.0010
   89MOL   O16919705   2.951   5.935   5.643  0.3907 -0.1392  0.7045
   89MOL   C17019706   3.129   5.777   5.695  0.2059 -0.7848  0.5451
   89MOL   C17119707   2.938   5.583   5.552  0.1712  0.1295 -0.2890
   89MOL   H17219708   2.878   5.658   5.739 -0.6204 -0.4014 -0.2454
   89MOL   H17319709   3.121   5.695   5.766 -1.0823 -1.6342 -0.5590
   89MOL   H17419710   3.196   5.756   5.612 -0.0624  0.5560 -0.0261
   89MOL   H17519711   3.174   5.864   5.743  1.4874 -1.2196  0.1447
   89MOL   H17619712   3.047   5.580   5.556  0.1547  0.9155  1.6106
   89MOL   H17719713   2.889   5.594   5.456 -2.8179 -2.2671  0.8688
   89MOL   C17819714   2.888   5.443   5.616  0.2259 -0.4369 -0.4077
   89MOL   C17919715   2.952   5.414   5.750  0.4436 -0.1340  0.2531
   89MOL   O18019716   3.076   5.423   5.772 -0.1966  0.0887  0.2491
   89MOL   C18119717   2.854   5.368   5.859  0.1385 -0.0602 -0.0546
   89MOL   C18219718   2.921   5.318   5.531 -1.1200  0.0342  0.0042
   89MOL   H18319719   2.780   5.454   5.623  0.3866  0.3924  0.9323
   89MOL   H18419720   2.767   5.318   5.818  1.1876 -1.3820 -0.7080
   89MOL   H18519721   2.908   5.297   5.922  1.1781 -0.5543 -1.4771
   89MOL   H18619722   2.823   5.449   5.924 -0.3151 -0.2259 -0.0677
   89MOL   H18719723   3.028   5.303   5.538 -1.0680  1.1886  2.0464
   89MOL   H18819724   2.892   5.343   5.428 -4.7054 -1.5534  0.5343
   89MOL   C18919725   2.856   5.182   5.575  0.8855 -1.0266  0.1026
   89MOL   C19019726   2.929   5.064   5.518  0.1401 -0.1140 -0.0260
   89MOL   O19119727   2.917   5.039   5.401  0.0660  0.3074  0.7014
   89MOL   C19219728   3.004   4.973   5.613  0.0211  0.5436  0.0644
   89MOL   C19319729   2.707   5.187   5.541 -0.1468 -0.3661 -0.2349
   89MOL   H19419730   2.865   5.162   5.682  1.1313 -0.5108  0.1798
   89MOL   H19519731   2.976   4.984   5.718 -1.6696 -0.9705 -0.2064
   89MOL   H19619732   2.984   4.869   5.588 -1.8569  0.7351  0.6382
   89MOL   H19719733   3.109   4.999   5.607 -0.1166  1.3159  0.7883
   89MOL   H19819734   2.681   5.173   5.436 -1.7078  2.6153 -0.2913
   89MOL   H19919735   2.668   5.287   5.562 -0.9768 -1.0602  1.6852
   89MOL   C20019736   2.616   5.101   5.627 -0.5900 -0.1446  0.5315
   89MOL   C20119737   2.645   4.953   5.645  0.0019  0.1464  0.9261
   89MOL   O20219738   2.682   4.903   5.750 -0.3265 -0.4668 -0.1787
   89MOL   C20319739   2.643   4.869   5.515  0.2065  0.0499 -0.0624
   89MOL   C20419740   2.467   5.125   5.589 -0.7184 -0.0019 -0.2907
   89MOL   H20519741   2.625   5.128   5.733 -0.1208 -0.0297  0.4622
   89MOL   H20619742   2.606   4.768   5.532 -0.2036  0.2232  0.0716
   89MOL   H20719743   2.590   4.905   5.427  1.2947 -1.5698 -1.4198
   89MOL   H20819744   2.747   4.864   5.481 -0.2221  0.8706 -1.5484
   89MOL   H20919745   2.402   5.044   5.623 -0.2369 -0.9285 -1.5456
   89MOL   H21019746   2.461   5.106   5.482  1.2656 -0.0446 -0.4093
   89MOL   C21119747   2.402   5.265   5.616  0.2989  0.5918 -0.0687
   89MOL   C21219748   2.368   5.289   5.768 -0.3753  0.4253  0.3203
   89MOL   O21319749   2.336   5.194   5.841  0.4223  0.1226 -1.0403
   89MOL   C21419750   2.391   5.428   5.824 -0.5109 -0.0811 -0.5001
   89MOL   C21519751   2.275   5.286   5.534 -0.0673  0.0440  0.4518
   89MOL   H21619752   2.468   5.340   5.574 -0.9131  0.4784 -2.2779
   89MOL   H21719753   2.357   5.501   5.750 -0.0578  1.5190  0.8206
   89MOL   H21819754   2.334   5.442   5.916  1.0771  1.0659  0.3360
   89MOL   H21919755   2.497   5.437   5.845 -0.2642 -2.1282 -0.8147
   89MOL   H22019756   2.204   5.361   5.568 -0.4421 -0.6502  1.2319
   89MOL   H22119757   2.223   5.191   5.539  0.7605 -0.6808 -3.4422
   89MOL   H22219758   2.296   5.285   5.427 -1.0208 -0.8112  0.2703
   90MOL     C119759   3.207   7.399   6.583  0.2920  0.3186  0.3050
   90MOL     C219760   3.310   7.326   6.496 -0.0306 -0.1940 -0.3625
   90MOL     O319761   3.428   7.372   6.482  0.5507 -0.0212  0.3094
   90MOL     C419762   3.263   7.189   6.443  0.2756 -0.5790  0.3489
   90MOL     C519763   3.201   7.552   6.558  0.2198 -0.5112 -0.6612
   90MOL     H619764   3.112   7.351   6.557  1.3370 -1.1426 -0.8822
   90MOL     H719765   3.186   7.213   6.369  1.3037  1.8632  0.0268
   90MOL     H819766   3.337   7.152   6.372  0.7768  0.2548  0.4284
   90MOL     H919767   3.238   7.119   6.522  2.8682  0.3101  1.9983
   90MOL    H1019768   3.174   7.571   6.454  1.6814 -0.7957 -1.0971
   90MOL    H1119769   3.300   7.598   6.568  1.1087 -2.7195  1.1012
   90MOL    H1219770   3.224   7.379   6.688  0.5556 -3.2244 -0.3521
   90MOL    C1319771   3.098   7.630   6.647 -0.2869  0.0465  0.2277
   90MOL    C1419772   3.163   7.667   6.783 -0.7281  0.6989  0.1435
   90MOL    O1519773   3.250   7.593   6.835  0.5043 -0.2886 -0.1808
   90MOL    C1619774   3.100   7.774   6.869  0.6060 -0.1895  0.0310
   90MOL    C1719775   2.960   7.561   6.668 -0.4916 -0.2735 -0.5550
   90MOL    H1819776   3.073   7.728   6.606 -0.4555 -1.1525 -2.6983
   90MOL    H1919777   3.170   7.834   6.927  2.5235 -0.8185 -1.5856
   90MOL    H2019778   3.041   0.006   6.815 -0.9688 -0.7205  0.9712
   90MOL    H2119779   3.035   7.734   6.947 -1.4460  0.4776 -1.2905
   90MOL    H2219780   2.925   7.508   6.579 -0.0874  0.8078 -1.3666
   90MOL    H2319781   2.879   7.633   6.682  0.2365  0.3894  0.2857
   90MOL    C2419782   2.949   7.457   6.785  0.1782  0.1145 -0.2661
   90MOL    C2519783   2.890   7.319   6.739 -0.3215 -0.2461 -0.4373
   90MOL    O2619784   2.782   7.319   6.678 -0.4535  0.1682 -0.1104
   90MOL    C2719785   2.959   7.187   6.749  0.4347 -0.6533 -0.5675
   90MOL    C2819786   2.864   7.509   6.906  0.1976 -0.4694  0.9095
   90MOL    H2919787   3.052   7.444   6.818  0.7440 -3.3325 -3.0376
   90MOL    H3019788   3.064   7.198   6.720  0.6325 -0.6610  0.1217
   90MOL    H3119789   2.956   7.131   6.843 -0.5189 -1.6694 -1.1964
   90MOL    H3219790   2.914   7.124   6.672 -2.3072 -0.0384  0.4753
   90MOL    H3319791   2.763   7.473   6.890 -0.2876  1.2446 -0.0856
   90MOL    H3419792   2.858   7.618   6.900  0.8940 -0.5016 -0.6667
   90MOL    C3519793   2.918   7.464   7.045  0.1253  0.1717  0.1724
   90MOL    C3619794   2.883   7.315   7.081  0.2385 -0.0241 -0.0423
   90MOL    O3719795   2.783   7.256   7.029 -0.5005 -0.2043 -0.2667
   90MOL    C3819796   2.976   7.251   7.182 -0.5018 -0.3753  0.0277
   90MOL    C3919797   2.888   7.567   7.163 -0.3321  0.2513 -0.5077
   90MOL    H4019798   3.027   7.457   7.039 -0.0423 -1.4328 -1.7452
   90MOL    H4119799   2.936   7.270   7.282 -1.5645  2.7152 -0.9036
   90MOL    H4219800   2.996   7.146   7.159  0.8355  0.0963 -1.0283
   90MOL    H4319801   3.067   7.307   7.164  0.8383 -1.3250  3.6241
   90MOL    H4419802   2.961   7.647   7.159 -0.5716  0.4252 -1.6441
   90MOL    H4519803   2.931   7.518   7.250  0.1855  0.9994 -0.3394
   90MOL    C4619804   2.750   7.617   7.203  0.5101 -0.3926 -0.3708
   90MOL    C4719805   2.649   7.505   7.243  0.0302 -0.6168 -0.1282
   90MOL    O4819806   2.556   7.470   7.168 -0.1961 -0.3475 -0.0006
   90MOL    C4919807   2.667   7.428   7.370 -0.7519 -0.9679  0.5129
   90MOL    C5019808   2.690   7.723   7.100 -0.6703 -0.4483  0.5461
   90MOL    H5119809   2.765   7.665   7.300 -0.8253  1.1979 -0.9305
   90MOL    H5219810   2.670   7.491   7.459 -0.0730 -1.1206  0.5984
   90MOL    H5319811   2.584   7.358   7.382 -1.8760  0.5006  1.3867
   90MOL    H5419812   2.764   7.378   7.366  0.6204  1.6383  0.4093
   90MOL    H5519813   2.649   7.657   7.024 -0.6426  0.0122  0.1326
   90MOL    H5619814   2.772   7.780   7.054  0.1880 -1.4277  0.8420
   90MOL    C5719815   2.587   7.812   7.169 -0.0275  0.2070 -0.1930
   90MOL    C5819816   2.465   0.001   7.081 -0.0904 -0.0640 -0.2909
   90MOL    O5919817   2.463   0.034   6.967 -0.3347 -0.0965 -0.1733
   90MOL    C6019818   2.334   7.812   7.152  0.3726 -0.1914  0.3324
   90MOL    C6119819   2.657   0.097   7.216  0.1948  0.1960 -0.9700
   90MOL    H6219820   2.550   7.745   7.247 -0.1080  0.0919 -0.3284
   90MOL    H6319821   2.258   0.008   7.083  0.4083  0.6376  0.7461
   90MOL    H6419822   2.325   7.703   7.154 -1.2298 -0.1403 -1.8108
   90MOL    H6519823   2.313   0.030   7.241 -1.5731 -0.8325  0.3410
   90MOL    H6619824   2.593   0.185   7.211  0.2869  0.3346  0.2467
   90MOL    H6719825   2.721   0.132   7.135  3.8008 -1.0900  1.1737
   90MOL    C6819826   2.710   0.092   7.363 -0.0977  0.0581 -0.4419
   90MOL    C6919827   2.598   0.085   7.465  0.3219 -0.4396  0.6994
   90MOL    O7019828   2.479   0.111   7.438 -0.3737 -0.5020  0.3810
   90MOL    C7119829   2.638   0.075   7.611  0.9380 -0.2372  0.3822
   90MOL    C7219830   2.805   0.216   7.394 -0.5189 -0.1526 -0.0915
   90MOL    H7319831   2.765   7.839   7.365 -2.9034 -1.6526 -1.2872
   90MOL    H7419832   2.554   0.069   7.680 -0.9489 -0.5588 -1.8926
   90MOL    H7519833   2.696   7.825   7.627  2.0979  0.7500  2.0053
   90MOL    H7619834   2.694   0.163   7.644  0.7534  0.3178 -0.7651
   90MOL    H7719835   2.785   0.272   7.485 -3.1265  1.0078 -1.3451
   90MOL    H7819836   2.783   0.306   7.337  1.1215  0.6106  0.4486
   90MOL    C7919837   2.960   0.180   7.385  0.9397 -0.0079  0.7444
   90MOL    C8019838   3.014   0.155   7.243  0.1163  0.4211 -0.1172
   90MOL    O8119839   2.994   0.052   7.184 -0.0756  0.4025  0.2527
   90MOL    C8219840   3.077   0.277   7.176  0.6109  0.5268 -0.1213
   90MOL    C8319841   2.991   0.055   7.472 -0.2506  0.0336  0.6118
   90MOL    H8419842   3.018   0.255   7.441  1.8695 -0.6096  0.5984
   90MOL    H8519843   3.182   0.255   7.155 -0.1416 -1.6390 -1.8054
   90MOL    H8619844   3.044   0.296   7.074  2.3120 -0.1161 -0.8121
   90MOL    H8719845   3.063   0.362   7.242 -0.6403 -1.0613  1.7156
   90MOL    H8819846   2.995   7.806   7.413 -0.2650  0.5543 -0.1930
   90MOL    H8919847   2.910   0.031   7.541 -0.3204 -1.1469  0.1407
   90MOL    C9019848   3.120   0.059   7.562  0.3063  0.5282 -1.1149
   90MOL    C9119849   3.243   0.109   7.487 -0.3484  0.4168 -0.5391
   90MOL    O9219850   3.306   0.023   7.419  0.7960 -0.4224 -0.9119
   90MOL    C9319851   3.269   0.264   7.495 -0.4476 -0.4827  0.2234
   90MOL    C9419852   3.144   7.776   7.650 -0.1196 -0.0159 -0.5240
   90MOL    H9519853   3.098   0.144   7.627  0.6715 -0.0983 -0.1573
   90MOL    H9619854   3.217   0.315   7.414 -0.7860 -0.0501  0.7197
   90MOL    H9719855   3.239   0.306   7.590 -0.6191  0.3056 -0.1803
   90MOL    H9819856   3.378   0.265   7.483 -0.3576  0.8834  1.0985
   90MOL    H9919857   3.251   7.775   7.671 -0.3424 -0.3829  0.6487
   90MOL   H10019858   3.136   7.675   7.609 -0.4160 -1.3838  2.7512
   90MOL   C10119859   3.068   7.774   7.789  0.3648 -0.0455 -0.4121
   90MOL   C10219860   3.148   0.013   0.048 -0.0503  0.5497  0.0892
   90MOL   O10319861   3.266   7.823   0.069 -0.7527 -0.5877 -0.4446
   90MOL   C10419862   3.082   0.127   0.121 -0.1568 -0.7805  0.7152
   90MOL   C10519863   3.037   7.624   7.830 -0.2216  0.2768  0.6087
   90MOL   H10619864   2.970   7.819   7.771 -1.0644 -2.7793  0.2376
   90MOL   H10719865   3.142   0.173   0.199  0.7241  0.7218 -0.8184
   90MOL   H10819866   3.046   0.187   0.037 -0.3504 -1.1928  0.5063
   90MOL   H10919867   2.995   0.098   0.180 -1.5479  2.3368  0.3325
   90MOL   H11019868   3.032   7.621   0.097 -1.1043 -0.9395  0.5410
   90MOL   H11119869   3.120   7.557   7.810  0.2148  1.4387 -1.6126
   90MOL   C11219870   2.906   7.549   7.775  0.1851 -0.1881  0.0406
   90MOL   C11319871   2.906   7.539   7.621  0.7811  0.2133 -0.8810
   90MOL   O11419872   2.847   7.612   7.543 -0.3058 -0.1494  0.3412
   90MOL   C11519873   2.980   7.419   7.566 -0.5560 -0.4757  0.0026
   90MOL   C11619874   2.771   7.608   7.829 -0.8949  0.7443  0.4617
   90MOL   H11719875   2.927   7.447   7.808  1.0224 -0.6647 -1.8965
   90MOL   H11819876   3.080   7.422   7.610 -0.6566  1.1940  0.1716
   90MOL   H11919877   2.927   7.325   7.581 -0.6308 -0.2303  1.3297
   90MOL   H12019878   3.014   7.437   7.464  1.8752 -0.4888  0.7829
   90MOL   H12119879   2.717   7.670   7.757  0.3501  0.8714 -0.3959
   90MOL   H12219880   2.787   7.674   0.072 -0.2225 -0.5550  1.3618
   90MOL   C12319881   2.667   7.504   0.045  0.2965  0.4623 -0.1187
   90MOL   C12419882   2.600   7.417   7.774 -0.2738 -0.2101  0.1312
   90MOL   O12519883   2.523   7.462   7.694 -0.1229 -0.6934 -0.0911
   90MOL   C12619884   2.640   7.269   7.776  0.4689  0.0372  0.2907
   90MOL   C12719885   2.567   7.571   0.136 -0.4932  1.0488 -0.8800
   90MOL   H12819886   2.725   7.436   0.107  1.2953  1.0845 -0.3523
   90MOL   H12919887   2.549   7.208   7.781 -0.9883  2.0673 -1.0770
   90MOL   H13019888   2.696   7.248   7.685 -1.7842  0.9231 -1.3605
   90MOL   H13119889   2.694   7.228   0.020  1.4710 -0.6830 -0.6714
   90MOL   H13219890   2.558   7.677   0.110 -1.5460  0.9077 -1.1130
   90MOL   H13319891   2.614   7.582   0.234  0.9661 -0.5774 -1.3773
   90MOL   C13419892   2.424   7.513   0.163 -0.2311  0.1562  0.0297
   90MOL   C13519893   2.336   7.619   0.220  0.5510 -0.1359 -0.3469
   90MOL   O13619894   2.346   7.648   0.340 -0.0335  0.0264 -0.6711
   90MOL   C13719895   2.249   7.695   0.129 -0.0833  0.4511  0.3643
   90MOL   C13819896   2.450   7.383   0.249  0.0773 -0.3451  0.6265
   90MOL   H13919897   2.392   7.488   0.063 -1.2341 -0.3982  0.4862
   90MOL   H14019898   2.218   7.631   0.046 -1.7104  0.5942  0.8489
   90MOL   H14119899   2.164   7.723   0.192 -1.6785  0.8394 -1.9225
   90MOL   H14219900   2.305   7.783   0.098 -0.0784  0.8417  1.4540
   90MOL   H14319901   2.491   7.407   0.347 -2.0789 -1.2815  1.7795
   90MOL   H14419902   2.529   7.322   0.204  0.1379  0.4422 -0.3456
   90MOL   C14519903   2.338   7.284   0.282 -0.2006 -0.2614  0.5872
   90MOL   C14619904   2.267   7.225   0.157  0.1624  0.2690  0.4149
   90MOL   O14719905   2.250   7.281   0.050  0.4579 -0.1039 -0.0610
   90MOL   C14819906   2.211   7.085   0.170  0.4336  0.5245 -0.1456
   90MOL   C14919907   2.239   7.328   0.389  0.2136 -0.1329 -0.2169
   90MOL   H15019908   2.383   7.194   0.323 -0.9414 -1.1213 -0.4403
   90MOL   H15119909   2.126   7.070   0.103 -0.8472 -1.4241  1.8250
   90MOL   H15219910   2.284   7.010   0.141  1.3992  1.4526 -0.1526
   90MOL   H15319911   2.177   7.061   0.270  1.7036 -1.4355 -0.1501
   90MOL   H15419912   2.152   7.263   0.379  1.8021 -2.6376  1.7018
   90MOL   H15519913   2.199   7.426   0.361 -0.7482  0.1640  2.1155
   90MOL   C15619914   2.281   7.335   0.534  0.1861 -0.0339 -0.0099
   90MOL   C15719915   2.300   7.196   0.593  0.4377 -0.2376 -0.3328
   90MOL   O15819916   2.246   7.101   0.543 -0.2290 -0.4685 -0.2148
   90MOL   C15919917   2.395   7.183   0.712  0.2440  0.3814  0.5696
   90MOL   C16019918   2.177   7.410   0.619 -0.1223  0.1107  0.5747
   90MOL   H16119919   2.372   7.394   0.542  2.0719 -2.7572 -0.4542
   90MOL   H16219920   2.452   7.274   0.731  0.5847  0.5561 -1.1661
   90MOL   H16319921   2.340   7.156   0.802  0.5677  0.8913  0.9180
   90MOL   H16419922   2.469   7.102   0.709 -0.6769 -0.4498 -0.5195
   90MOL   H16519923   2.146   7.345   0.701 -2.1188 -1.0855 -1.0751
   90MOL   H16619924   2.086   7.427   0.561  1.1782  1.2589 -1.1898
   90MOL   C16719925   2.208   7.551   0.659  0.0646 -0.0217  0.0780
   90MOL   C16819926   2.302   7.549   0.785 -0.2715  0.5470  0.5839
   90MOL   O16919927   2.254   7.571   0.893 -0.2065  0.1730 -0.1634
   90MOL   C17019928   2.452   7.563   0.752 -0.1029  0.4679  0.1816
   90MOL   C17119929   2.082   7.643   0.686 -0.3389  0.4456 -0.8677
   90MOL   H17219930   2.269   7.590   0.577  1.5879 -0.2363  1.0825
   90MOL   H17319931   2.512   7.503   0.820  1.0616  1.1199 -0.2585
   90MOL   H17419932   2.481   7.545   0.649  0.7497 -1.6460  0.7602
   90MOL   H17519933   2.489   7.660   0.786  3.2555 -0.9716  0.8964
   90MOL   H17619934   2.112   7.716   0.762 -0.3306 -0.7325  0.2839
   90MOL   H17719935   2.025   7.579   0.754  0.1938 -0.0951 -0.9175
   90MOL   C17819936   2.004   7.708   0.581 -0.7361 -0.2116  0.5087
   90MOL   C17919937   2.095   7.808   0.500  0.5817 -0.3242  0.0678
   90MOL   O18019938   2.203   0.010   0.547  0.0263  0.1029 -0.7248
   90MOL   C18119939   2.040   0.024   0.372  0.2982  0.5375 -0.0537
   90MOL   C18219940   1.885   7.782   0.650 -0.3885  0.0653 -0.9442
   90MOL   H18319941   1.978   7.636   0.503 -1.3308  1.2247 -0.6472
   90MOL   H18419942   1.948   0.079   0.394  0.5564  1.1697 -0.5427
   90MOL   H18519943   2.124   0.090   0.347  0.1286 -0.0019 -2.1148
   90MOL   H18619944   2.015   7.790   0.298 -0.5595 -1.2058  1.9582
   90MOL   H18719945   1.898   0.045   0.675 -3.1693 -0.0422  1.2367
   90MOL   H18819946   1.873   7.739   0.750  1.0819  1.3741 -0.1882
   90MOL   C18919947   1.742   7.776   0.582  0.5693 -0.3948 -0.4607
   90MOL   C19019948   1.638   0.018   0.650  0.1197 -0.5001  0.2551
   90MOL   O19119949   1.578   7.833   0.747 -0.1941  0.1047  0.0212
   90MOL   C19219950   1.593   0.140   0.576 -0.2790  0.6619  0.3354
   90MOL   C19319951   1.678   7.629   0.576 -0.0490  0.0105  0.2571
   90MOL   H19419952   1.759   7.815   0.482  1.5896  0.6447  0.1146
   90MOL   H19519953   1.549   0.200   0.656  0.5531  1.0519  0.5050
   90MOL   H19619954   1.672   0.201   0.533 -0.3564  1.3933  1.2125
   90MOL   H19719955   1.520   0.117   0.498  1.2843  0.8675 -1.2020
   90MOL   H19819956   1.654   7.602   0.679  2.1029 -0.6954  0.6052
   90MOL   H19919957   1.749   7.556   0.537 -0.1197  0.3655 -0.5552
   90MOL   C20019958   1.545   7.626   0.495  0.1035  0.0201  0.3330
   90MOL   C20119959   1.480   7.486   0.519  0.6185  0.3526 -0.2633
   90MOL   O20219960   1.524   7.385   0.469  0.0332 -0.1973 -0.7410
   90MOL   C20319961   1.347   7.483   0.597 -0.6514  0.1904  0.2201
   90MOL   C20419962   1.563   7.669   0.343  0.3851 -0.2280  0.0979
   90MOL   H20519963   1.480   7.701   0.540  2.0099  1.4519  0.7597
   90MOL   H20619964   1.284   7.571   0.582 -0.6105 -0.2173 -2.8432
   90MOL   H20719965   1.295   7.392   0.567 -0.9767  0.1818  0.8069
   90MOL   H20819966   1.370   7.476   0.703 -0.6344 -1.7123  0.1238
   90MOL   H20919967   1.651   7.608   0.322 -1.0630 -1.8443 -1.4607
   90MOL   H21019968   1.586   7.775   0.340  1.0545 -0.3531  0.6338
   90MOL   C21119969   1.451   7.641   0.248  0.6150  0.1001 -0.0344
   90MOL   C21219970   1.503   7.682   0.109 -0.2352  0.1563 -0.4269
   90MOL   O21319971   1.559   7.793   0.085  0.5559  0.0594 -0.5992
   90MOL   C21419972   1.468   7.594   7.834 -0.0979 -0.0533 -0.1174
   90MOL   C21519973   1.331   7.726   0.287 -0.0396  0.1260  0.6243
   90MOL   H21619974   1.432   7.535   0.233  0.2153  0.3595 -1.4492
   90MOL   H21719975   1.560   7.536   7.826 -0.2316 -0.2825 -0.0124
   90MOL   H21819976   1.392   7.522   0.024  1.2149  0.2569  4.0544
   90MOL   H21919977   1.435   7.636   7.740  0.2282 -2.7147 -1.4656
   90MOL   H22019978   1.247   7.707   0.220 -0.5329 -0.7156  1.4713
   90MOL   H22119979   1.356   7.832   0.290  3.5670 -0.6922  1.0921
   90MOL   H22219980   1.303   7.697   0.388  1.8324  0.5176  1.2776
   91MOL     C119981   6.069   2.164   4.468 -0.0960 -0.2937 -0.0031
   91MOL     C219982   6.062   2.014   4.513 -0.3364  0.2641 -0.3506
   91MOL     O319983   6.166   1.948   4.526  0.4763 -0.4796  0.6639
   91MOL     C419984   5.925   1.950   4.542 -0.0194 -0.6002  0.3063
   91MOL     C519985   6.210   2.206   4.428 -0.2585 -0.0625  0.1941
   91MOL     H619986   6.007   2.181   4.380 -1.0565 -2.3571  0.2352
   91MOL     H719987   5.897   2.005   4.632 -1.3259  1.6399 -1.4126
   91MOL     H819988   5.859   1.971   4.459  0.5976 -0.7665 -0.2327
   91MOL     H919989   5.942   1.843   4.558  1.2356 -0.5336 -0.4820
   91MOL    H1019990   6.245   2.154   4.339  0.0222  2.5719 -1.3123
   91MOL    H1119991   6.278   2.170   4.505  0.7641  1.7363  0.1634
   91MOL    H1219992   6.047   2.234   4.549 -0.0726 -0.0670 -0.1954
   91MOL    C1319993   6.231   2.365   4.406 -0.3080  0.8075 -0.5180
   91MOL    C1419994   6.139   2.436   4.304  0.1595  0.0287 -0.5261
   91MOL    O1519995   6.103   2.550   4.310  0.5165  0.0697  0.2175
   91MOL    C1619996   6.095   2.352   4.189 -0.6143  0.1236  0.3811
   91MOL    C1719997   6.384   2.423   4.395 -0.2632  0.1518  0.2509
   91MOL    H1819998   6.179   2.406   4.492  2.8703  2.3518  0.7743
   91MOL    H1919999   6.096   2.419   4.104  2.9041  0.8641  0.9108
   91MOL    H2020000   6.159   2.268   4.162 -0.0844  1.0941 -1.4232
   91MOL    H2120001   5.995   2.311   4.200 -0.0481 -1.8145 -1.3159
   91MOL    H2220002   6.456   2.377   4.463  1.2207  0.3093 -1.1908
   91MOL    H2320003   6.361   2.524   4.430 -0.8097 -0.2002  0.9138
   91MOL    C2420004   6.447   2.430   4.256  0.3294 -0.1011 -0.1108
   91MOL    C2520005   6.469   2.284   4.204  0.2696  0.0137 -0.0640
   91MOL    O2620006   6.526   2.200   4.271 -0.3683  0.0195  0.4500
   91MOL    C2720007   6.410   2.244   4.072 -0.0011  1.0053 -0.5798
   91MOL    C2820008   6.579   2.510   4.259  0.0127  0.0048  0.0643
   91MOL    H2920009   6.388   2.487   4.186  1.9473 -0.2714 -1.6465
   91MOL    H3020010   6.360   2.326   4.020 -2.4140  0.9928  1.6061
   91MOL    H3120011   6.495   2.207   4.016 -0.2879 -1.2715  0.4498
   91MOL    H3220012   6.342   2.159   4.064  1.0560  0.0181  0.7911
   91MOL    H3320013   6.649   2.440   4.304  0.1478  0.4297  0.5165
   91MOL    H3420014   6.573   2.597   4.325 -1.6903 -0.0522  0.0046
   91MOL    C3520015   6.622   2.560   4.118  0.1822 -0.4307  0.0072
   91MOL    C3620016   6.769   2.529   4.079 -0.2729  1.2040  0.3825
   91MOL    O3720017   6.865   2.603   4.111 -0.2436 -0.1207 -0.3217
   91MOL    C3820018   6.794   2.407   3.988  0.2844 -0.2098  0.0123
   91MOL    C3920019   6.569   2.705   4.078 -0.3334  0.8049 -0.3499
   91MOL    H4020020   6.585   2.490   4.044 -0.0569 -0.1454 -0.1452
   91MOL    H4120021   6.870   2.358   4.049  0.4573  0.8099  0.6326
   91MOL    H4220022   6.715   2.336   3.966  1.3512 -1.4442  0.0776
   91MOL    H4320023   6.848   2.433   3.897  1.6491  1.0894  1.1635
   91MOL    H4420024   6.623   2.767   4.151  0.4870 -1.8851  1.4103
   91MOL    H4520025   6.466   2.716   4.111 -0.8028 -1.9329 -0.8330
   91MOL    C4620026   6.594   2.741   3.934  0.1304  0.3519  0.3313
   91MOL    C4720027   6.622   2.892   3.929  0.2856 -0.3926 -0.1011
   91MOL    O4820028   6.539   2.979   3.897  0.3677  0.3696 -0.1574
   91MOL    C4920029   6.769   2.938   3.945 -0.0044 -0.3125 -0.0414
   91MOL    C5020030   6.476   2.701   3.833 -0.2818 -0.1277 -0.6200
   91MOL    H5120031   6.681   2.685   3.900 -1.0113 -1.4426  0.2998
   91MOL    H5220032   6.804   2.957   3.844  0.4218  0.4238  0.2466
   91MOL    H5320033   6.780   3.027   4.006  0.6598  0.5264 -1.3675
   91MOL    H5420034   6.827   2.861   3.995 -0.3950 -0.4813  0.1576
   91MOL    H5520035   6.490   2.594   3.820  0.6036  0.1306 -1.9536
   91MOL    H5620036   6.509   2.735   3.734  1.1873  1.5346  0.3985
   91MOL    C5720037   6.330   2.747   3.854 -0.0641  0.0334 -0.2801
   91MOL    C5820038   6.243   2.659   3.945  0.6311  0.1646 -0.2395
   91MOL    O5920039   6.275   2.540   3.956 -0.1851 -0.3134 -0.2840
   91MOL    C6020040   6.101   2.692   3.984  0.3685  0.4101  0.2737
   91MOL    C6120041   6.257   2.794   3.724  0.4089 -0.1719 -0.0307
   91MOL    H6220042   6.338   2.837   3.916 -1.2529 -0.4721  0.6319
   91MOL    H6320043   6.027   2.612   3.975 -1.9264  1.9556  4.0912
   91MOL    H6420044   6.100   2.709   4.092  3.5159  0.6597  0.3034
   91MOL    H6520045   6.065   2.778   3.929  1.4353  0.1935 -0.7783
   91MOL    H6620046   6.150   2.770   3.721  0.6102 -1.2175  1.0378
   91MOL    H6720047   6.303   2.740   3.642  2.1934 -1.3634  1.7060
   91MOL    C6820048   6.253   2.943   3.681  0.0353  0.0066 -0.5657
   91MOL    C6920049   6.214   3.039   3.797 -0.0666  0.7023  0.2519
   91MOL    O7020050   6.137   3.000   3.882 -0.0648  1.0844 -0.0382
   91MOL    C7120051   6.262   3.185   3.792  0.2161 -0.0982 -0.6361
   91MOL    C7220052   6.151   2.956   3.564 -0.1161 -0.2026  0.1890
   91MOL    H7320053   6.350   2.965   3.637  0.7696  0.3829  1.2273
   91MOL    H7420054   6.204   3.245   3.722 -1.8803 -2.3695 -0.9209
   91MOL    H7520055   6.239   3.219   3.893  2.6149 -1.0261  0.2760
   91MOL    H7620056   6.370   3.189   3.775  0.4361  0.2123  0.7449
   91MOL    H7720057   6.146   3.064   3.550  2.4828  0.0949  1.1224
   91MOL    H7820058   6.051   2.936   3.602  0.1379 -0.2119  0.8741
   91MOL    C7920059   6.172   2.885   3.436 -0.1280  0.6838 -0.5860
   91MOL    C8020060   6.286   2.947   3.343  0.0008  0.5588  0.7508
   91MOL    O8120061   6.304   3.068   3.350 -0.2079 -0.3660 -0.0363
   91MOL    C8220062   6.377   2.858   3.250 -0.3683  0.0718 -0.7825
   91MOL    C8320063   6.046   2.856   3.352  0.5448 -0.4130 -0.1172
   91MOL    H8420064   6.202   2.784   3.464 -0.8370  0.3480 -1.0360
   91MOL    H8520065   6.420   2.775   3.306 -0.4523  1.8218  1.9722
   91MOL    H8620066   6.322   2.825   3.162 -0.6196  2.0645 -1.4166
   91MOL    H8720067   6.463   2.907   3.204 -0.0877 -0.1084 -0.4487
   91MOL    H8820068   5.979   2.807   3.423  2.0529 -0.2260  1.4695
   91MOL    H8920069   6.067   2.766   3.294  2.1956 -2.5309  3.5837
   91MOL    C9020070   5.972   2.968   3.275 -0.0695 -0.0349  0.1136
   91MOL    C9120071   5.939   3.095   3.364 -0.5861 -0.0585  0.8680
   91MOL    O9220072   5.870   3.083   3.462  0.5652 -0.0280  0.4905
   91MOL    C9320073   6.004   3.226   3.319 -0.5899 -0.2691  0.3848
   91MOL    C9420074   5.843   2.916   3.198 -0.2319 -0.1189 -0.1489
   91MOL    H9520075   6.041   3.015   3.205 -0.0913  1.6184  1.1780
   91MOL    H9620076   6.034   3.287   3.404 -0.5328 -0.1607  0.2855
   91MOL    H9720077   6.090   3.199   3.258  0.3745  0.9472  1.1756
   91MOL    H9820078   5.932   3.279   3.257 -0.2480  0.6351  0.7497
   91MOL    H9920079   5.758   2.892   3.263 -1.7593  1.7436 -1.4015
   91MOL   H10020080   5.876   2.817   3.166  0.1824 -0.3309  0.9110
   91MOL   C10120081   5.802   3.002   3.076  0.6144  0.6519 -0.1640
   91MOL   C10220082   5.724   3.127   3.115 -0.4747 -0.3385 -0.2914
   91MOL   O10320083   5.751   3.238   3.066 -0.3901 -0.1430 -0.7726
   91MOL   C10420084   5.600   3.104   3.199 -0.1361 -0.4786  0.5207
   91MOL   C10520085   5.723   2.922   2.965 -0.5040 -0.2415 -0.3360
   91MOL   H10620086   5.897   3.024   3.028  1.4422 -0.7603  0.8078
   91MOL   H10720087   5.538   3.018   3.175 -0.7580 -0.5076  2.1917
   91MOL   H10820088   5.627   3.082   3.303  1.9574  1.1913  0.3658
   91MOL   H10920089   5.535   3.189   3.180  1.0745  0.1691 -0.8560
   91MOL   H11020090   5.620   2.902   2.994 -1.4913  1.1675 -2.7635
   91MOL   H11120091   5.771   2.825   2.954  0.5904 -0.3313  4.0468
   91MOL   C11220092   5.716   2.984   2.825  0.1153  0.0134  0.2744
   91MOL   C11320093   5.602   2.931   2.737  0.7354 -0.0598 -0.3943
   91MOL   O11420094   5.491   2.986   2.723  0.8632 -0.2626  0.0524
   91MOL   C11520095   5.631   2.806   2.658 -0.1765 -0.0730 -0.1755
   91MOL   C11620096   5.846   3.016   2.749  0.2790  0.2089 -0.0262
   91MOL   H11720097   5.678   3.082   2.856 -1.8731 -0.1107 -1.6824
   91MOL   H11820098   5.716   2.816   2.591 -0.2384  0.4169 -0.1800
   91MOL   H11920099   5.658   2.728   2.728 -0.0637  3.0000  3.3508
   91MOL   H12020100   5.556   2.779   2.583  1.3117  1.5879 -2.3229
   91MOL   H12120101   5.875   2.924   2.698 -0.2262 -1.1112  1.9971
   91MOL   H12220102   5.942   3.011   2.801 -0.3548 -1.6370  1.0240
   91MOL   C12320103   5.838   3.153   2.663  0.2627  0.1053 -0.2485
   91MOL   C12420104   5.772   3.133   2.520  0.3872  0.7589 -0.8010
   91MOL   O12520105   5.794   3.027   2.462  0.2183  0.0187  0.2345
   91MOL   C12620106   5.692   3.252   2.459  0.0598 -0.5511 -0.1344
   91MOL   C12720107   5.977   3.224   2.646  0.5928 -0.2983 -0.0006
   91MOL   H12820108   5.771   3.218   2.718 -2.4144 -1.3342 -1.7155
   91MOL   H12920109   5.661   3.239   2.355  0.6790 -2.2952 -0.1259
   91MOL   H13020110   5.610   3.281   2.524  0.5498  1.4490 -0.3712
   91MOL   H13120111   5.761   3.336   2.456 -2.0217  1.1940 -0.3033
   91MOL   H13220112   6.007   3.241   2.749 -0.0441 -1.0842  0.3204
   91MOL   H13320113   5.962   3.327   2.616 -0.1043 -0.4767 -0.2948
   91MOL   C13420114   6.104   3.152   2.563 -0.6720 -0.5616  0.2419
   91MOL   C13520115   6.199   3.075   2.654  0.1604  0.2990  0.8593
   91MOL   O13620116   6.184   3.064   2.775  0.1965  0.1057 -0.2637
   91MOL   C13720117   6.317   3.000   2.587  0.7983 -0.0446 -0.4151
   91MOL   C13820118   6.192   3.256   2.483  0.0354 -0.1358 -0.4836
   91MOL   H13920119   6.065   3.085   2.487  1.3250 -0.4328 -0.9504
   91MOL   H14020120   6.361   3.056   2.505 -1.8959  1.1999 -1.0692
   91MOL   H14120121   6.391   2.988   2.666  1.8278 -0.5928 -1.4606
   91MOL   H14220122   6.277   2.907   2.547 -1.3698  0.6487  0.0533
   91MOL   H14320123   6.278   3.282   2.545 -0.6428  0.2644  0.3071
   91MOL   H14420124   6.138   3.349   2.464 -0.0754 -0.2516 -0.7347
   91MOL   C14520125   6.236   3.208   2.342 -0.6987  0.1610  0.0763
   91MOL   C14620126   6.388   3.228   2.313  0.4481  0.1871  0.6211
   91MOL   O14720127   6.466   3.137   2.319  0.5144  0.6291  0.5286
   91MOL   C14820128   6.441   3.371   2.282 -0.5058  0.0351  0.2128
   91MOL   C14920129   6.137   3.246   2.225 -0.1539 -0.4911 -0.3153
   91MOL   H15020130   6.225   3.100   2.349  1.4665 -0.1716 -1.2341
   91MOL   H15120131   6.366   3.430   2.230  0.1607  0.4487 -0.2932
   91MOL   H15220132   6.450   3.414   2.382 -4.3954  0.0939  0.6222
   91MOL   H15320133   6.539   3.372   2.235 -1.4899 -0.3875 -1.8729
   91MOL   H15420134   6.127   3.350   2.195  0.2081 -0.6142 -0.8735
   91MOL   H15520135   6.036   3.224   2.260  0.3076  0.5363  1.7481
   91MOL   C15620136   6.153   3.165   2.098  1.0637  0.2382 -0.6720
   91MOL   C15720137   6.162   3.017   2.119  0.4211 -0.3570  0.5245
   91MOL   O15820138   6.059   2.955   2.147 -0.6582  0.2563  0.2174
   91MOL   C15920139   6.294   2.944   2.110  0.1679  0.3734 -0.7164
   91MOL   C16020140   6.262   3.217   1.993  0.0553 -0.0565 -0.2866
   91MOL   H16120141   6.055   3.189   2.056  1.1687  1.0421 -0.4638
   91MOL   H16220142   6.374   2.994   2.165 -0.3691  1.0308 -0.5208
   91MOL   H16320143   6.294   2.838   2.135  2.5709  0.3307 -0.8005
   91MOL   H16420144   6.323   2.945   2.005 -3.5969  1.8251 -1.8376
   91MOL   H16520145   6.357   3.191   2.040  0.3256 -0.5061 -1.0863
   91MOL   H16620146   6.261   3.326   1.989  0.4352 -0.0299  0.2342
   91MOL   C16720147   6.251   3.175   1.840  0.2111  0.4951 -1.0440
   91MOL   C16820148   6.373   3.224   1.769 -0.0814 -0.1847  0.0311
   91MOL   O16920149   6.376   3.314   1.695 -0.5042 -0.1187  0.3253
   91MOL   C17020150   6.505   3.148   1.807  0.0597  0.8121  0.2287
   91MOL   C17120151   6.122   3.232   1.766 -0.0384  0.9385  0.0702
   91MOL   H17220152   6.255   3.067   1.833 -1.3939  0.1954  1.5812
   91MOL   H17320153   6.546   3.199   1.894  1.0777 -1.9473  1.4529
   91MOL   H17420154   6.474   3.044   1.822 -1.5800  1.2695  0.0426
   91MOL   H17520155   6.586   3.153   1.734  0.5139 -1.0895  0.5621
   91MOL   H17620156   6.137   3.339   1.753  0.0532  1.0711  1.1953
   91MOL   H17720157   6.028   3.214   1.819 -1.0373  0.8218 -1.7070
   91MOL   C17820158   6.098   3.183   1.624 -1.0356 -0.2338 -1.3689
   91MOL   C17920159   6.049   3.290   1.532 -0.9917 -0.3398  0.0504
   91MOL   O18020160   5.933   3.291   1.491  0.3929  0.2216 -0.6620
   91MOL   C18120161   6.157   3.372   1.464  0.6617  0.1587 -0.5930
   91MOL   C18220162   6.019   3.049   1.609  0.0791 -0.0599  0.6917
   91MOL   H18320163   6.197   3.167   1.581 -0.1504  0.0782  0.5212
   91MOL   H18420164   6.236   3.311   1.420  0.6491  0.1969 -0.6678
   91MOL   H18520165   6.103   3.427   1.386 -1.8937 -1.1719  0.1798
   91MOL   H18620166   6.186   3.441   1.543 -0.0528  1.3708 -1.3640
   91MOL   H18720167   5.917   3.084   1.623  0.0263  0.7054 -1.3710
   91MOL   H18820168   6.030   2.984   1.696  0.9181  0.3695  0.9176
   91MOL   C18920169   6.023   2.968   1.484  1.0115 -0.1896  0.8568
   91MOL   C19020170   5.881   2.907   1.449  0.2572 -0.4835  0.2116
   91MOL   O19120171   5.810   2.851   1.537 -0.4179  0.5504  0.0436
   91MOL   C19220172   5.852   2.911   1.298 -0.3232 -0.4581  0.1859
   91MOL   C19320173   6.123   2.854   1.473  0.1295 -0.0249  0.4397
   91MOL   H19420174   6.033   3.052   1.415  1.7058  0.4596  1.7389
   91MOL   H19520175   5.815   3.010   1.272 -1.4030  0.1008  3.5746
   91MOL   H19620176   5.951   2.920   1.253  0.0472  0.1263  1.1059
   91MOL   H19720177   5.790   2.838   1.247  1.8086 -1.0441 -1.6795
   91MOL   H19820178   6.115   2.821   1.369 -1.5984 -0.2324  0.6128
   91MOL   H19920179   6.088   2.773   1.538 -1.5516 -0.1736 -0.6241
   91MOL   C20020180   6.273   2.874   1.502 -0.1279  0.2361  0.3314
   91MOL   C20120181   6.339   2.978   1.416 -0.2612  0.5906 -0.3635
   91MOL   O20220182   6.280   3.022   1.312  0.2485  0.7141  0.7290
   91MOL   C20320183   6.472   3.034   1.467  0.6962 -0.1696 -0.0884
   91MOL   C20420184   6.357   2.745   1.508 -0.7225  0.5258 -0.2059
   91MOL   H20520185   6.282   2.916   1.602 -1.4702 -2.0527  1.4448
   91MOL   H20620186   6.519   2.989   1.555  1.0049  0.4687  0.0746
   91MOL   H20720187   6.550   3.021   1.392  0.9229  0.0962  0.1048
   91MOL   H20820188   6.449   3.137   1.492 -1.0467 -0.2924 -1.0965
   91MOL   H20920189   6.461   2.775   1.495 -0.1938 -0.8473  0.7697
   91MOL   H21020190   6.331   2.684   1.421 -0.3647 -1.7790  1.2481
   91MOL   C21120191   6.346   2.647   1.632  0.1907  0.4504  0.1161
   91MOL   C21220192   6.329   2.706   1.778 -0.2715 -0.0736 -0.7642
   91MOL   O21320193   6.383   2.811   1.803 -0.2435 -0.1861 -0.7059
   91MOL   C21420194   6.249   2.627   1.885 -0.1371  0.6540  0.1472
   91MOL   C21520195   6.471   2.549   1.642 -0.1642  0.1024 -0.7607
   91MOL   H21620196   6.257   2.588   1.612 -0.8989  1.7699  1.0397
   91MOL   H21720197   6.301   2.639   1.980 -0.3175  1.2481  0.1764
   91MOL   H21820198   6.149   2.666   1.901  0.0411  1.8846 -1.5797
   91MOL   H21920199   6.259   2.519   1.872  2.1811  0.7832  0.6389
   91MOL   H22020200   6.457   2.460   1.582 -1.4027 -0.7573  0.7613
   91MOL   H22120201   6.498   2.500   1.736  0.9231  2.4587  0.2081
   91MOL   H22220202   6.565   2.599   1.618  0.2865 -0.2068  0.3229
   92MOL     C120203   7.766   5.196   6.018 -0.4884 -1.1954  0.2646
   92MOL     C220204   7.838   5.077   6.080 -0.2708 -0.5785  0.1614
   92MOL     O320205   0.096   5.092   6.147  0.0225  0.4778 -0.3101
   92MOL     C420206   7.785   4.938   6.057  0.4701 -0.6703 -0.1247
   92MOL     C520207   7.638   5.213   6.084  0.1853  1.0886 -0.2214
   92MOL     H620208   7.820   5.290   6.017  0.3708 -1.6780  1.2674
   92MOL     H720209   7.691   4.922   6.111  0.2473  1.5235  0.1869
   92MOL     H820210   7.760   4.919   5.952 -0.7825  1.3626 -0.2197
   92MOL     H920211   0.019   4.868   6.092  0.8944  0.8052  1.9672
   92MOL    H1020212   7.583   5.120   6.070 -0.9870  1.6688  0.4565
   92MOL    H1120213   7.573   5.282   6.030 -0.7192  0.6462  0.3027
   92MOL    H1220214   7.742   5.172   5.914 -0.6082 -0.0849  0.0357
   92MOL    C1320215   7.633   5.245   6.236  0.3061 -0.5210  0.3281
   92MOL    C1420216   7.496   5.218   6.287 -1.1319 -0.5168 -0.2601
   92MOL    O1520217   7.403   5.295   6.266  0.4280  0.4080  0.4075
   92MOL    C1620218   7.480   5.097   6.376 -0.0886  0.2990  0.6366
   92MOL    C1720219   7.669   5.398   6.256  0.0419  0.3077  0.8948
   92MOL    H1820220   7.708   5.183   6.284  1.0416 -0.3572 -0.5851
   92MOL    H1920221   7.541   5.125   6.461 -1.5454 -1.1883  2.2035
   92MOL    H2020222   7.374   5.091   6.400 -0.0720  1.3784  0.9861
   92MOL    H2120223   7.523   5.010   6.325 -0.0637  0.7915 -0.1982
   92MOL    H2220224   7.584   5.452   6.215 -0.5204 -1.5653 -0.4672
   92MOL    H2320225   7.761   5.427   6.206  1.8322 -0.8874  3.3841
   92MOL    C2420226   7.697   5.442   6.399 -0.8197 -0.9038 -0.3817
   92MOL    C2520227   7.661   5.594   6.416 -0.6807  0.1007 -0.0743
   92MOL    O2620228   7.750   5.680   6.394  0.8401 -0.0816  0.4190
   92MOL    C2720229   7.522   5.632   6.439  0.0769 -0.5185 -0.1509
   92MOL    C2820230   0.005   5.401   6.445  0.1660 -0.4278 -0.3701
   92MOL    H2920231   7.622   5.393   6.460 -1.0653 -0.9007 -0.6834
   92MOL    H3020232   7.525   5.716   6.508  0.7105  0.2366 -1.0969
   92MOL    H3120233   7.485   5.653   6.339  2.4869 -2.2092 -1.4173
   92MOL    H3220234   7.460   5.549   6.475  0.1518 -0.0733  1.0365
   92MOL    H3320235   0.079   5.458   6.388  0.4140  0.3785  0.7381
   92MOL    H3420236   0.017   5.298   6.412  2.8777 -0.1868 -0.2080
   92MOL    C3520237   0.035   5.400   6.600 -0.6997  0.5222  0.0764
   92MOL    C3620238   0.033   5.534   6.663 -0.4664  0.5251  0.5000
   92MOL    O3720239   7.767   5.587   6.701  0.1250  0.6169 -0.3953
   92MOL    C3820240   0.166   5.617   6.657 -0.3600  0.7910  0.4076
   92MOL    C3920241   0.171   5.331   6.624  0.1132 -0.7720  0.0727
   92MOL    H4020242   7.792   5.352   6.647 -0.5899  0.3224  0.0720
   92MOL    H4120243   0.235   5.594   6.576 -1.5765 -1.1718 -0.1015
   92MOL    H4220244   0.125   5.717   6.643 -1.7966 -0.0924 -1.9477
   92MOL    H4320245   0.216   5.616   6.754  0.7882  0.0311 -0.1897
   92MOL    H4420246   0.207   5.351   6.725 -0.2180  0.0915  0.0239
   92MOL    H4520247   0.251   5.383   6.571  0.6901 -1.4301  0.2964
   92MOL    C4620248   0.181   5.185   6.590 -0.8746  0.7483 -0.6263
   92MOL    C4720249   0.088   5.098   6.672  0.1539 -1.2048  0.4228
   92MOL    O4820250   0.112   5.060   6.780  0.2219  0.7446 -0.3923
   92MOL    C4920251   7.806   5.058   6.592  0.6229 -0.2566 -0.4922
   92MOL    C5020252   0.325   5.127   6.615 -0.3724 -0.5428 -0.4887
   92MOL    H5120253   0.160   5.171   6.484  1.4444 -2.9022 -0.6949
   92MOL    H5220254   7.775   4.960   6.628  0.4248 -0.0927 -0.2100
   92MOL    H5320255   7.724   5.130   6.594  1.0795  0.2296  1.5838
   92MOL    H5420256   7.839   5.049   6.488 -0.7513  2.1741 -1.1741
   92MOL    H5520257   0.331   5.055   6.697  4.0604 -0.8735 -0.9722
   92MOL    H5620258   0.382   5.209   6.658 -2.9415  0.8037  0.4407
   92MOL    C5720259   0.408   5.069   6.504  0.4707 -0.2429 -0.2761
   92MOL    C5820260   0.343   4.952   6.436 -0.2377 -0.8404  0.5996
   92MOL    O5920261   0.250   4.882   6.485  0.1972 -0.9974 -0.2255
   92MOL    C6020262   0.382   4.930   6.291  0.1328  0.4082  0.0270
   92MOL    C6120263   0.549   5.027   6.550  0.3353  0.2637 -0.2721
   92MOL    H6220264   0.414   5.136   6.418 -0.2294  0.6551  0.3706
   92MOL    H6320265   0.365   5.021   6.232  1.5906  1.1692  0.7391
   92MOL    H6420266   0.489   4.909   6.281  0.3867  0.9410  1.4970
   92MOL    H6520267   0.334   4.844   6.245  1.7341 -0.5371  0.0649
   92MOL    H6620268   0.582   4.937   6.497 -0.9966 -0.6206  0.3766
   92MOL    H6720269   0.555   4.999   6.655  0.3413  1.4187  0.0437
   92MOL    C6820270   0.642   5.139   6.520  0.4750  0.3396 -0.5773
   92MOL    C6920271   0.689   5.127   6.380  0.3623 -0.1286  0.5262
   92MOL    O7020272   0.734   5.023   6.333  0.2786 -0.6241 -0.3434
   92MOL    C7120273   0.682   5.256   6.299 -0.3986 -0.2388  0.0789
   92MOL    C7220274   0.749   5.147   6.625 -1.2434  0.0803 -0.4251
   92MOL    H7320275   0.578   5.227   6.520 -0.7231 -0.5175  1.1342
   92MOL    H7420276   0.772   5.316   6.289 -0.4000 -0.4660 -1.2983
   92MOL    H7520277   0.652   5.244   6.195 -0.9795 -0.9189  0.3239
   92MOL    H7620278   0.599   5.315   6.338  1.0785  1.8006  0.2028
   92MOL    H7720279   0.784   5.045   6.645 -0.5881  0.6898  1.5514
   92MOL    H7820280   0.693   5.157   6.717  0.7924 -0.5013  0.8994
   92MOL    C7920281   0.862   5.258   6.608  0.4524  0.1211 -0.2767
   92MOL    C8020282   0.987   5.220   6.691  0.6912 -0.3201  0.2526
   92MOL    O8120283   0.980   5.147   6.784 -0.3111 -0.0775 -0.1654
   92MOL    C8220284   1.122   5.272   6.645  0.1358 -0.6168  0.3393
   92MOL    C8320285   0.811   5.404   6.641  0.9871  0.0895  0.1175
   92MOL    H8420286   0.888   5.250   6.502  0.8375 -2.3537 -0.0058
   92MOL    H8520287   1.184   5.200   6.593 -0.4759  0.8986 -2.5894
   92MOL    H8620288   1.101   5.361   6.586  1.9211  0.5910  1.4452
   92MOL    H8720289   1.175   5.315   6.730  0.3565  0.0455 -0.1295
   92MOL    H8820290   0.747   5.430   6.557  0.0925 -0.0342  0.7507
   92MOL    H8920291   0.892   5.477   6.634 -0.7822  2.2024  1.0054
   92MOL    C9020292   0.736   5.428   6.782 -0.7750  0.1810 -0.0913
   92MOL    C9120293   0.580   5.437   6.756 -0.2987  0.2350 -1.3501
   92MOL    O9220294   0.536   5.433   6.643 -0.6062  0.0483 -0.1548
   92MOL    C9320295   0.486   5.449   6.878  0.0299  0.6728 -0.3334
   92MOL    C9420296   0.787   5.557   6.857  0.5892 -0.2995  0.5414
   92MOL    H9520297   0.751   5.342   6.848  3.2117 -1.0355 -2.4141
   92MOL    H9620298   0.390   5.490   6.847  0.3646  0.5679 -1.5395
   92MOL    H9720299   0.474   5.348   6.918 -0.2616  0.4875 -0.8666
   92MOL    H9820300   0.530   5.514   6.953  2.3106 -1.7993  0.5508
   92MOL    H9920301   0.705   5.618   6.896 -1.3617 -3.5207  1.6186
   92MOL   H10020302   0.841   5.611   6.779  2.1989 -1.6250  0.7065
   92MOL   C10120303   0.892   5.525   6.969  0.5404 -0.5283  0.1214
   92MOL   C10220304   0.839   5.449   7.093 -0.4906  0.4232  0.6347
   92MOL   O10320305   0.738   5.489   7.154 -0.0243  0.4101  0.7335
   92MOL   C10420306   0.904   5.315   7.138 -0.6828 -0.2089  1.0940
   92MOL   C10520307   0.973   5.657   7.011 -0.7946 -0.2028  0.4060
   92MOL   H10620308   0.951   5.449   6.918  2.4056  1.1204 -0.2304
   92MOL   H10720309   1.003   5.333   7.178 -0.1579  0.1108 -0.3080
   92MOL   H10820310   0.847   5.264   7.216  0.2587 -1.7027  0.8331
   92MOL   H10920311   0.908   5.248   7.051  0.1035  2.6138 -1.1277
   92MOL   H11020312   0.972   5.676   7.119  0.4619 -0.9250  0.5552
   92MOL   H11120313   0.916   5.740   6.970 -0.4807  0.1666  0.7189
   92MOL   C11220314   1.122   5.660   6.952  0.0120 -0.3216 -0.0647
   92MOL   C11320315   1.135   5.661   6.799  0.3053  0.4600 -0.1256
   92MOL   O11420316   1.144   5.553   6.737 -0.3001  0.1160  0.0090
   92MOL   C11520317   1.121   5.783   6.715  0.0876  0.5845  0.5443
   92MOL   C11620318   1.226   5.566   7.017 -0.6491 -0.5482 -0.2367
   92MOL   H11720319   1.164   5.759   6.969 -2.0981  0.7191 -0.7410
   92MOL   H11820320   1.043   5.765   6.641  1.4411 -3.3786 -0.0052
   92MOL   H11920321   1.092   5.878   6.761 -1.8452  0.8475 -1.1260
   92MOL   H12020322   1.206   5.798   6.648  0.3530 -0.1020  0.7244
   92MOL   H12120323   1.319   5.575   6.961 -0.3705  1.6028  0.5109
   92MOL   H12220324   1.190   5.465   7.000 -0.2700 -0.5652 -0.9705
   92MOL   C12320325   1.250   5.592   7.168  0.7244 -0.7346  0.2464
   92MOL   C12420326   1.340   5.712   7.183 -0.2929  0.1197  0.6271
   92MOL   O12520327   1.444   5.720   7.113 -0.4354 -0.6990  0.0012
   92MOL   C12620328   1.303   5.807   7.301  0.2821 -0.5990  0.4708
   92MOL   C12720329   1.319   5.466   7.241 -0.4986 -0.1182 -0.5438
   92MOL   H12820330   1.167   5.613   7.235  0.7388  0.4019 -0.0946
   92MOL   H12920331   1.377   5.879   7.338 -0.4433  1.6904 -2.3346
   92MOL   H13020332   1.219   5.871   7.274  1.4523 -0.2829 -2.6423
   92MOL   H13120333   1.278   5.752   7.391 -0.0927  1.0580  1.4036
   92MOL   H13220334   1.426   5.488   7.244 -0.0333 -2.2808  0.4398
   92MOL   H13320335   1.299   5.379   7.178  2.5566 -0.4557 -1.1313
   92MOL   C13420336   1.273   5.431   7.389  0.4419 -0.9976 -0.3408
   92MOL   C13520337   1.343   5.521   7.493 -0.3123  0.2162 -0.2910
   92MOL   O13620338   1.277   5.579   7.577  0.1699  0.4396  0.3587
   92MOL   C13720339   1.497   5.516   7.499  0.2128  0.0524 -0.2951
   92MOL   C13820340   1.282   5.282   7.427  0.2330  0.2092  0.0031
   92MOL   H13920341   1.167   5.455   7.398  0.1335 -2.0852 -1.0338
   92MOL   H14020342   1.560   5.579   7.563  1.8734 -2.6441  0.8401
   92MOL   H14120343   1.527   5.415   7.527 -1.4734 -0.1876  0.6712
   92MOL   H14220344   1.538   5.513   7.398  0.6377  1.7278 -0.2044
   92MOL   H14320345   1.383   5.268   7.464  0.1614  2.2315  1.0074
   92MOL   H14420346   1.260   5.222   7.338 -2.3087  1.6677 -0.4011
   92MOL   C14520347   1.186   5.244   7.546  0.3116  0.6717 -0.3361
   92MOL   C14620348   1.232   5.102   7.597 -0.4612 -1.1361 -0.4577
   92MOL   O14720349   1.258   5.091   7.721  0.3189 -0.4948 -0.4392
   92MOL   C14820350   1.244   4.988   7.507 -0.5422 -0.2491  0.0480
   92MOL   C14920351   1.038   5.245   7.497  0.7751  0.4353  0.0934
   92MOL   H15020352   1.205   5.309   7.631  0.7116  0.2913 -0.1326
   92MOL   H15120353   1.340   4.941   7.528  0.7772  2.5217  0.4458
   92MOL   H15220354   1.173   4.907   7.525 -1.0567 -0.1589 -1.5272
   92MOL   H15320355   1.226   5.023   7.406  0.1233 -1.8227 -0.6259
   92MOL   H15420356   1.034   5.159   7.430  2.1065 -0.7334  1.4691
   92MOL   H15520357   1.009   5.331   7.437 -0.5938  0.3160  0.5631
   92MOL   C15620358   0.938   5.228   7.611 -0.3951  0.6322  1.0526
   92MOL   C15720359   0.800   5.191   7.549  0.5238  0.0748  0.1605
   92MOL   O15820360   0.742   5.272   7.475 -0.8660 -0.2471 -0.3934
   92MOL   C15920361   0.745   5.055   7.576  0.3963  0.2870  0.7292
   92MOL   C16020362   0.935   5.352   7.705  0.0948  0.0895  0.6524
   92MOL   H16120363   0.976   5.144   7.670  0.4379 -0.5019 -1.0431
   92MOL   H16220364   0.643   5.061   7.613  0.4942  0.3738  0.9888
   92MOL   H16320365   0.745   4.994   7.486 -0.6044 -0.2620  1.0952
   92MOL   H16420366   0.808   5.013   7.655  0.8154 -0.1186  0.1865
   92MOL   H16520367   0.835   5.395   7.705 -0.0078 -0.1343  0.0489
   92MOL   H16620368   0.985   5.434   7.653  1.8366 -0.8630  0.7906
   92MOL   C16720369   0.997   5.326   0.007 -0.2383 -0.1476 -0.1154
   92MOL   C16820370   0.935   5.207   0.084 -0.2765  0.6212 -0.4187
   92MOL   O16920371   0.833   5.152   0.048 -0.2243  0.8135 -0.0816
   92MOL   C17020372   1.027   5.150   0.202  0.0023 -0.1783  0.1203
   92MOL   C17120373   0.999   5.458   0.089 -0.1963  0.8755  0.2192
   92MOL   H17220374   1.098   5.292   7.828  0.2099  0.5260  0.8587
   92MOL   H17320375   1.085   5.232   0.244 -1.0626  1.0847 -0.8068
   92MOL   H17420376   0.947   5.131   0.274 -0.3430  0.1112 -0.1803
   92MOL   H17520377   1.083   5.059   0.183  0.4200 -0.3937  2.2301
   92MOL   H17620378   0.993   5.443   0.197 -0.4567  0.3319  0.1336
   92MOL   H17720379   0.904   5.506   0.067 -0.8203  0.7819  2.4933
   92MOL   C17820380   1.117   5.551   0.046 -0.8005 -0.1838 -0.6941
   92MOL   C17920381   1.241   5.511   0.128  0.0907  0.0216 -0.1345
   92MOL   O18020382   1.221   5.455   0.236 -0.8065  0.2801 -0.3501
   92MOL   C18120383   1.372   5.508   0.058  0.3066  0.2092 -1.4770
   92MOL   C18220384   1.083   5.697   0.076 -0.1744 -0.3001 -0.4792
   92MOL   H18320385   1.132   5.528   7.782  0.4070 -0.5474 -0.4458
   92MOL   H18420386   1.398   5.602   0.010 -2.4675  1.0400 -1.4314
   92MOL   H18520387   1.447   5.459   0.121 -0.5868  1.2156  0.4315
   92MOL   H18620388   1.351   5.445   7.814 -3.1391 -1.1063  0.2221
   92MOL   H18720389   1.012   5.733   0.001  0.9993  1.9931 -0.5536
   92MOL   H18820390   1.168   5.751   0.036 -0.2051  1.8490  2.1858
   92MOL   C18920391   1.035   5.743   0.222  0.2067  0.1989  0.0781
   92MOL   C19020392   0.928   5.846   0.210  1.1464 -0.1525  0.1291
   92MOL   O19120393   0.938   5.925   0.116 -0.0295 -0.0605 -0.3995
   92MOL   C19220394   0.804   5.847   0.297 -0.2777 -0.0318 -0.5607
   92MOL   C19320395   1.145   5.777   0.326  0.3435  0.1274  0.0513
   92MOL   H19420396   0.991   5.656   0.269  1.1549 -1.3545 -1.8549
   92MOL   H19520397   0.715   5.875   0.241  1.0372 -0.2327 -2.8129
   92MOL   H19620398   0.799   5.756   0.358 -0.6950  1.1109  1.1342
   92MOL   H19720399   0.809   5.939   0.355 -0.5378  1.0959 -2.2766
   92MOL   H19820400   1.154   5.884   0.312 -2.2932  0.1817 -1.5864
   92MOL   H19920401   1.238   5.747   0.278  0.5077 -2.8569  2.0819
   92MOL   C20020402   1.140   5.724   0.472  0.2245  0.5708  0.1028
   92MOL   C20120403   1.039   5.794   0.558 -0.1567 -0.5409 -0.2001
   92MOL   O20220404   0.983   5.890   0.519  0.2077 -0.3232 -0.4189
   92MOL   C20320405   1.019   5.737   0.697  0.0841 -0.0505 -0.3190
   92MOL   C20420406   1.276   5.722   0.532  1.0694  0.4693 -0.4937
   92MOL   H20520407   1.108   5.620   0.462  2.0555 -0.2006  1.8128
   92MOL   H20620408   1.056   5.635   0.705 -0.2028 -0.0939  0.4710
   92MOL   H20720409   1.059   5.802   0.775  0.7642 -0.2937 -0.4644
   92MOL   H20820410   0.914   5.731   0.728  0.3450 -0.3747  0.5052
   92MOL   H20920411   1.260   5.733   0.640  1.9771 -0.5254 -0.2442
   92MOL   H21020412   1.330   5.803   0.484  0.3975  1.2502  0.0559
   92MOL   C21120413   1.361   5.594   0.517  0.3180  0.5878  0.1076
   92MOL   C21220414   1.306   5.471   0.601 -0.2171 -1.0956  0.5150
   92MOL   O21320415   1.250   5.483   0.707  0.6478  0.5436 -0.3742
   92MOL   C21420416   1.306   5.340   0.530 -0.2235  0.1908  0.1992
   92MOL   C21520417   1.508   5.625   0.562  0.0130 -0.6096 -0.2051
   92MOL   H21620418   1.361   5.563   0.413 -0.3972 -0.6015  0.4491
   92MOL   H21720419   1.223   5.313   0.465 -1.4399  2.2018  0.8528
   92MOL   H21820420   1.386   5.345   0.457 -2.2678 -2.0941 -2.2534
   92MOL   H21920421   1.330   5.256   0.595 -0.6625  0.2954  0.5006
   92MOL   H22020422   1.552   5.528   0.586 -1.4709 -0.8327  1.7117
   92MOL   H22120423   1.517   5.677   0.657  1.5248  1.5604 -1.4893
   92MOL   H22220424   1.563   5.670   0.479 -1.4000  0.7291 -0.4298
   93MOL     C120425   4.613   2.181   4.010  0.4063  0.1248 -0.0378
   93MOL     C220426   4.766   2.174   4.000 -0.5701 -0.5086 -0.1615
   93MOL     O320427   4.834   2.093   4.053 -0.5772  0.0884 -0.0996
   93MOL     C420428   4.835   2.291   3.918  0.3268 -0.3038 -0.1767
   93MOL     C520429   4.557   2.197   4.159 -0.3897 -0.1806  0.6151
   93MOL     H620430   4.576   2.257   3.940  1.6912 -0.2990 -1.1934
   93MOL     H720431   4.776   2.311   3.828 -1.1270  2.0226  1.2370
   93MOL     H820432   4.839   2.386   3.972  0.1701 -1.1525  1.3651
   93MOL     H920433   4.935   2.260   3.890  0.6241 -0.3466  0.9264
   93MOL    H1020434   4.565   2.098   4.204 -1.1978  0.1161  1.4323
   93MOL    H1120435   4.450   2.217   4.156 -0.1938  1.2505  1.9746
   93MOL    H1220436   4.569   2.090   3.971  0.7395 -0.7650  1.6101
   93MOL    C1320437   4.626   2.290   4.255  0.6775 -0.2550  0.0866
   93MOL    C1420438   4.584   2.281   4.400 -0.6797  0.9435  0.4518
   93MOL    O1520439   4.507   2.359   4.457 -0.1457  0.0223 -0.1582
   93MOL    C1620440   4.613   2.160   4.490 -0.5186 -0.2098  0.5314
   93MOL    C1720441   4.631   2.437   4.197 -0.5638 -1.7840  0.2369
   93MOL    H1820442   4.728   2.252   4.260  0.9417  0.7095  2.4281
   93MOL    H1920443   4.687   2.187   4.567 -0.4560  2.0208 -0.2688
   93MOL    H2020444   4.523   2.126   4.541 -1.3599  1.0404 -0.0860
   93MOL    H2120445   4.657   2.080   4.430 -0.7743  1.0159 -1.3289
   93MOL    H2220446   4.528   2.472   4.194  0.2207  0.8398  1.8854
   93MOL    H2320447   4.654   2.434   4.090 -0.7899 -2.5186  0.2064
   93MOL    C2420448   4.719   2.540   4.276  0.6089  0.3137  0.2521
   93MOL    C2520449   4.757   2.655   4.181 -0.4638  0.3071 -0.0325
   93MOL    O2620450   4.847   2.640   4.099  0.4835 -0.2631  0.1563
   93MOL    C2720451   4.692   2.791   4.196 -0.0612  0.2641  0.7737
   93MOL    C2820452   4.853   2.469   4.332  0.6959  0.3840 -0.2571
   93MOL    H2920453   4.662   2.570   4.364 -1.8810  0.9711 -1.5544
   93MOL    H3020454   4.724   2.867   4.124  1.1426 -0.9948 -0.0628
   93MOL    H3120455   4.585   2.772   4.190 -0.1412  0.5794  1.1900
   93MOL    H3220456   4.693   2.838   4.294 -0.0299  0.4823  0.6709
   93MOL    H3320457   4.902   2.408   4.257  1.1645  2.1088 -1.3903
   93MOL    H3420458   4.829   2.384   4.396  1.3470 -0.5925 -1.2923
   93MOL    C3520459   4.952   2.534   4.432  0.4599 -0.3035 -0.0707
   93MOL    C3620460   4.877   2.597   4.553 -0.0834  0.3567 -0.4769
   93MOL    O3720461   4.832   2.708   4.542  0.2816  0.3243 -0.1845
   93MOL    C3820462   4.870   2.534   4.685 -0.7869  0.2025 -0.2174
   93MOL    C3920463   5.067   2.635   4.382  0.2202  0.2322  0.5292
   93MOL    H4020464   5.017   2.455   4.470 -0.0229  0.4286  2.3125
   93MOL    H4120465   4.841   2.609   4.758  0.1706  1.0652 -0.7178
   93MOL    H4220466   4.796   2.454   4.685  0.4742 -0.9957  1.0366
   93MOL    H4320467   4.962   2.484   4.715 -1.2402  0.7279  2.1447
   93MOL    H4420468   5.126   2.655   4.471  0.1891  0.2510  0.5458
   93MOL    H4520469   5.025   2.734   4.364  1.0586  0.8634  1.9454
   93MOL    C4620470   5.146   2.573   4.263  0.3958  0.9928  0.3530
   93MOL    C4720471   5.260   2.483   4.311  0.5904  0.2997  0.3984
   93MOL    O4820472   5.359   2.526   4.367 -0.2138 -0.2427  0.0623
   93MOL    C4920473   5.250   2.336   4.287  0.2478 -0.1495  0.2505
   93MOL    C5020474   5.188   2.673   4.153 -0.3114  0.5883  0.4770
   93MOL    H5120475   5.078   2.506   4.211 -3.3747  3.1576  2.3064
   93MOL    H5220476   5.343   2.281   4.274  0.1689 -0.5402  1.2718
   93MOL    H5320477   5.201   2.277   4.365 -1.2890  1.0827  0.2375
   93MOL    H5420478   5.203   2.320   4.190  1.0286  1.3441 -0.3900
   93MOL    H5520479   5.262   2.745   4.188  2.8639 -0.6271 -3.2706
   93MOL    H5620480   5.096   2.730   4.143  0.5399  1.9013 -0.0680
   93MOL    C5720481   5.223   2.603   4.017  0.8407  0.0420 -0.2281
   93MOL    C5820482   5.377   2.597   3.995  0.6989  0.2281  0.1338
   93MOL    O5920483   5.446   2.697   3.963  0.0734 -0.3183 -0.2260
   93MOL    C6020484   5.435   2.461   4.006  0.9962 -0.1373  0.4440
   93MOL    C6120485   5.150   2.681   3.901  0.4611 -0.6056 -0.7076
   93MOL    H6220486   5.181   2.504   4.030 -1.8689  1.2413  0.4343
   93MOL    H6320487   5.544   2.462   3.997  0.9608  1.4179  0.0233
   93MOL    H6420488   5.407   2.420   4.103  3.6495  2.1732  2.2631
   93MOL    H6520489   5.388   2.398   3.930  0.0522 -0.1479  1.0334
   93MOL    H6620490   5.208   2.772   3.887  0.3718 -0.8066 -2.5148
   93MOL    H6720491   5.054   2.720   3.937  1.7406  0.9823  1.0908
   93MOL    C6820492   5.100   2.611   3.773  0.2556  0.2041 -0.0398
   93MOL    C6920493   5.213   2.545   3.689  0.3491  0.1922  0.0126
   93MOL    O7020494   5.237   2.422   3.685 -0.1055 -0.3292  0.1901
   93MOL    C7120495   5.305   2.638   3.620  0.5905 -0.4847 -0.1014
   93MOL    C7220496   5.006   2.700   3.682 -0.4789  0.5089 -0.2728
   93MOL    H7320497   5.044   2.523   3.805 -1.3238  1.4548  0.6839
   93MOL    H7420498   5.402   2.612   3.661 -0.1398  0.1996  2.0994
   93MOL    H7520499   5.303   2.622   3.512 -1.4658  1.0873 -0.3099
   93MOL    H7620500   5.292   2.745   3.634  0.6969 -0.4777 -0.0577
   93MOL    H7720501   4.996   2.667   3.578  0.2760 -1.5031  0.2633
   93MOL    H7820502   5.050   2.800   3.674 -1.8408  1.0735 -0.7262
   93MOL    C7920503   4.867   2.716   3.743  0.6836 -0.3609 -0.0305
   93MOL    C8020504   4.781   2.589   3.737 -0.4557  0.0368  0.5514
   93MOL    O8120505   4.800   2.487   3.677  0.2498  0.2106  0.0099
   93MOL    C8220506   4.650   2.601   3.817 -0.5643  0.5824  1.1339
   93MOL    C8320507   4.803   2.837   3.668 -1.0252  0.5273 -0.6291
   93MOL    H8420508   4.873   2.736   3.850  2.9627  0.1071 -0.2197
   93MOL    H8520509   4.632   2.515   3.881 -1.3880  1.1045  1.6072
   93MOL    H8620510   4.654   2.684   3.887 -1.7389  1.4997  0.1366
   93MOL    H8720511   4.568   2.632   3.754  1.3075  2.4652 -0.4476
   93MOL    H8820512   4.694   2.827   3.665 -1.0336  0.6107 -0.6081
   93MOL    H8920513   4.826   2.832   3.562  2.7020 -0.2295  0.1531
   93MOL    C9020514   4.844   2.971   3.728  0.3946  0.1014  0.1405
   93MOL    C9120515   4.767   3.004   3.857  0.5776  0.5382 -1.1461
   93MOL    O9220516   4.659   2.948   3.880  0.2365  0.1995 -0.3099
   93MOL    C9320517   4.828   3.076   3.979  0.9370  0.3690  1.0443
   93MOL    C9420518   4.823   3.088   3.621 -0.0304 -0.5175 -0.1791
   93MOL    H9520519   4.949   2.980   3.757  0.6848 -1.0426 -0.5089
   93MOL    H9620520   4.832   3.185   3.980  0.8318  0.4262 -1.5214
   93MOL    H9720521   4.783   3.040   4.071  0.1616  1.1649  0.9926
   93MOL    H9820522   4.933   3.047   3.978  0.8884  0.1951 -0.4844
   93MOL    H9920523   4.715   3.101   3.627  0.0915  0.0124  0.9847
   93MOL   H10020524   4.850   3.055   3.521 -2.8051 -1.9857 -0.4860
   93MOL   C10120525   4.904   3.222   3.658 -0.5739 -0.0394 -0.8543
   93MOL   C10220526   4.812   3.340   3.691  0.8977 -0.9336  0.3331
   93MOL   O10320527   4.700   3.358   3.643 -0.4120 -0.1636 -0.0570
   93MOL   C10420528   4.869   3.439   3.789  0.3935 -0.4940 -0.0796
   93MOL   C10520529   5.000   3.267   3.550 -0.5069 -0.9317  0.2728
   93MOL   H10620530   4.957   3.202   3.751 -0.1986 -1.6846 -1.4087
   93MOL   H10720531   4.968   3.418   3.830  0.1497  0.5873  1.1101
   93MOL   H10820532   4.891   3.533   3.739  4.7708 -0.8269  1.0325
   93MOL   H10920533   4.804   3.456   3.876  0.5186 -0.8643  0.0859
   93MOL   H11020534   5.034   3.370   3.561 -2.2248 -0.2340 -0.7420
   93MOL   H11120535   4.942   3.271   3.457 -1.1176 -0.7486  0.6531
   93MOL   C11220536   5.110   3.163   3.523 -0.5494 -0.7283 -0.2267
   93MOL   C11320537   5.205   3.134   3.633  0.6458 -0.1669  0.1363
   93MOL   O11420538   5.256   3.220   3.700 -0.0318  0.6604 -0.1973
   93MOL   C11520539   5.262   2.999   3.644 -0.6536 -0.5930  0.0235
   93MOL   C11620540   5.197   3.199   3.391  0.2128  0.1010  0.2741
   93MOL   H11720541   5.049   3.074   3.504  1.2958 -1.4365 -3.0806
   93MOL   H11820542   5.245   2.958   3.743  0.2801  0.9490  0.8396
   93MOL   H11920543   5.211   2.942   3.566  0.4550 -0.4482 -0.8131
   93MOL   H12020544   5.367   3.006   3.618 -0.6596  0.5179  0.2567
   93MOL   H12120545   5.301   3.167   3.389 -0.7015 -3.0735 -3.0470
   93MOL   H12220546   5.199   3.308   3.381  0.2753  0.0632 -0.1444
   93MOL   C12320547   5.140   3.139   3.263  0.0326  0.2612  0.7944
   93MOL   C12420548   5.165   2.985   3.266  0.1231  0.1498 -0.0077
   93MOL   O12520549   5.278   2.938   3.265  0.3281 -0.1975  0.0443
   93MOL   C12620550   5.044   2.890   3.268 -0.3074  0.2623 -0.5634
   93MOL   C12720551   5.191   3.217   3.136 -0.0058  0.8218  0.5138
   93MOL   H12820552   5.033   3.155   3.271  0.0419  1.4498 -1.1721
   93MOL   H12920553   5.001   2.868   3.366  4.2386 -2.1655  1.0351
   93MOL   H13020554   4.966   2.927   3.202 -1.6727 -1.0413  0.2920
   93MOL   H13120555   5.065   2.796   3.216 -2.1857 -0.8550  0.6711
   93MOL   H13220556   5.290   3.185   3.104  0.8769  2.1298  1.9145
   93MOL   H13320557   5.205   3.322   3.162  2.4920  0.4046  0.9377
   93MOL   C13420558   5.100   3.216   2.999 -0.2132 -0.6246 -0.2170
   93MOL   C13520559   4.958   3.266   3.024 -0.0471 -0.3868  0.0231
   93MOL   O13620560   4.865   3.210   2.976 -0.0103  0.3571 -0.3111
   93MOL   C13720561   4.940   3.403   3.098 -0.2116 -0.3015  0.0594
   93MOL   C13820562   5.107   3.074   2.930 -0.2496 -0.4426  0.0916
   93MOL   H13920563   5.142   3.286   2.927 -0.3485  0.1058  0.4078
   93MOL   H14020564   4.851   3.454   3.061 -1.7873 -2.4373  0.7486
   93MOL   H14120565   4.937   3.391   3.207  2.3250 -1.9488 -0.0179
   93MOL   H14220566   5.032   3.454   3.070  1.2393 -1.9105  1.7522
   93MOL   H14320567   5.046   3.000   2.982  1.7626 -1.7990  0.5522
   93MOL   H14420568   5.205   3.031   2.946 -0.3507  0.1289  2.4826
   93MOL   C14520569   5.062   3.064   2.786 -0.4350 -0.2000  0.1754
   93MOL   C14620570   5.036   2.914   2.756  0.1860  0.6266 -0.3087
   93MOL   O14720571   4.922   2.869   2.751 -0.0554  0.0886 -0.0528
   93MOL   C14820572   5.160   2.821   2.742 -0.0576  0.6705 -0.1456
   93MOL   C14920573   5.168   3.135   2.691  0.3889 -0.2065  0.2797
   93MOL   H15020574   4.957   3.095   2.778 -0.7620 -1.1437  0.7821
   93MOL   H15120575   5.215   2.843   2.833 -1.2922 -1.3941  1.1587
   93MOL   H15220576   5.144   2.713   2.750 -1.6713  0.9533  0.6200
   93MOL   H15320577   5.224   2.846   2.658  0.1344  1.9519  0.3667
   93MOL   H15420578   5.263   3.087   2.715  0.1877 -1.9541 -2.3577
   93MOL   H15520579   5.193   3.238   2.720 -0.2856 -0.2079  0.8810
   93MOL   C15620580   5.136   3.131   2.539  0.0568  0.2183  0.2298
   93MOL   C15720581   5.262   3.165   2.466  0.2719 -0.9520 -0.5034
   93MOL   O15820582   5.294   3.281   2.444 -0.0693 -0.0169 -0.1902
   93MOL   C15920583   5.353   3.042   2.428  0.2706 -0.6757  0.0740
   93MOL   C16020584   5.012   3.209   2.509 -0.7378  0.2243 -0.1287
   93MOL   H16120585   5.114   3.031   2.502 -1.5689  1.3751 -1.9855
   93MOL   H16220586   5.321   2.988   2.339  3.3798 -1.5424 -0.5920
   93MOL   H16320587   5.455   3.077   2.410  0.6098 -0.5949  1.9906
   93MOL   H16420588   5.368   2.970   2.509  1.9231 -0.2061  0.2189
   93MOL   H16520589   5.036   3.288   2.437  1.2395  1.1911  1.5244
   93MOL   H16620590   4.972   3.252   2.601  0.6787 -0.2317  0.7179
   93MOL   C16720591   4.893   3.126   2.453 -0.1249 -0.2696  0.4911
   93MOL   C16820592   4.919   3.057   2.309  0.0391  0.0361  0.5038
   93MOL   O16920593   5.034   3.058   2.262  0.5036  0.2671 -0.0338
   93MOL   C17020594   4.816   2.969   2.239  0.1281 -0.0337 -0.2299
   93MOL   C17120595   4.764   3.211   2.457  0.3869 -0.0954 -0.0937
   93MOL   H17220596   4.884   3.040   2.520  2.7913 -1.7952 -0.9369
   93MOL   H17320597   4.723   2.960   2.295  0.1319 -0.1332 -0.2402
   93MOL   H17420598   4.773   3.011   2.148 -2.4916  0.0713  1.0061
   93MOL   H17520599   4.851   2.868   2.217 -1.9876 -0.9299  0.4064
   93MOL   H17620600   4.694   3.185   2.378  0.8075 -3.1137  0.4618
   93MOL   H17720601   4.792   3.314   2.438 -0.1420  0.3685  1.5630
   93MOL   C17820602   4.685   3.184   2.581  0.4164 -0.0038  0.0038
   93MOL   C17920603   4.643   3.035   2.598 -0.4913  0.6262  0.1340
   93MOL   O18020604   4.595   2.974   2.504 -0.2313  0.4273  0.1750
   93MOL   C18120605   4.630   2.979   2.737  0.0580  0.0122 -0.2693
   93MOL   C18220606   4.560   3.277   2.577 -0.2600 -0.0329  0.0112
   93MOL   H18320607   4.756   3.214   2.658  0.5176 -1.8533  0.6547
   93MOL   H18420608   4.656   2.874   2.751  0.9873  0.3212  0.3869
   93MOL   H18520609   4.693   3.029   2.810 -1.8559  0.1043  1.3476
   93MOL   H18620610   4.528   2.980   2.775 -0.4951 -1.1285 -1.6511
   93MOL   H18720611   4.497   3.238   2.657 -0.4519 -0.9449 -0.5885
   93MOL   H18820612   4.507   3.281   2.482  3.0689 -0.5064 -1.9503
   93MOL   C18920613   4.602   3.423   2.600  0.1423  0.2817 -0.5996
   93MOL   C19020614   4.659   3.440   2.743 -0.1187 -0.8875 -0.3408
   93MOL   O19120615   4.762   3.511   2.761 -0.2467 -0.4693  0.7621
   93MOL   C19220616   4.597   3.377   2.864  0.2783 -0.1076 -0.5691
   93MOL   C19320617   4.502   3.535   2.559 -0.2517 -0.0397 -0.4222
   93MOL   H19420618   4.679   3.447   2.526  0.9845  2.5074  0.9511
   93MOL   H19520619   4.492   3.406   2.864 -0.0764 -1.3338 -1.7895
   93MOL   H19620620   4.603   3.268   2.869  3.0595 -0.0321 -1.3936
   93MOL   H19720621   4.648   3.428   2.946 -1.8490 -0.3930  0.9883
   93MOL   H19820622   4.408   3.525   2.614  0.6713 -0.9673  1.0525
   93MOL   H19920623   4.487   3.504   2.456 -0.6538 -0.7168 -0.1687
   93MOL   C20020624   4.542   3.677   2.560 -0.1098 -0.7886  0.2013
   93MOL   C20120625   4.410   3.760   2.540 -0.6756  0.0825 -0.4543
   93MOL   O20220626   4.349   3.745   2.433 -0.6288 -0.2329  0.6514
   93MOL   C20320627   4.352   3.837   2.660  0.2987 -0.3550 -0.0050
   93MOL   C20420628   4.648   3.726   2.447  0.1443 -0.2827  0.5389
   93MOL   H20520629   4.580   3.700   2.659 -0.1086  0.8498 -0.1482
   93MOL   H20620630   4.355   3.763   2.740  2.6711 -0.9305 -0.5901
   93MOL   H20720631   4.418   3.918   2.691 -0.5958 -0.1995  1.5472
   93MOL   H20820632   4.252   3.878   2.645  0.1865  1.8710  5.3706
   93MOL   H20920633   4.604   3.747   2.350  1.0371 -1.4105 -0.1325
   93MOL   H21020634   4.709   3.641   2.418 -0.6231 -0.8885  0.6828
   93MOL   C21120635   4.756   3.833   2.492  0.1031 -0.4682  0.7691
   93MOL   C21220636   4.692   3.974   2.495  0.1358 -0.0530 -0.5995
   93MOL   O21320637   4.587   4.001   2.432  0.8882  0.6659 -0.0826
   93MOL   C21420638   4.764   4.090   2.561 -0.7758 -0.3837 -0.0562
   93MOL   C21520639   4.874   3.839   2.396  0.1098  0.5274  0.1201
   93MOL   H21620640   4.796   3.816   2.592 -2.7207 -0.5378  1.9305
   93MOL   H21720641   4.736   4.188   2.520 -1.2186 -0.3308  0.3557
   93MOL   H21820642   4.747   4.082   2.669 -0.0628 -1.3705 -0.0159
   93MOL   H21920643   4.868   4.072   2.535 -0.6137  0.7005 -0.1983
   93MOL   H22020644   4.929   3.933   2.408 -1.7968  1.5757  0.8340
   93MOL   H22120645   4.828   3.840   2.298 -1.6817 -1.8854  0.8846
   93MOL   H22220646   4.943   3.755   2.390 -0.1973  0.4279 -2.3701
   94MOL     C120647   6.765   2.343   6.489 -0.1261 -0.4782 -0.4778
   94MOL     C220648   6.817   2.235   6.394  0.4677 -0.5397 -0.7028
   94MOL     O320649   6.935   2.237   6.362  0.6151 -0.6093  0.1022
   94MOL     C420650   6.711   2.145   6.324 -0.2816  0.2925 -0.4656
   94MOL     C520651   6.828   2.483   6.464  0.4227  0.3960 -0.1406
   94MOL     H620652   6.664   2.354   6.449  0.5021 -1.3718 -2.3228
   94MOL     H720653   6.613   2.170   6.363  0.5717 -1.6078  3.1275
   94MOL     H820654   6.714   2.151   6.215 -0.7863 -2.4409 -0.6576
   94MOL     H920655   6.714   2.040   6.351 -2.9069 -0.3077 -2.2969
   94MOL    H1020656   6.763   2.552   6.518 -0.5076 -0.7838  0.2775
   94MOL    H1120657   6.811   2.503   6.358  1.4793 -1.2766 -0.6554
   94MOL    H1220658   6.772   2.311   6.593 -2.6294 -0.5415 -0.2884
   94MOL    C1320659   6.975   2.505   6.491 -0.4147 -0.2826  0.4866
   94MOL    C1420660   7.022   2.487   6.643 -0.1905  0.3607  0.0823
   94MOL    O1520661   7.029   2.585   6.712  0.8273  0.3898  0.3378
   94MOL    C1620662   7.045   2.349   6.694  0.0603  0.2013  0.0871
   94MOL    C1720663   7.028   2.639   6.430  0.1784  0.2490 -1.1568
   94MOL    H1820664   7.037   2.427   6.445 -0.7858 -0.4556  0.2790
   94MOL    H1920665   7.128   2.357   6.764  1.0941 -0.9105 -0.9843
   94MOL    H2020666   6.962   2.318   6.758 -0.6437 -1.3616 -1.5565
   94MOL    H2120667   7.059   2.277   6.614 -0.2705  1.1888 -0.8636
   94MOL    H2220668   7.121   2.676   6.472  0.4344  0.5324 -1.9586
   94MOL    H2320669   6.953   2.712   6.461  0.2339 -1.8820  4.5144
   94MOL    C2420670   7.039   2.638   6.274  0.1703  0.7066  0.1939
   94MOL    C2520671   7.150   2.546   6.226  0.0963 -0.1563 -0.3287
   94MOL    O2620672   7.258   2.524   6.289 -0.0029  0.1358 -0.2194
   94MOL    C2720673   7.124   2.466   6.099 -0.0731  0.2371 -0.9331
   94MOL    C2820674   7.052   2.777   6.208  0.3587 -0.4849  0.0773
   94MOL    H2920675   6.944   2.601   6.236  0.4014  0.6427 -0.3220
   94MOL    H3020676   7.213   2.403   6.091 -0.5447 -0.7288  1.0308
   94MOL    H3120677   7.034   2.404   6.102 -0.1112  0.3334  0.7209
   94MOL    H3220678   7.122   2.525   6.008  1.1464 -1.0729 -1.8453
   94MOL    H3320679   7.096   2.776   6.108 -0.9496 -1.8682 -0.5064
   94MOL    H3420680   7.138   2.820   6.258  1.2126 -1.5266 -0.4503
   94MOL    C3520681   6.921   2.864   6.208 -0.3380  0.6129  0.0602
   94MOL    C3620682   6.811   2.816   6.116  0.1429 -0.5565 -0.8041
   94MOL    O3720683   6.834   2.756   6.007  0.0543 -1.0498 -0.2118
   94MOL    C3820684   6.663   2.841   6.155 -0.3304 -0.0277 -1.0212
   94MOL    C3920685   6.966   3.011   6.188  1.3814  0.0597 -0.1500
   94MOL    H4020686   6.873   2.858   6.305 -1.2454 -1.0312 -0.4755
   94MOL    H4120687   6.647   2.941   6.197  1.0001 -1.5582  3.4130
   94MOL    H4220688   6.604   2.822   6.066  2.0495 -0.3150 -2.5894
   94MOL    H4320689   6.644   2.774   6.239  0.3344 -0.0014 -0.8456
   94MOL    H4420690   6.875   3.069   6.171  0.6659 -0.3642  2.1055
   94MOL    H4520691   7.026   3.008   6.097  0.2535 -1.2132 -0.8790
   94MOL    C4620692   7.046   3.085   6.306 -0.8292 -0.1814  0.0399
   94MOL    C4720693   6.987   3.063   6.450  0.4646  0.1525  0.1200
   94MOL    O4820694   6.876   3.110   6.477 -0.1378 -0.1296 -0.3694
   94MOL    C4920695   7.065   2.979   6.553  0.4524  0.4108  0.1184
   94MOL    C5020696   7.081   3.232   6.265 -0.2403 -0.2578  0.0717
   94MOL    H5120697   7.141   3.031   6.302  0.1943  1.5581  0.1001
   94MOL    H5220698   7.007   2.944   6.638  0.1359  1.2324  0.2529
   94MOL    H5320699   7.094   2.884   6.509 -0.4734  1.1186 -2.1453
   94MOL    H5420700   7.146   3.043   6.589  1.1656 -1.3643  1.7155
   94MOL    H5520701   6.989   3.289   6.262  0.0736  0.2245 -0.8487
   94MOL    H5620702   7.122   3.235   6.164 -1.0294  0.9712 -0.2269
   94MOL    C5720703   7.193   3.294   6.352  0.5286  0.3251 -0.0962
   94MOL    C5820704   7.148   3.351   6.486  0.1601 -0.6600 -0.4596
   94MOL    O5920705   7.223   3.335   6.581 -0.0516  0.4457 -0.7104
   94MOL    C6020706   7.016   3.425   6.503 -0.1656  0.0107  0.0911
   94MOL    C6120707   7.258   3.416   6.277  0.0974 -0.1092 -0.0323
   94MOL    H6220708   7.265   3.213   6.367 -0.8633 -0.8104  0.5612
   94MOL    H6320709   6.982   3.450   6.604  0.2994  1.0575 -0.0125
   94MOL    H6420710   7.014   3.516   6.444  1.0479 -0.9177 -1.4082
   94MOL    H6520711   6.934   3.366   6.463  0.5809 -0.8982 -0.1113
   94MOL    H6620712   7.184   3.496   6.272  0.4549  0.2160 -0.1268
   94MOL    H6720713   7.270   3.411   6.169  0.5262 -2.4037  0.1029
   94MOL    C6820714   7.403   3.460   6.329  0.3783  0.8064  0.3590
   94MOL    C6920715   7.416   3.611   6.317 -0.0204 -0.5391  0.1305
   94MOL    O7020716   7.490   3.661   6.231 -0.4575  0.2800  0.5090
   94MOL    C7120717   7.332   3.695   6.417  0.3952  0.7816 -0.6330
   94MOL    C7220718   7.523   3.387   6.263  0.0652 -1.1648  0.0451
   94MOL    H7320719   7.401   3.418   6.430  1.8326 -0.8790 -0.2756
   94MOL    H7420720   7.390   3.716   6.507 -1.4717  0.1754  0.7493
   94MOL    H7520721   7.307   3.795   6.382 -1.2557  1.6718  2.8631
   94MOL    H7620722   7.242   3.645   6.454  0.6226 -0.4817 -1.7494
   94MOL    H7720723   7.539   3.438   6.169 -0.6508  0.3343  0.7219
   94MOL    H7820724   7.488   3.288   6.234 -0.7714 -0.9215  0.2262
   94MOL    C7920725   7.651   3.370   6.350  0.3577  0.2739 -0.3218
   94MOL    C8020726   7.718   3.503   6.383  0.7637 -1.1150 -0.1488
   94MOL    O8120727   7.817   3.533   6.318 -0.4084 -0.1252 -0.6850
   94MOL    C8220728   7.677   3.585   6.508  0.0926 -0.4736  0.6363
   94MOL    C8320729   7.746   3.262   6.298 -0.1413  0.3552 -0.4448
   94MOL    H8420730   7.619   3.334   6.448  0.9786 -0.2762 -0.3116
   94MOL    H8520731   7.684   3.521   6.596 -1.0971 -1.3179  0.1214
   94MOL    H8620732   7.742   3.672   6.520  1.4260 -1.4706  0.7823
   94MOL    H8720733   7.574   3.619   6.505 -0.1659 -1.3046 -0.1532
   94MOL    H8820734   7.780   3.301   6.202  1.4454 -2.1268 -0.9573
   94MOL    H8920735   7.696   3.170   6.266 -0.1900  0.8293 -1.7674
   94MOL    C9020736   0.024   3.215   6.384  0.3655  0.3516  0.5744
   94MOL    C9120737   0.123   3.151   6.284  0.1303 -0.9220  0.6307
   94MOL    O9220738   0.109   3.035   6.243  0.2947  0.3473  0.0773
   94MOL    C9320739   0.246   3.228   6.241  0.2294  0.0892 -0.0903
   94MOL    C9420740   7.823   3.112   6.495 -0.0721  0.1384 -0.1305
   94MOL    H9520741   0.067   3.307   6.424 -0.2346  1.5821 -1.5046
   94MOL    H9620742   0.339   3.181   6.272  0.8439  2.4478  1.8166
   94MOL    H9720743   0.236   3.222   6.133 -0.7296 -0.4935  0.0223
   94MOL    H9820744   0.246   3.331   6.277 -0.4347 -0.5191  1.7366
   94MOL    H9920745   7.795   3.014   6.456  2.2481 -1.0081  1.0137
   94MOL   H10020746   7.728   3.156   6.525  0.8803  3.2894 -1.5136
   94MOL   C10120747   0.070   3.094   6.621 -0.1931  0.2388  0.9862
   94MOL   C10220748   0.114   3.226   6.680 -0.2190  0.3798 -0.8412
   94MOL   O10320749   0.218   3.285   6.654 -0.2300 -0.5981  0.1549
   94MOL   C10420750   0.009   3.287   6.776  0.3369 -0.6318 -0.4005
   94MOL   C10520751   0.197   3.009   6.580  0.1680 -0.7004 -0.1544
   94MOL   H10620752   0.011   3.032   6.689 -1.3637 -0.3953 -0.5764
   94MOL   H10720753   0.039   3.289   6.881 -0.5989 -0.1587 -0.1352
   94MOL   H10820754   7.820   3.387   6.744  3.5537  0.7780  0.6197
   94MOL   H10920755   7.763   3.224   6.776  0.7722 -1.2444  0.0874
   94MOL   H11020756   0.257   3.071   6.512 -0.1257 -1.0067 -0.6949
   94MOL   H11120757   0.164   2.923   6.523 -2.2935 -0.0182  0.1896
   94MOL   C11220758   0.283   2.963   6.706  0.0770  0.0587  0.2121
   94MOL   C11320759   0.427   2.977   6.673  0.0390  0.0576 -0.3046
   94MOL   O11420760   0.486   2.888   6.613  0.0220  0.2714 -0.3478
   94MOL   C11520761   0.494   3.104   6.712  0.1828 -0.7490 -0.3564
   94MOL   C11620762   0.230   2.830   6.759 -0.0222  0.1718 -0.2809
   94MOL   H11720763   0.261   3.025   6.793 -2.0628  0.1778 -0.3892
   94MOL   H11820764   0.478   3.115   6.819 -0.7958 -2.2427 -0.3243
   94MOL   H11920765   0.600   3.109   6.686  0.5555 -0.2276  1.2290
   94MOL   H12020766   0.439   3.190   6.673 -1.4410 -0.5965  2.1345
   94MOL   H12120767   0.305   2.755   6.735  0.2161  0.5802 -0.8099
   94MOL   H12220768   0.143   2.794   6.704 -0.1683 -0.1690  0.1677
   94MOL   C12320769   0.197   2.807   6.910 -0.0768 -0.0864 -0.0925
   94MOL   C12420770   0.296   2.861   7.010  0.0364 -0.3004  0.1009
   94MOL   O12520771   0.416   2.871   6.985  0.1294 -0.1399  0.2522
   94MOL   C12620772   0.237   2.884   7.147  0.4865  0.1024 -0.1678
   94MOL   C12720773   0.168   2.655   6.927 -0.5377 -0.3608 -0.0089
   94MOL   H12820774   0.102   2.857   6.928  1.0758  1.9505  0.5410
   94MOL   H12920775   0.321   2.906   7.212 -0.8551 -2.8005  2.7009
   94MOL   H13020776   0.155   2.957   7.145 -1.3713 -1.8297  1.9594
   94MOL   H13120777   0.203   2.787   7.182 -0.7497  0.4071 -0.4905
   94MOL   H13220778   0.247   2.607   6.984  0.6576  0.2408 -1.1425
   94MOL   H13320779   0.164   2.604   6.831 -4.8226 -0.2715  0.0386
   94MOL   C13420780   0.031   2.623   6.996  1.0667 -0.1149 -0.4265
   94MOL   C13520781   0.034   2.485   7.054  0.6159 -0.3540  0.2495
   94MOL   O13620782   0.057   2.467   7.171  0.5365  0.4004  0.1649
   94MOL   C13720783   0.020   2.363   6.965 -0.3191 -0.0240  0.2806
   94MOL   C13820784   7.757   2.657   6.898  0.6238  0.1537  0.7776
   94MOL   H13920785   0.027   2.693   7.080  0.9298 -1.1727  0.4583
   94MOL   H14020786   7.755   2.356   6.945 -0.3269  1.0932 -0.0904
   94MOL   H14120787   0.069   2.385   6.870  0.4119 -0.4357  0.5620
   94MOL   H14220788   0.063   2.279   7.020  0.3110  0.2002  0.1282
   94MOL   H14320789   7.771   2.614   6.798  1.0382 -2.0087  1.7279
   94MOL   H14420790   7.773   2.762   6.872  0.3273  0.2238  0.8823
   94MOL   C14520791   7.610   2.631   6.947 -0.5227  0.2086 -0.6194
   94MOL   C14620792   7.516   2.647   6.827 -0.4942 -0.4176  0.1440
   94MOL   O14720793   7.444   2.746   6.818  0.3353  0.1777 -0.1400
   94MOL   C14820794   7.506   2.532   6.728  0.5783  0.0091  0.2150
   94MOL   C14920795   7.563   2.722   7.067  0.2604  0.1735  0.0395
   94MOL   H15020796   7.597   2.531   6.990 -0.0883  0.4451  0.0654
   94MOL   H15120797   7.525   2.581   6.632  0.5247  2.0707  1.2240
   94MOL   H15220798   7.576   2.448   6.737 -2.0096 -2.1524  0.7478
   94MOL   H15320799   7.405   2.494   6.711  1.9712 -3.8082  0.0554
   94MOL   H15420800   7.540   2.820   7.023 -1.6084 -0.3235 -0.1396
   94MOL   H15520801   7.646   2.759   7.126  1.2710 -0.2014 -1.1229
   94MOL   C15620802   7.455   2.654   7.159  0.1218 -0.4186  0.5707
   94MOL   C15720803   7.358   2.757   7.217  0.2669 -0.3427  0.3365
   94MOL   O15820804   7.367   2.809   7.325  0.4175 -0.5893 -0.0636
   94MOL   C15920805   7.248   2.806   7.129 -0.0636 -0.5507  0.2570
   94MOL   C16020806   7.531   2.575   7.268  0.5950  0.1436 -0.6637
   94MOL   H16120807   7.401   2.582   7.097 -1.5606 -1.7092  3.4676
   94MOL   H16220808   7.246   2.767   7.028 -0.3877  0.1371 -0.0030
   94MOL   H16320809   7.148   2.789   7.170 -0.8454 -1.3818 -1.9291
   94MOL   H16420810   7.265   2.913   7.113 -2.1034 -0.2869 -0.2119
   94MOL   H16520811   7.594   2.643   7.326  3.3867 -2.2147 -0.8078
   94MOL   H16620812   7.601   2.503   7.226  2.2311  1.3005 -0.0000
   94MOL   C16720813   7.430   2.498   7.366  0.7933  0.4043  0.1820
   94MOL   C16820814   7.479   2.478   7.511 -0.2650 -0.0951 -0.2903
   94MOL   O16920815   7.465   2.373   7.576 -0.2464 -0.1819 -0.1385
   94MOL   C17020816   7.513   2.605   7.587 -0.0882  0.4133  0.3190
   94MOL   C17120817   7.373   2.369   7.308 -0.7993  0.5684 -0.4730
   94MOL   H17220818   7.346   2.566   7.381  0.5894  0.1858  0.0274
   94MOL   H17320819   7.535   2.578   7.691  1.4941  4.2314  1.0869
   94MOL   H17420820   7.602   2.648   7.543  0.0140 -0.1139  0.0078
   94MOL   H17520821   7.447   2.691   7.576 -1.2116 -0.5041 -0.2287
   94MOL   H17620822   7.319   2.393   7.217 -0.2068  2.8800 -0.2547
   94MOL   H17720823   7.295   2.342   7.380 -0.3426  0.1267 -0.1392
   94MOL   C17820824   7.461   2.241   7.291  0.1191  0.7114  0.0454
   94MOL   C17920825   7.571   2.247   7.186 -0.6568 -0.0958 -0.0136
   94MOL   O18020826   7.564   2.300   7.078  0.2527 -0.0667 -0.1149
   94MOL   C18120827   7.700   2.167   7.227  0.0697 -0.2235  0.4922
   94MOL   C18220828   7.375   2.111   7.266  0.2852  0.1375 -0.4291
   94MOL   H18320829   7.515   2.230   7.385 -0.1022 -0.5954  0.0196
   94MOL   H18420830   7.779   2.236   7.199 -1.3323  0.4689 -1.9200
   94MOL   H18520831   7.703   2.138   7.332  0.2514 -0.4507  0.4243
   94MOL   H18620832   7.723   2.074   7.174  2.9144 -0.3996  1.8947
   94MOL   H18720833   7.318   2.088   7.356 -0.3276 -1.8032 -1.2771
   94MOL   H18820834   7.447   2.030   7.258  0.5580  0.5087 -1.8477
   94MOL   C18920835   7.286   2.134   7.142 -0.0292 -0.5514  0.1276
   94MOL   C19020836   7.145   2.194   7.178 -0.5413 -0.4298  0.2617
   94MOL   O19120837   7.083   2.151   7.274  0.0330 -0.0489  0.1050
   94MOL   C19220838   7.091   2.307   7.092  0.1158  0.2627  0.3409
   94MOL   C19320839   7.277   2.004   7.056  0.4124 -0.3836  0.0109
   94MOL   H19420840   7.338   2.208   7.081 -0.8776 -0.2771 -0.2726
   94MOL   H19520841   7.123   2.285   6.990 -2.2571 -2.9830  0.2083
   94MOL   H19620842   6.983   2.308   7.107  0.1234 -1.9406  0.6811
   94MOL   H19720843   7.131   2.400   7.132 -0.6977  2.2248 -3.1445
   94MOL   H19820844   7.182   1.998   7.003 -0.0331  2.6538  0.3309
   94MOL   H19920845   7.289   1.919   7.122  1.6676  0.6224  1.0880
   94MOL   C20020846   7.398   1.978   6.960  0.1381  0.2368 -1.0319
   94MOL   C20120847   7.439   2.095   6.859  0.0145 -0.1358 -0.0059
   94MOL   O20220848   7.366   2.185   6.822 -0.5897  0.2497 -0.5817
   94MOL   C20320849   7.581   2.073   6.801  0.0345  0.5708 -0.3579
   94MOL   C20420850   7.410   1.836   6.889 -0.5911  0.1870  0.0393
   94MOL   H20520851   7.483   1.975   7.028  0.7337 -1.9218 -1.8182
   94MOL   H20620852   7.584   1.993   6.728 -0.9730  0.3042 -0.1210
   94MOL   H20720853   7.614   2.165   6.753  0.2149  1.7188  1.8665
   94MOL   H20820854   7.662   2.061   6.873  1.2084  2.1929 -1.3698
   94MOL   H20920855   7.369   1.761   6.956 -1.9584 -0.0742 -1.0655
   94MOL   H21020856   7.517   1.813   6.885 -1.0506 -1.9691 -0.3074
   94MOL   C21120857   7.333   1.811   6.755  0.4648  0.2661 -0.0706
   94MOL   C21220858   7.179   1.830   6.781  0.9229  0.1683  0.1491
   94MOL   O21320859   7.116   1.758   6.857 -0.1761  0.7694 -0.5087
   94MOL   C21420860   7.099   1.939   6.711 -0.2117 -0.3430  0.2408
   94MOL   C21520861   7.360   1.672   6.695 -0.1292 -0.9563  0.0178
   94MOL   H21620862   7.366   1.887   6.684 -1.7013  0.3290 -1.0276
   94MOL   H21720863   7.024   2.000   6.761  0.1229  0.7639 -0.5727
   94MOL   H21820864   7.158   2.005   6.646  0.1580 -0.5048  0.4117
   94MOL   H21920865   7.052   1.884   6.630 -1.5999  0.2797  0.6230
   94MOL   H22020866   7.467   1.650   6.694  0.1427  0.1955  1.1773
   94MOL   H22120867   7.305   1.652   6.604 -0.3452  0.0054 -0.0746
   94MOL   H22220868   7.337   1.592   6.765  0.9007 -2.0029 -0.8207
   95MOL     C120869   0.398   7.612   1.779 -0.1487 -0.0372 -0.2162
   95MOL     C220870   0.422   7.756   1.751  0.1836  0.3433  0.3519
   95MOL     O320871   0.483   7.817   1.832 -0.5622 -0.3050 -0.5058
   95MOL     C420872   0.357   7.823   1.623 -0.4337  0.0382  0.2211
   95MOL     C520873   0.512   7.537   1.856  0.3970  0.2625 -0.1195
   95MOL     H620874   0.312   7.615   1.846 -1.4656 -0.6857 -1.8466
   95MOL     H720875   0.315   7.756   1.548 -0.2600  2.1916 -1.8827
   95MOL     H820876   0.276   0.051   1.648 -1.3876 -0.9536 -0.0453
   95MOL     H920877   0.429   0.040   1.566  0.0776  0.3067  1.1335
   95MOL    H1020878   0.470   7.455   1.915 -2.6727  1.2417 -0.8171
   95MOL    H1120879   0.564   7.604   1.924 -1.0160 -0.0222  1.2756
   95MOL    H1220880   0.388   7.562   1.683 -0.0169  2.2040 -1.4045
   95MOL    C1320881   0.620   7.481   1.759 -0.5909  1.1927 -0.2599
   95MOL    C1420882   0.683   7.589   1.673  0.4509 -0.5793 -0.7733
   95MOL    O1520883   0.671   7.590   1.551 -0.1287 -0.4458  0.6442
   95MOL    C1620884   0.774   7.689   1.737  0.6869 -0.6695  0.0703
   95MOL    C1720885   0.559   7.360   1.688 -0.6528  0.2113  0.0104
   95MOL    H1820886   0.701   7.443   1.820 -0.0774 -0.2963 -1.8228
   95MOL    H1920887   0.759   7.695   1.845 -0.2468  0.7167 -0.1300
   95MOL    H2020888   0.880   7.664   1.723  0.3794 -0.5360 -2.7216
   95MOL    H2120889   0.765   7.787   1.692  1.4746 -1.3389 -1.5993
   95MOL    H2220890   0.472   7.384   1.628 -0.5025  0.5001 -0.0899
   95MOL    H2320891   0.519   7.288   1.760  0.0269  0.2729  0.4610
   95MOL    C2420892   0.652   7.285   1.591 -0.2323  0.0530  0.1829
   95MOL    C2520893   0.581   7.201   1.484 -0.0806 -0.3485  0.5818
   95MOL    O2620894   0.566   7.078   1.501 -0.1165  0.2047  0.3020
   95MOL    C2720895   0.528   7.267   1.359  0.3941  0.6588  0.0942
   95MOL    C2820896   0.761   7.204   1.669 -0.9128 -0.4562  0.5065
   95MOL    H2920897   0.707   7.355   1.528 -1.1058  2.1860  1.6869
   95MOL    H3020898   0.461   7.199   1.305  2.1769  1.3385 -3.0568
   95MOL    H3120899   0.464   7.350   1.387 -0.4739 -0.0473  0.2529
   95MOL    H3220900   0.606   7.292   1.288 -0.8775  1.5270 -1.0069
   95MOL    H3320901   0.793   7.113   1.617 -0.2356  1.0548 -1.7797
   95MOL    H3420902   0.730   7.166   1.766 -3.1418  0.9637  0.3762
   95MOL    C3520903   0.903   7.284   1.676 -1.0239  0.3453 -0.7021
   95MOL    C3620904   0.972   7.315   1.540  0.3342  0.0785  0.2999
   95MOL    O3720905   0.979   7.223   1.456  0.2875  0.1337 -0.6862
   95MOL    C3820906   1.009   7.457   1.498  0.5079  0.0888 -0.3598
   95MOL    C3920907   1.004   7.226   1.775 -0.3560 -0.7178 -0.2581
   95MOL    H4020908   0.893   7.388   1.707  0.5188  0.0982  0.6901
   95MOL    H4120909   1.117   7.472   1.500  0.0579  3.6151 -0.3306
   95MOL    H4220910   0.982   7.469   1.393  0.8205  0.4508 -0.4000
   95MOL    H4320911   0.958   7.530   1.561 -0.4724  0.4831 -1.5908
   95MOL    H4420912   1.021   7.120   1.752  1.2835 -0.9433  1.8104
   95MOL    H4520913   0.977   7.235   1.880 -2.2381  0.8054 -0.8517
   95MOL    C4620914   1.156   7.294   1.781 -0.7227  0.0895  0.0344
   95MOL    C4720915   1.262   7.211   1.856 -0.2706  0.5770  0.4567
   95MOL    O4820916   1.232   7.124   1.941 -0.0797 -0.0071 -0.4641
   95MOL    C4920917   1.410   7.255   1.843 -0.0826  0.7442 -0.0501
   95MOL    C5020918   1.152   7.442   1.818 -0.0706  0.2499  0.0545
   95MOL    H5120919   1.191   7.285   1.678  0.2846  1.4357  0.2427
   95MOL    H5220920   1.471   7.197   1.913  1.1748  0.8165 -1.0636
   95MOL    H5320921   1.450   7.232   1.744  0.3585  1.4255 -0.0305
   95MOL    H5420922   1.416   7.362   1.859 -1.4066  0.6961  0.8141
   95MOL    H5520923   1.060   7.484   1.776 -0.5544  0.0371  0.8896
   95MOL    H5620924   1.227   7.482   1.750 -0.7859 -1.3170 -1.7116
   95MOL    C5720925   1.148   7.482   1.967  0.5129 -0.0050 -0.0621
   95MOL    C5820926   1.013   7.457   2.038  0.6152  0.2663 -0.0780
   95MOL    O5920927   0.903   7.503   1.999  0.1176 -0.2309 -0.2417
   95MOL    C6020928   1.016   7.373   2.160 -0.0188  0.2703 -0.0149
   95MOL    C6120929   1.196   7.625   1.995  0.0835  0.1254  0.7363
   95MOL    H6220930   1.207   7.407   2.020 -0.7793 -1.1459 -0.2013
   95MOL    H6320931   1.113   7.328   2.180  0.0225  0.5671  0.4688
   95MOL    H6420932   0.989   7.430   2.249  2.6867  0.7308  0.5545
   95MOL    H6520933   0.947   7.288   2.161  1.1910 -0.7371  0.9033
   95MOL    H6620934   1.120   7.689   1.950  0.0073  1.3986  2.6329
   95MOL    H6720935   1.290   7.650   1.946  0.5317 -0.4830  1.2769
   95MOL    C6820936   1.206   7.654   2.152  0.8752 -0.0241 -0.3383
   95MOL    C6920937   1.230   7.807   2.170  0.0125  0.8659 -0.4758
   95MOL    O7020938   1.350   0.004   2.180 -0.6922  0.4726 -0.2884
   95MOL    C7120939   1.117   0.053   2.135 -0.0774  0.0608 -0.1608
   95MOL    C7220940   1.322   7.574   2.217 -0.1073  0.1463  0.2197
   95MOL    H7320941   1.115   7.626   2.203  1.0050  0.3719  0.1124
   95MOL    H7420942   1.169   0.146   2.114 -0.8350  0.8765  1.4636
   95MOL    H7520943   1.058   0.032   2.046 -1.3747  0.7846  0.5140
   95MOL    H7620944   1.047   0.065   2.218 -0.0060 -1.2902  0.1091
   95MOL    H7720945   1.414   7.579   2.158 -1.1419 -1.5758 -1.6114
   95MOL    H7820946   1.298   7.468   2.221 -0.7274  0.3201  1.1522
   95MOL    C7920947   1.353   7.590   2.367  0.2854 -0.9908  0.1967
   95MOL    C8020948   1.494   7.572   2.400 -0.2621 -0.2569  0.1830
   95MOL    O8120949   1.534   7.455   2.408 -0.1482 -0.1366  0.3008
   95MOL    C8220950   1.576   7.692   2.441  0.2449  0.5748  0.0912
   95MOL    C8320951   1.262   7.514   2.462  1.1153  0.2691  0.6234
   95MOL    H8420952   1.327   7.694   2.388 -1.5753 -1.9928  2.9855
   95MOL    H8520953   1.528   7.777   2.393 -0.0916  0.1564 -0.3254
   95MOL    H8620954   1.559   7.704   2.548  0.7825  0.5047  0.1837
   95MOL    H8720955   1.682   7.673   2.424  0.3460  0.2846  1.0111
   95MOL    H8820956   1.286   7.408   2.456 -2.3786 -0.5927  0.6411
   95MOL    H8920957   1.161   7.529   2.424  0.3737 -1.9067  1.6656
   95MOL    C9020958   1.256   7.560   2.608  0.6006 -0.2863 -0.0385
   95MOL    C9120959   1.221   7.430   2.687  0.8462  0.4921 -0.2954
   95MOL    O9220960   1.102   7.410   2.720  0.4739  0.0802 -0.0224
   95MOL    C9320961   1.331   7.331   2.728  0.0473  0.3162  0.9774
   95MOL    C9420962   1.161   7.681   2.630  0.1067 -0.6929 -0.4472
   95MOL    H9520963   1.355   7.592   2.640  0.8562 -1.5140  0.4363
   95MOL    H9620964   1.397   7.317   2.642 -0.9444 -0.9912  0.4157
   95MOL    H9720965   1.390   7.376   2.807 -1.5504  2.7689  0.8392
   95MOL    H9820966   1.287   7.235   2.755 -1.0660  0.5659  0.0827
   95MOL    H9920967   1.063   7.650   2.593  1.1492 -3.2057 -1.2177
   95MOL   H10020968   1.196   7.768   2.574 -1.6987  0.7062  0.5081
   95MOL   C10120969   1.154   7.736   2.780  0.7633 -1.1704  0.1345
   95MOL   C10220970   1.028   7.822   2.792 -0.0046 -0.1196  0.2504
   95MOL   O10320971   0.927   7.777   2.846  0.0614  0.6751 -0.1451
   95MOL   C10420972   1.014   0.119   2.731  0.2362 -0.5807 -0.8252
   95MOL   C10520973   1.278   7.815   2.822  0.6624  0.6892  0.1287
   95MOL   H10620974   1.138   7.647   2.842 -1.8737  0.1016  1.3605
   95MOL   H10720975   1.068   0.119   2.636  0.7761 -0.9770 -0.5223
   95MOL   H10820976   0.909   0.143   2.719  0.4020  1.9273  2.1725
   95MOL   H10920977   1.062   0.201   2.784  2.4259 -1.4253 -1.4330
   95MOL   H11020978   1.273   0.073   2.778  1.5946  1.4180  1.6468
   95MOL   H11120979   1.356   7.770   2.761 -2.5863 -0.5447 -3.3763
   95MOL   C11220980   1.320   7.812   2.973 -1.0423 -0.5720 -1.2288
   95MOL   C11320981   1.244   0.073   3.055 -0.4046  0.3957 -0.5706
   95MOL   O11420982   1.172   0.163   3.011 -0.0737  0.4500  0.1129
   95MOL   C11520983   1.257   0.071   3.204  0.2852  0.2661 -0.1737
   95MOL   C11620984   1.473   0.004   2.984  0.0780 -0.5179 -0.2946
   95MOL   H11720985   1.301   7.715   3.019  0.7300 -0.5145 -0.3335
   95MOL   H11820986   1.293   7.819   3.248 -0.1758 -0.1806 -0.7501
   95MOL   H11920987   1.332   0.141   3.241 -0.1853 -0.2250  1.7923
   95MOL   H12020988   1.161   0.101   3.246  0.6197  2.2621 -0.8081
   95MOL   H12120989   1.525   7.778   2.917  0.9417  2.4127 -2.7201
   95MOL   H12220990   1.509   7.823   3.084  0.5757  2.3223  0.2200
   95MOL   C12320991   1.522   0.154   2.973 -0.0981 -0.3066 -0.0132
   95MOL   C12420992   1.500   0.207   2.831  0.3203  0.8892 -0.2286
   95MOL   O12520993   1.516   0.144   2.726  0.0736  0.3485  0.2867
   95MOL   C12620994   1.448   0.346   2.804  0.2198 -0.4431 -0.2393
   95MOL   C12720995   1.671   0.159   2.997 -0.4985 -0.2728  0.1731
   95MOL   H12820996   1.457   0.219   3.032 -0.3660 -0.3235 -0.2891
   95MOL   H12920997   1.476   0.384   2.706 -1.2192 -1.0983 -0.9294
   95MOL   H13020998   1.339   0.339   2.810  0.2211  1.1460  2.3213
   95MOL   H13120999   1.494   0.405   2.883  3.1103 -0.6885 -1.6936
   95MOL   H13221000   1.715   0.258   2.991  0.5201 -0.8367 -2.2493
   95MOL   H13321001   1.727   0.104   2.922 -3.2532 -1.5860 -1.0144
   95MOL   C13421002   1.723   0.115   3.143 -0.1447 -0.3499  0.7798
   95MOL   C13521003   1.652   0.191   3.260  0.2218  0.5294 -0.3564
   95MOL   O13621004   1.621   0.307   3.250 -0.0894  0.0915  0.0038
   95MOL   C13721005   1.616   0.110   3.386  0.0900  0.4422 -0.1531
   95MOL   C13821006   1.876   0.149   3.142  0.1575 -0.7585  0.1171
   95MOL   H13921007   1.706   0.011   3.170 -1.0007 -0.6480 -0.8380
   95MOL   H14021008   1.561   0.021   3.356  0.0935  0.1083  0.8336
   95MOL   H14121009   1.707   0.091   3.443 -0.7704  0.8043  1.3688
   95MOL   H14221010   1.557   0.178   3.447  0.6346  0.6117  0.1954
   95MOL   H14321011   1.891   0.257   3.138 -0.3460 -0.6506  1.0996
   95MOL   H14421012   1.926   0.122   3.049  0.1927  1.7086 -0.6071
   95MOL   C14521013   1.953   0.079   3.260 -0.2541  0.1530 -0.6479
   95MOL   C14621014   2.103   0.122   3.284 -0.1451 -0.4072 -0.1020
   95MOL   O14721015   2.167   0.167   3.191  0.1502  0.0687 -0.0681
   95MOL   C14821016   2.173   0.119   3.421  0.0906  0.1590  0.4668
   95MOL   C14921017   1.959   7.763   3.262 -0.3737  0.8621  0.8798
   95MOL   H15021018   1.896   0.119   3.344 -1.2994 -1.3944 -0.6147
   95MOL   H15121019   2.235   0.209   3.423  0.1148  0.1488  0.1178
   95MOL   H15221020   2.095   0.131   3.497  1.5592  2.3560  1.6827
   95MOL   H15321021   2.234   0.034   3.451 -1.3118 -1.3742 -0.9018
   95MOL   H15421022   2.053   7.711   3.243 -2.3353 -1.7975 -1.9367
   95MOL   H15521023   1.898   7.711   3.189  1.0690 -0.0387  0.2991
   95MOL   C15621024   1.889   7.700   3.383  0.8263  0.1336  0.5298
   95MOL   C15721025   1.964   7.727   3.516  0.8465 -0.4190 -0.3678
   95MOL   O15821026   2.064   7.665   3.546  0.6241  0.9812  0.1493
   95MOL   C15921027   1.899   7.828   3.617  0.2489 -0.1127 -0.1841
   95MOL   C16021028   1.874   7.548   3.366 -0.3131 -0.0818 -0.3581
   95MOL   H16121029   1.795   7.752   3.401  0.8311  0.5836 -0.7331
   95MOL   H16221030   1.791   7.815   3.624  0.1247  1.0757  0.3186
   95MOL   H16321031   1.946   7.811   3.714  1.0715 -0.5588 -0.6575
   95MOL   H16421032   1.905   0.092   3.591 -1.7562  0.1880  0.5020
   95MOL   H16521033   1.974   7.505   3.363 -1.0944 -1.8692 -1.2787
   95MOL   H16621034   1.825   7.535   3.270 -3.0777 -1.0385  1.1065
   95MOL   C16721035   1.783   7.470   3.472  0.4511 -0.5713  0.2053
   95MOL   C16821036   1.855   7.402   3.591 -0.0856 -0.4580 -0.7518
   95MOL   O16921037   1.960   7.342   3.577  0.1324 -0.1763  0.1943
   95MOL   C17021038   1.789   7.400   3.730  1.0051  0.5485  0.5965
   95MOL   C17121039   1.688   7.356   3.407  0.1957 -0.4533  0.0471
   95MOL   H17221040   1.717   7.546   3.512  0.8619  0.3483 -0.8139
   95MOL   H17321041   1.736   7.306   3.739  3.5384 -0.8356  1.4953
   95MOL   H17421042   1.863   7.409   3.809  0.2924  1.6069  1.1564
   95MOL   H17521043   1.716   7.479   3.748 -1.8647 -1.7379 -0.4951
   95MOL   H17621044   1.666   7.274   3.476  0.1568 -0.2834  0.2368
   95MOL   H17721045   1.744   7.301   3.332 -0.6052  1.4096 -1.9719
   95MOL   C17821046   1.553   7.396   3.335  0.5478  0.2539  0.0858
   95MOL   C17921047   1.573   7.496   3.219 -0.2893  0.1808 -0.0995
   95MOL   O18021048   1.570   7.618   3.244  0.6396  0.4178 -0.1336
   95MOL   C18121049   1.594   7.446   3.074  0.3516  0.4925  0.1767
   95MOL   C18221050   1.451   7.444   3.440 -0.2915  0.9090  0.7649
   95MOL   H18321051   1.519   7.312   3.274  0.7430 -0.5610  1.0905
   95MOL   H18421052   1.516   7.494   3.015  0.6006 -0.9934 -1.4093
   95MOL   H18521053   1.688   7.479   3.029  0.9159 -0.6140  0.4897
   95MOL   H18621054   1.587   7.338   3.057 -0.0575  0.3424  1.2662
   95MOL   H18721055   1.372   7.500   3.391 -1.6481 -0.2300  1.5971
   95MOL   H18821056   1.493   7.527   3.497  1.8768 -0.8100  1.7987
   95MOL   C18921057   1.397   7.330   3.525  0.0652 -0.1902 -0.3011
   95MOL   C19021058   1.297   7.238   3.452 -0.6959 -0.3462  0.2470
   95MOL   O19121059   1.211   7.282   3.372  0.1066  0.3111  0.4938
   95MOL   C19221060   1.326   7.091   3.449 -0.0224  0.3609 -0.1580
   95MOL   C19321061   1.328   7.394   3.659  0.5519 -0.1095  0.1789
   95MOL   H19421062   1.487   7.275   3.552  1.1368  2.3863  1.5830
   95MOL   H19521063   1.264   7.046   3.372  1.7819 -0.5172 -1.1433
   95MOL   H19621064   1.427   7.066   3.416  0.0129 -0.7783  0.7959
   95MOL   H19721065   1.306   7.048   3.547 -1.6845 -0.0642 -0.6660
   95MOL   H19821066   1.252   7.467   3.633  1.2692  0.6058  0.0731
   95MOL   H19921067   1.408   7.456   3.701  1.5098 -1.0980 -0.1658
   95MOL   C20021068   1.292   7.291   3.767 -0.0745  0.6106  0.0846
   95MOL   C20121069   1.142   7.289   3.798  0.7807  0.6520 -0.7668
   95MOL   O20221070   1.067   7.384   3.827 -0.3853 -0.2554 -0.4087
   95MOL   C20321071   1.081   7.151   3.802 -0.3251  0.1844  0.4150
   95MOL   C20421072   1.374   7.322   3.887 -0.5209 -0.4108 -0.0577
   95MOL   H20521073   1.329   7.193   3.739  2.0900  2.1228 -2.6353
   95MOL   H20621074   1.041   7.134   3.902  0.1491 -0.1219  0.5543
   95MOL   H20721075   1.010   7.126   3.724  0.7307 -1.8052  0.0767
   95MOL   H20821076   1.160   7.077   3.787  1.5751  1.4569  3.5259
   95MOL   H20921077   1.336   7.421   3.915  0.9041  0.3921 -0.9190
   95MOL   H21021078   1.478   7.320   3.853 -0.3124 -1.1545  0.6087
   95MOL   C21121079   1.364   7.223   4.014  0.6620 -0.1403  0.0227
   95MOL   C21221080   1.442   7.277   4.134  0.4909 -0.2707 -0.0374
   95MOL   O21321081   1.528   7.370   4.115  0.4582  0.5103  0.2966
   95MOL   C21421082   1.435   7.197   4.268 -0.3996 -0.5543 -0.8173
   95MOL   C21521083   1.422   7.088   3.979 -0.1617  0.4823  0.7911
   95MOL   H21621084   1.259   7.221   4.043  1.1318 -0.0885  1.7780
   95MOL   H21721085   1.334   7.167   4.296  0.4385 -2.7816 -0.0424
   95MOL   H21821086   1.494   7.105   4.261  1.6940  0.9697 -4.0259
   95MOL   H21921087   1.477   7.245   4.356 -1.2523 -1.5915  0.1836
   95MOL   H22021088   1.490   7.090   3.894  0.6329  0.0031  1.4191
   95MOL   H22121089   1.329   7.031   3.966  0.4901 -0.7157  1.3768
   95MOL   H22221090   1.476   7.046   4.063 -1.0172  0.2759  1.2493
   96MOL     C121091   7.746   7.796   7.041 -0.5490 -0.5250 -0.5710
   96MOL     C221092   7.763   0.102   7.004  0.6785  0.3300  0.6323
   96MOL     O321093   0.029   0.160   7.028  0.4535  0.1317  0.9972
   96MOL     C421094   7.646   0.169   6.942  0.1944 -0.6539 -0.2723
   96MOL     C521095   7.773   7.758   7.188 -0.3746  0.2718  0.2207
   96MOL     H621096   7.648   7.756   7.012  0.5579 -1.8949 -2.5527
   96MOL     H721097   7.618   0.134   6.842 -0.4226  1.7167 -0.9638
   96MOL     H821098   7.554   0.170   7.000 -0.3738 -0.7513 -1.1622
   96MOL     H921099   7.672   0.274   6.928 -1.2961 -0.5399 -2.4368
   96MOL    H1021100   7.747   7.655   7.211 -0.3071  0.0803 -0.5561
   96MOL    H1121101   7.706   7.823   7.244  0.5798  1.2475  0.2505
   96MOL    H1221102   7.822   7.731   6.997 -2.1746 -3.2807  0.5146
   96MOL    C1321103   0.076   7.784   7.248  0.4177  0.1243 -0.0614
   96MOL    C1421104   0.186   7.719   7.170 -0.0310 -0.5038 -0.1855
   96MOL    O1521105   0.174   7.614   7.103 -0.3236  0.2144 -0.1703
   96MOL    C1621106   0.321   7.791   7.168 -0.5033 -0.5352  0.4645
   96MOL    C1721107   0.077   7.731   7.397 -0.2042  0.3022  0.5322
   96MOL    H1821108   0.109   0.046   7.247 -1.2768  0.6644 -1.2047
   96MOL    H1921109   0.313   0.049   7.125  0.0116 -0.5744  0.2681
   96MOL    H2021110   0.355   7.808   7.271  0.7905  2.0924 -0.3396
   96MOL    H2121111   0.400   7.745   7.109 -0.6113 -1.9344  1.4051
   96MOL    H2221112   0.178   7.717   7.435 -0.3166  1.7986  1.4330
   96MOL    H2321113   0.031   7.633   7.400  1.8909 -0.7539 -0.7004
   96MOL    C2421114   0.017   7.836   7.488  0.1896  0.2234 -0.3217
   96MOL    C2521115   0.092   0.128   7.502  0.0986 -0.3117  0.1987
   96MOL    O2621116   0.214   0.128   7.526  0.2733  0.6644 -0.2890
   96MOL    C2721117   0.004   0.251   7.503  0.2206  0.4112 -0.5992
   96MOL    C2821118   0.003   7.781   7.638  0.6519 -0.2057  0.4966
   96MOL    H2921119   7.758   0.025   7.461 -0.3634 -0.2618  1.1371
   96MOL    H3021120   0.045   0.337   7.557 -1.3578  0.3779  0.7151
   96MOL    H3121121   0.002   0.280   7.398 -0.4020  2.6971  0.0079
   96MOL    H3221122   7.743   0.232   7.535  0.7215 -1.7623 -0.1700
   96MOL    H3321123   7.806   0.023   7.696 -2.6380  0.6561 -2.8125
   96MOL    H3421124   0.103   7.764   7.679  0.4577 -3.7228 -0.3113
   96MOL    C3521125   7.762   7.646   7.659 -0.1407  1.0939  0.5966
   96MOL    C3621126   7.634   7.635   7.579  0.9541 -0.5768 -0.0182
   96MOL    O3721127   7.567   7.740   7.556 -0.1693  0.3049  0.0020
   96MOL    C3821128   7.580   7.502   7.516 -0.3160  0.0953  0.5672
   96MOL    C3921129   7.747   7.604   7.812  0.1156 -0.4653  0.4566
   96MOL    H4021130   7.816   7.562   7.616  0.5169  2.8634 -2.2192
   96MOL    H4121131   7.557   7.516   7.411  0.3074  0.5562  0.4898
   96MOL    H4221132   7.645   7.414   7.525 -1.7203 -0.9776  0.2882
   96MOL    H4321133   7.488   7.470   7.564  1.2547 -0.9821  2.9685
   96MOL    H4421134   0.003   7.566   7.840 -0.9441 -2.8394  1.0559
   96MOL    H4521135   7.683   7.516   7.810 -0.8317  0.2282 -0.6701
   96MOL    C4621136   7.701   7.709   0.079  0.3457  0.2687 -0.2677
   96MOL    C4721137   7.766   7.677   0.216  0.7605  0.8787  0.2175
   96MOL    O4821138   7.819   7.566   0.234  0.3926 -0.4859 -0.3305
   96MOL    C4921139   7.781   7.784   0.324  0.0088  0.8098 -0.0483
   96MOL    C5021140   7.547   7.719   0.083  0.4510  1.1208  0.6310
   96MOL    H5121141   7.746   7.807   0.058 -0.7446  0.2069 -3.1785
   96MOL    H5221142   7.699   7.787   0.395 -0.0486  2.9927 -0.1776
   96MOL    H5321143   0.033   7.772   0.377 -1.1063 -2.1383  1.3653
   96MOL    H5421144   7.789   0.040   0.278  2.1805  0.9555  0.5938
   96MOL    H5521145   7.498   7.648   0.150 -1.1022  0.0588 -1.5507
   96MOL    H5621146   7.496   7.695   7.832  0.5408 -0.3587  0.9432
   96MOL    C5721147   7.499   0.019   0.117  0.3306 -0.5848  0.1465
   96MOL    C5821148   7.362   0.013   0.183  0.2976  0.0928 -0.1523
   96MOL    O5921149   7.352   0.005   0.309  0.0596 -0.5732  0.1724
   96MOL    C6021150   7.235   7.836   0.101 -0.3330 -0.0886  0.3022
   96MOL    C6121151   7.510   0.114   7.836  0.3598 -0.7429  0.6758
   96MOL    H6221152   7.558   0.060   0.199  1.4580 -0.6991 -0.5860
   96MOL    H6321153   7.201   0.087   0.055  0.3941 -0.0068 -0.0780
   96MOL    H6421154   7.264   7.770   0.020  0.0624 -0.3176  0.6271
   96MOL    H6521155   7.144   7.801   0.149 -1.6805  2.4965 -0.3331
   96MOL    H6621156   7.435   0.077   7.766  0.7754  0.8368 -0.6289
   96MOL    H6721157   7.591   0.101   7.766  0.0181  2.1302 -0.3056
   96MOL    C6821158   7.468   0.265   0.022  0.7648  0.4679  0.1903
   96MOL    C6921159   7.364   0.317   7.763  0.5853 -0.2559  0.1001
   96MOL    O7021160   7.366   0.301   7.641 -0.3061  0.1039 -0.3497
   96MOL    C7121161   7.261   0.414   7.812  0.2449  0.0135 -0.1194
   96MOL    C7221162   7.593   0.358   0.025  0.3193  0.2319  0.4148
   96MOL    H7321163   7.418   0.266   0.119 -0.0333 -0.0625 -0.2170
   96MOL    H7421164   7.230   0.472   7.725  1.1668  1.2560  0.3708
   96MOL    H7521165   7.169   0.361   7.834 -1.3568  2.7413  0.0100
   96MOL    H7621166   7.291   0.470   0.058  3.1543 -1.2238 -0.2783
   96MOL    H7721167   7.556   0.458   0.048 -2.4887 -0.9274  1.1194
   96MOL    H7821168   7.636   0.363   7.767  2.2689  1.3852  1.2774
   96MOL    C7921169   7.703   0.318   0.122 -0.9121  0.5757 -0.1385
   96MOL    C8021170   7.671   0.330   0.279 -0.5159  0.5782  0.4556
   96MOL    O8121171   7.714   0.244   0.360 -0.4962 -0.1478 -0.2195
   96MOL    C8221172   7.590   0.451   0.328 -0.3507 -0.7174  0.6816
   96MOL    C8321173   7.831   0.406   0.079 -0.0117  0.4612  0.3638
   96MOL    H8421174   7.731   0.215   0.098  1.4262  1.4578 -1.3144
   96MOL    H8521175   7.617   0.484   0.428  0.7582  0.7399 -0.0801
   96MOL    H8621176   7.606   0.531   0.256 -2.0000 -1.0184 -0.0453
   96MOL    H8721177   7.483   0.430   0.323 -0.5163  0.4352 -1.3358
   96MOL    H8821178   7.799   0.510   0.083  0.7793  0.8118 -1.7309
   96MOL    H8921179   0.011   0.377   7.818 -1.0450  1.2477 -0.0836
   96MOL    C9021180   0.121   0.389   0.154  0.3507  0.4949  0.8522
   96MOL    C9121181   0.223   0.508   0.143  0.5599 -0.9153  0.0418
   96MOL    O9221182   0.334   0.505   0.186 -0.1259 -0.4397  0.4322
   96MOL    C9321183   0.185   0.621   0.050 -0.2653 -0.0913 -0.0418
   96MOL    C9421184   0.188   0.251   0.136  0.3595 -0.0481  0.8715
   96MOL    H9521185   0.094   0.400   0.259 -1.7922  0.6271  0.3120
   96MOL    H9621186   0.114   0.692   0.090 -0.4906 -1.0518  1.2833
   96MOL    H9721187   0.279   0.675   0.038 -0.6078  0.1329 -1.8460
   96MOL    H9821188   0.150   0.576   7.799 -1.4542  0.0035  0.3578
   96MOL    H9921189   0.246   0.246   0.044  0.6842 -2.2923  1.1551
   96MOL   H10021190   0.099   0.196   0.108  0.7715  0.2383 -1.0916
   96MOL   C10121191   0.279   0.187   0.247  0.3773 -0.1351 -0.0677
   96MOL   C10221192   0.299   0.040   0.216 -0.2742 -0.2801 -0.7825
   96MOL   O10321193   0.206   7.829   0.155 -0.0347 -0.0278 -0.2905
   96MOL   C10421194   0.436   7.825   0.239 -0.3633 -0.1349 -0.2516
   96MOL   C10521195   0.220   0.202   0.392  0.1183  0.2202  0.0678
   96MOL   H10621196   0.384   0.217   0.248  0.5204 -0.6727  1.0022
   96MOL   H10721197   0.507   0.006   0.160  1.0345  0.1677  1.0803
   96MOL   H10821198   0.480   0.016   0.332  0.0620  1.1201 -0.8925
   96MOL   H10921199   0.427   7.716   0.235  1.7104 -0.3506  0.6448
   96MOL   H11021200   0.236   0.115   0.456  1.4486  1.3850  1.3947
   96MOL   H11121201   0.113   0.212   0.374 -0.1025  2.4088  2.1862
   96MOL   C11221202   0.261   0.326   0.477  0.7779 -0.1195 -0.5373
   96MOL   C11321203   0.385   0.302   0.557  0.1893 -0.2925  0.0260
   96MOL   O11421204   0.400   0.191   0.614 -0.2359 -0.3066 -0.0569
   96MOL   C11521205   0.487   0.408   0.579  0.0771 -0.4592 -0.0321
   96MOL   C11621206   0.153   0.368   0.582  0.0304  0.8925 -0.1934
   96MOL   H11721207   0.280   0.407   0.407 -1.9535  0.1284 -1.0684
   96MOL   H11821208   0.503   0.460   0.485  1.6773 -0.2326  0.3576
   96MOL   H11921209   0.447   0.484   0.647  0.7746  0.0304 -0.1669
   96MOL   H12021210   0.577   0.359   0.615  0.4872  1.0801  1.1225
   96MOL   H12121211   0.177   0.317   0.675  3.5922  1.5752 -0.6689
   96MOL   H12221212   0.055   0.327   0.560  0.2953  1.1209 -1.8534
   96MOL   C12321213   0.132   0.514   0.607 -0.2670 -0.4316 -0.7018
   96MOL   C12421214   0.052   0.538   0.738 -0.2770 -0.6108  0.2849
   96MOL   O12521215   7.776   0.507   0.751  0.1911 -0.2496 -0.4017
   96MOL   C12621216   0.134   0.589   0.858 -0.8894 -0.3604  0.5839
   96MOL   C12721217   0.067   0.593   0.487  0.4540 -0.2655  0.2282
   96MOL   H12821218   0.229   0.560   0.623  0.7034 -2.0827 -1.6440
   96MOL   H12921219   0.197   0.674   0.830  2.7866 -3.9787 -2.8922
   96MOL   H13021220   0.060   0.611   0.934 -0.1277  0.0101  1.2305
   96MOL   H13121221   0.206   0.512   0.887  1.0885  0.9206 -0.7612
   96MOL   H13221222   0.007   0.529   0.423  2.1022 -0.6848 -0.9524
   96MOL   H13321223   0.159   0.613   0.432  2.6206  0.1344  3.8150
   96MOL   C13421224   7.825   0.717   0.515  0.1241  0.3497 -0.3275
   96MOL   C13521225   7.760   0.765   0.391 -0.0025 -0.3236  0.8530
   96MOL   O13621226   7.809   0.753   0.276 -0.6583  0.2163 -0.3330
   96MOL   C13721227   7.621   0.829   0.401  0.2372  0.1445  0.0129
   96MOL   C13821228   0.058   0.838   0.581  0.4635  0.2432 -0.3418
   96MOL   H13921229   7.740   0.687   0.577  0.4579  0.6259  0.2608
   96MOL   H14021230   7.606   0.862   0.504 -3.4949  0.2835 -0.5164
   96MOL   H14121231   7.614   0.921   0.343  2.2131  0.8081  0.7587
   96MOL   H14221232   7.541   0.756   0.393  0.1172  0.1940  0.7160
   96MOL   H14321233   0.104   0.823   0.679  0.4224  2.2892  0.0164
   96MOL   H14421234   7.819   0.908   0.603 -1.2634 -1.4072 -1.2770
   96MOL   C14521235   0.161   0.921   0.496  0.3491  0.8835  0.2321
   96MOL   C14621236   0.291   0.848   0.458 -0.5347  0.1912  0.3662
   96MOL   O14721237   0.373   0.800   0.540 -0.0101  0.7744  0.1199
   96MOL   C14821238   0.341   0.855   0.315 -0.4160  0.6516 -0.2024
   96MOL   C14921239   0.190   1.051   0.579 -1.0437 -0.8592  0.3820
   96MOL   H15021240   0.110   0.940   0.401 -0.8825  0.9106  0.8816
   96MOL   H15121241   0.443   0.820   0.304 -0.3244  0.5897  0.7763
   96MOL   H15221242   0.276   0.790   0.256 -1.8857  1.4506  0.4942
   96MOL   H15321243   0.343   0.952   0.267  0.4561  0.5491 -0.3687
   96MOL   H15421244   0.256   1.030   0.663  1.2743 -2.8715 -1.8377
   96MOL   H15521245   0.095   1.079   0.624 -1.2418 -0.5824 -0.2112
   96MOL   C15621246   0.248   1.174   0.506  0.3527 -0.6131  0.0417
   96MOL   C15721247   0.192   1.201   0.369 -0.3825 -0.3078  1.3538
   96MOL   O15821248   0.262   1.234   0.275  0.3000  0.1560 -0.5670
   96MOL   C15921249   0.041   1.204   0.352 -0.6236 -0.0209  0.4949
   96MOL   C16021250   0.396   1.189   0.513 -0.1234  0.1747 -0.2032
   96MOL   H16121251   0.220   1.259   0.568  0.4831  1.2932 -2.4568
   96MOL   H16221252   0.011   1.222   0.249  1.9199 -0.3786 -0.3302
   96MOL   H16321253   7.822   1.118   0.381 -2.2917  0.1506 -2.2576
   96MOL   H16421254   0.012   1.299   0.398  0.0384  1.5155 -2.1777
   96MOL   H16521255   0.415   1.294   0.490  0.9387  0.7342  3.0453
   96MOL   H16621256   0.439   1.130   0.432 -0.7088 -1.0025  0.3249
   96MOL   C16721257   0.471   1.149   0.643 -0.9815  0.1009  0.1807
   96MOL   C16821258   0.421   1.228   0.767 -0.0898 -0.0224 -0.2464
   96MOL   O16921259   0.404   1.352   0.767 -0.0197 -0.0326 -0.2798
   96MOL   C17021260   0.397   1.153   0.897  0.1138 -0.0351  0.0466
   96MOL   C17121261   0.629   1.170   0.615  0.3535 -0.2881 -0.2360
   96MOL   H17221262   0.466   1.043   0.668 -0.4337  0.4769  1.9952
   96MOL   H17321263   0.299   1.106   0.894  0.5878 -1.1350  1.2331
   96MOL   H17421264   0.466   1.070   0.911 -0.4033 -0.2166  1.6038
   96MOL   H17521265   0.417   1.218   0.982 -0.4570  1.9996 -1.3459
   96MOL   H17621266   0.689   1.179   0.705  0.7961 -0.0982 -0.5462
   96MOL   H17721267   0.645   1.269   0.573  1.4686 -0.0704  0.7005
   96MOL   C17821268   0.691   1.056   0.532  0.7319  1.0983 -0.0697
   96MOL   C17921269   0.706   0.925   0.609  0.0095 -0.3610 -0.1719
   96MOL   O18021270   0.725   0.926   0.730 -1.0461 -0.1305 -0.0025
   96MOL   C18121271   0.693   0.794   0.525  0.4312  0.1578 -0.3842
   96MOL   C18221272   0.826   1.095   0.470  0.2592  0.0778  0.0484
   96MOL   H18321273   0.627   1.024   0.450 -2.2177  0.7797  2.2753
   96MOL   H18421274   0.689   0.711   0.596  1.3444  1.2118  0.9220
   96MOL   H18521275   0.595   0.796   0.477  1.2560 -3.8303 -2.4212
   96MOL   H18621276   0.778   0.777   0.460  0.5641 -1.3997  0.1782
   96MOL   H18721277   0.867   1.000   0.435 -1.6144 -0.7118 -0.0834
   96MOL   H18821278   0.887   1.126   0.555 -1.5496  1.7599  0.7521
   96MOL   C18921279   0.818   1.180   0.348 -0.1348 -0.3869 -0.8053
   96MOL   C19021280   0.746   1.115   0.229  0.0642  0.0777  0.4123
   96MOL   O19121281   0.784   1.009   0.184 -0.9730  0.0620 -0.8460
   96MOL   C19221282   0.629   1.196   0.180  0.4175 -0.8887  0.2817
   96MOL   C19321283   0.946   1.242   0.303  0.0671  0.0260  0.1993
   96MOL   H19421284   0.758   1.265   0.380  1.0129 -0.4934  1.7348
   96MOL   H19521285   0.530   1.162   0.210 -0.4590  0.0058 -1.4634
   96MOL   H19621286   0.633   1.304   0.195 -3.9076 -0.3214 -1.7905
   96MOL   H19721287   0.628   1.186   0.071 -0.3507 -1.0391  0.3017
   96MOL   H19821288   0.921   1.297   0.213  1.4677 -1.7213 -1.3230
   96MOL   H19921289   1.003   1.158   0.263  1.2706 -0.5906  3.0485
   96MOL   C20021290   1.032   1.336   0.396  0.2421 -0.8583 -0.3997
   96MOL   C20121291   0.951   1.439   0.469  0.3487 -0.0897 -0.6982
   96MOL   O20221292   0.868   1.509   0.411 -0.1241  0.0715 -0.4162
   96MOL   C20321293   0.978   1.462   0.620 -0.2602  0.1114  1.2950
   96MOL   C20421294   1.143   1.414   0.315 -0.2228 -0.6218  0.3228
   96MOL   H20521295   1.079   1.272   0.470  2.2190  0.1437 -0.7367
   96MOL   H20621296   1.060   1.401   0.658 -0.6543  0.0025  1.9929
   96MOL   H20721297   1.008   1.566   0.634 -1.5275  1.3094 -3.7969
   96MOL   H20821298   0.892   1.433   0.681 -0.1206  1.5410  2.2114
   96MOL   H20921299   1.208   1.470   0.382  0.2423 -0.1937 -0.4701
   96MOL   H21021300   1.084   1.485   0.257  0.1527  0.0928  0.8188
   96MOL   C21121301   1.239   1.333   0.229 -0.5378  0.1340  0.3384
   96MOL   C21221302   1.328   1.237   0.311  0.2621 -0.6914 -0.5201
   96MOL   O21321303   1.447   1.273   0.333 -0.3584 -0.0772  0.1102
   96MOL   C21421304   1.280   1.103   0.357 -0.4056 -0.0824  0.0379
   96MOL   C21521305   1.312   1.416   0.122  0.0971  0.1961  0.5949
   96MOL   H21621306   1.179   1.269   0.164 -0.0374  1.1897 -1.1813
   96MOL   H21721307   1.260   1.044   0.268 -2.6328  0.7073 -0.0360
   96MOL   H21821308   1.368   1.059   0.403 -0.6852 -1.0876 -0.3947
   96MOL   H21921309   1.195   1.105   0.426 -1.1561  0.9931 -0.8834
   96MOL   H22021310   1.241   1.437   0.042 -0.1212  0.7300  0.9266
   96MOL   H22121311   1.384   1.356   0.066 -0.1620  0.6414 -0.2203
   96MOL   H22221312   1.370   1.502   0.155 -1.2023  0.5381  2.0965
   97MOL     C121313   4.896   3.527   0.967  0.2565 -0.8069 -0.1596
   97MOL     C221314   4.919   3.539   0.815 -0.6501 -0.4156 -0.0616
   97MOL     O321315   4.910   3.435   0.747 -0.3437 -0.1929 -0.0061
   97MOL     C421316   4.972   3.671   0.760  1.1565  0.3252 -0.6745
   97MOL     C521317   4.809   3.411   1.015  0.4012  0.1647  0.1735
   97MOL     H621318   4.995   3.521   1.013  0.2504 -0.0535 -0.0461
   97MOL     H721319   5.074   3.660   0.725  1.0372  0.3211 -1.0154
   97MOL     H821320   4.921   3.711   0.672  1.3985 -2.1988 -2.0095
   97MOL     H921321   4.963   3.752   0.833 -0.5096 -0.7623  0.3756
   97MOL    H1021322   4.810   3.424   1.123 -1.1003  1.5860  0.0370
   97MOL    H1121323   4.850   3.316   0.980 -1.9026 -1.3755  1.5762
   97MOL    H1221324   4.855   3.626   0.985  1.4048 -0.4524  0.5478
   97MOL    C1321325   4.662   3.422   0.965 -0.5324  0.2481  0.5544
   97MOL    C1421326   4.581   3.524   1.052 -0.4715 -0.0015 -0.2509
   97MOL    O1521327   4.645   3.600   1.127  0.0105  0.9975 -0.5180
   97MOL    C1621328   4.434   3.552   1.030 -0.2596  0.7041  0.8201
   97MOL    C1721329   4.586   3.289   0.951 -0.0990 -0.1885  0.5733
   97MOL    H1821330   4.671   3.465   0.865  1.0275  1.0899  1.0344
   97MOL    H1921331   4.376   3.463   1.054  1.0379 -0.2372  0.5404
   97MOL    H2021332   4.393   3.634   1.088  0.7855  1.3626  0.6430
   97MOL    H2121333   4.406   3.569   0.926  2.9571  0.5768 -0.1464
   97MOL    H2221334   4.486   3.312   0.915  0.5460  1.3630 -0.2645
   97MOL    H2321335   4.573   3.239   1.047 -1.9776 -0.6258  0.1074
   97MOL    C2421336   4.665   3.187   0.862  0.1003  0.1913  0.0160
   97MOL    C2521337   4.666   3.221   0.713 -0.7970 -0.4815  1.1988
   97MOL    O2621338   4.590   3.303   0.660  0.0687 -0.0722  0.0270
   97MOL    C2721339   4.786   3.163   0.635  0.5624  0.1256 -0.1550
   97MOL    C2821340   4.625   3.042   0.891 -0.6178 -0.1021  0.2984
   97MOL    H2921341   4.771   3.184   0.890  0.4912 -2.1519 -1.4918
   97MOL    H3021342   4.814   3.064   0.671  1.0730 -0.2351 -1.5120
   97MOL    H3121343   4.769   3.162   0.527  1.0361 -0.1992 -0.2269
   97MOL    H3221344   4.877   3.220   0.654  0.0417  1.2434 -0.9589
   97MOL    H3321345   4.624   3.027   0.999 -0.1906 -0.5521  0.2361
   97MOL    H3421346   4.701   2.969   0.864 -1.2058 -1.1820  1.4864
   97MOL    C3521347   4.486   2.988   0.843  0.0797 -0.2982  0.4979
   97MOL    C3621348   4.373   3.075   0.894 -0.6600 -0.2005 -0.9080
   97MOL    O3721349   4.356   3.091   1.017  0.6606  0.2562 -0.1821
   97MOL    C3821350   4.281   3.142   0.794 -0.3093 -0.4434  0.5141
   97MOL    C3921351   4.457   2.837   0.859  0.1760 -0.3185  0.6848
   97MOL    H4021352   4.488   3.009   0.736 -0.4714 -1.3995  0.2641
   97MOL    H4121353   4.218   3.214   0.846  0.7861  1.2717 -0.4900
   97MOL    H4221354   4.338   3.203   0.725  2.1564 -0.5393  2.4101
   97MOL    H4321355   4.225   3.067   0.737  1.6122 -1.2714 -0.3494
   97MOL    H4421356   4.364   2.815   0.808  0.3214 -2.7556  1.4199
   97MOL    H4521357   4.439   2.833   0.966 -0.1722  0.3979  0.6528
   97MOL    C4621358   4.561   2.727   0.821  0.1606 -0.1378 -0.2886
   97MOL    C4721359   4.654   2.760   0.700 -0.6788  0.6110 -0.4331
   97MOL    O4821360   4.770   2.788   0.710 -0.3459 -0.4802  0.3133
   97MOL    C4921361   4.594   2.760   0.566 -0.1612  0.1321 -0.0519
   97MOL    C5021362   4.484   2.596   0.810  0.3981 -0.4016 -0.5202
   97MOL    H5121363   4.636   2.731   0.900  1.1734  0.9574 -1.2707
   97MOL    H5221364   4.497   2.710   0.570  0.6004 -1.4804 -0.8266
   97MOL    H5321365   4.590   2.861   0.525 -2.0158  0.0031 -0.2501
   97MOL    H5421366   4.640   2.686   0.499  0.5177 -0.6692  1.2799
   97MOL    H5521367   4.397   2.607   0.744 -0.1023 -0.4949  0.1175
   97MOL    H5621368   4.433   2.578   0.905  1.6435 -0.0703  0.2138
   97MOL    C5721369   4.573   2.474   0.783  0.4192  0.8384  0.2789
   97MOL    C5821370   4.480   2.374   0.712  0.3041  0.0432  0.8377
   97MOL    O5921371   4.495   2.349   0.590 -0.5709  0.2969 -0.0804
   97MOL    C6021372   4.368   2.309   0.787  0.5138  0.5737  0.1620
   97MOL    C6121373   4.646   2.412   0.908  0.0956  0.4448 -0.1796
   97MOL    H6221374   4.642   2.501   0.703 -0.3463  0.2730 -0.5834
   97MOL    H6321375   4.400   2.309   0.891  0.3783  2.3893  0.2280
   97MOL    H6421376   4.275   2.356   0.755  0.0642 -1.4008 -1.5252
   97MOL    H6521377   4.359   2.203   0.763  1.1766  0.2741  1.2044
   97MOL    H6621378   4.675   2.315   0.868  0.9726  0.6840 -0.1569
   97MOL    H6721379   4.581   2.391   0.992  0.8506 -1.9234 -0.1672
   97MOL    C6821380   4.770   2.477   0.968 -0.0035 -0.1847 -0.3200
   97MOL    C6921381   4.878   2.501   0.867  0.0633  0.4378  0.5329
   97MOL    O7021382   4.877   2.426   0.767  0.2016 -0.1595 -0.4214
   97MOL    C7121383   4.995   2.591   0.892  0.3628  0.2192  0.1568
   97MOL    C7221384   4.823   2.385   1.075  0.4069  0.4612  0.5767
   97MOL    H7321385   4.742   2.577   1.001 -0.1445 -0.2431 -0.2597
   97MOL    H7421386   4.963   2.684   0.843 -1.1980 -0.9648 -1.1288
   97MOL    H7521387   4.994   2.612   0.999  0.0840 -1.6979  0.5430
   97MOL    H7621388   5.092   2.558   0.855  0.6994  2.0154 -0.6627
   97MOL    H7721389   4.929   2.405   1.084  0.7242 -1.0272  0.3640
   97MOL    H7821390   4.830   2.288   1.026  0.2819  0.7749 -0.0694
   97MOL    C7921391   4.751   2.393   1.208  0.6440 -0.7836  0.6976
   97MOL    C8021392   4.801   2.513   1.287 -0.2877 -0.3569 -0.5202
   97MOL    O8121393   4.922   2.531   1.305 -1.0131  0.1530  0.3858
   97MOL    C8221394   4.703   2.587   1.372  0.0447 -0.1214 -0.0137
   97MOL    C8321395   4.759   2.264   1.297 -0.1679  1.0981  0.3329
   97MOL    H8421396   4.644   2.415   1.206  0.8762  0.3160 -1.3421
   97MOL    H8521397   4.729   2.569   1.476 -3.4597  0.6135  1.0797
   97MOL    H8621398   4.740   2.687   1.347 -0.6118 -0.7033 -3.5546
   97MOL    H8721399   4.598   2.575   1.346  0.1074  1.5091 -1.0999
   97MOL    H8821400   4.742   2.292   1.401 -2.3626  0.4513  0.1666
   97MOL    H8921401   4.863   2.231   1.290 -1.0231 -1.2568 -1.6064
   97MOL    C9021402   4.670   2.159   1.249  0.3848  0.1829  1.1834
   97MOL    C9121403   4.525   2.198   1.292 -0.0594 -0.1883 -0.5590
   97MOL    O9221404   4.499   2.217   1.411 -0.6463  0.3024 -0.0632
   97MOL    C9321405   4.428   2.214   1.174 -0.3978  0.3397 -0.3504
   97MOL    C9421406   4.714   2.015   1.302 -0.2104 -0.4095 -0.3423
   97MOL    H9521407   4.680   2.164   1.141  0.1700  0.6433  1.1828
   97MOL    H9621408   4.492   2.249   1.093  1.6505  2.6454  2.1812
   97MOL    H9721409   4.388   2.120   1.137 -1.8200 -0.5608  3.3157
   97MOL    H9821410   4.353   2.288   1.200 -1.1073 -0.5871  0.2553
   97MOL    H9921411   4.700   2.031   1.409  0.7538 -1.5705 -0.0375
   97MOL   H10021412   4.821   2.002   1.285  0.2043  1.3279  0.8021
   97MOL   C10121413   4.644   1.893   1.238 -0.0092  0.5252  0.5529
   97MOL   C10221414   4.656   1.774   1.336  0.4145  0.4800  1.0800
   97MOL   O10321415   4.559   1.740   1.398  0.5155  0.3834 -0.4379
   97MOL   C10421416   4.789   1.705   1.358 -0.2286 -0.0354 -0.0810
   97MOL   C10521417   4.719   1.865   1.106 -0.0152 -0.0737 -0.1034
   97MOL   H10621418   4.536   1.907   1.228  0.1377  0.8032 -0.7013
   97MOL   H10721419   4.793   1.679   1.463  0.8788 -0.1825 -0.1547
   97MOL   H10821420   4.800   1.609   1.308 -1.3825 -1.3945  2.1821
   97MOL   H10921421   4.873   1.773   1.345 -0.8328  1.0991  1.6999
   97MOL   H11021422   4.822   1.839   1.128 -0.1397 -0.7514 -0.3157
   97MOL   H11121423   4.735   1.953   1.043 -0.3485  0.6138  0.7721
   97MOL   C11221424   4.655   1.764   1.008  0.4973 -0.4420 -0.8292
   97MOL   C11321425   4.753   1.702   0.910  0.1350 -0.8801  0.1737
   97MOL   O11421426   4.831   1.772   0.846 -0.9121 -0.4632  0.0965
   97MOL   C11521427   4.770   1.556   0.901  0.2191 -0.4390 -0.3983
   97MOL   C11621428   4.525   1.823   0.926 -0.3559  0.7821  0.0080
   97MOL   H11721429   4.628   1.683   1.074 -2.1975  0.9757 -0.1437
   97MOL   H11821430   4.854   1.534   0.836 -0.2713  1.8610 -1.8424
   97MOL   H11921431   4.768   1.509   1.000  0.3431  0.2906 -0.0495
   97MOL   H12021432   4.679   1.519   0.853 -0.6930  0.4447  0.6036
   97MOL   H12121433   4.458   1.880   0.989 -1.6193 -0.3964 -0.2286
   97MOL   H12221434   4.467   1.733   0.901 -1.5495  1.8087 -1.0493
   97MOL   C12321435   4.547   1.893   0.785 -0.0813  0.4834  0.3200
   97MOL   C12421436   4.613   2.032   0.805  0.2360  0.4772 -0.0855
   97MOL   O12521437   4.568   2.109   0.890 -0.1087  0.9013 -0.2187
   97MOL   C12621438   4.724   2.085   0.709  0.3209 -0.1842 -0.9028
   97MOL   C12721439   4.424   1.896   0.691 -0.1154  0.2689  0.2761
   97MOL   H12821440   4.622   1.835   0.731 -0.8994 -0.3370  0.0613
   97MOL   H12921441   4.802   2.140   0.761  1.4175 -1.4493 -1.2122
   97MOL   H13021442   4.772   2.004   0.654  1.6023 -0.6706  0.8855
   97MOL   H13121443   4.677   2.154   0.639 -1.1290  0.6223  0.8105
   97MOL   H13221444   4.375   1.990   0.714 -1.2015  0.0218 -0.9694
   97MOL   H13321445   4.354   1.819   0.724  1.6598 -1.4458  0.1933
   97MOL   C13421446   4.442   1.889   0.536 -0.1288  0.6123 -0.7146
   97MOL   C13521447   4.298   1.886   0.473 -1.0453  0.2293  0.0831
   97MOL   O13621448   4.251   1.799   0.390  0.7291 -0.8018 -0.3845
   97MOL   C13721449   4.211   2.011   0.504 -0.4704  0.2316 -0.0044
   97MOL   C13821450   4.522   1.772   0.477  0.2539  0.3602 -0.4496
   97MOL   H13921451   4.487   1.986   0.513 -2.1530  1.1735 -2.4904
   97MOL   H14021452   4.131   2.008   0.430 -1.3477 -1.8934  0.9770
   97MOL   H14121453   4.185   2.000   0.609 -0.0758 -1.5572 -0.0768
   97MOL   H14221454   4.280   2.096   0.499  0.4966 -0.4527  1.2676
   97MOL   H14321455   4.453   1.697   0.439  2.0086 -1.1781 -0.7151
   97MOL   H14421456   4.565   1.715   0.559  1.3319  0.2340 -1.0814
   97MOL   C14521457   4.625   1.820   0.358  0.1685 -0.2421 -0.5248
   97MOL   C14621458   4.546   1.854   0.229 -0.6039  0.2696  0.3136
   97MOL   O14721459   4.527   1.968   0.197  0.7583 -0.3843 -0.1097
   97MOL   C14821460   4.486   1.736   0.146 -0.6073  0.0381  0.1715
   97MOL   C14921461   4.732   1.707   0.331 -0.1121  0.2620 -0.3559
   97MOL   H15021462   4.672   1.913   0.387 -1.5462  0.3004  0.6402
   97MOL   H15121463   4.425   1.772   0.063 -0.1547  0.7577  0.1489
   97MOL   H15221464   4.564   1.685   0.090 -0.1286  0.3792  0.5192
   97MOL   H15321465   4.427   1.670   0.211  2.6993 -2.3054  0.9188
   97MOL   H15421466   4.792   1.736   0.244 -0.2511  1.0385 -0.1961
   97MOL   H15521467   4.674   1.622   0.293  1.2507 -0.1311 -1.6019
   97MOL   C15621468   4.829   1.678   0.454  0.2055 -0.1848  0.4450
   97MOL   C15721469   4.937   1.788   0.475  0.1034  0.2781 -0.4532
   97MOL   O15821470   4.956   1.866   0.389 -0.2529  0.3723 -0.2413
   97MOL   C15921471   5.006   1.794   0.602 -0.0041  0.1507  0.4788
   97MOL   C16021472   4.911   1.549   0.433 -0.7478  0.0954  0.3785
   97MOL   H16121473   4.781   1.655   0.549 -0.8591 -3.1060 -0.7521
   97MOL   H16221474   4.966   1.727   0.679  2.7538 -0.3804  1.5324
   97MOL   H16321475   5.109   1.767   0.576 -0.5014 -1.7863  0.4281
   97MOL   H16421476   5.013   1.897   0.638 -2.4826  0.5511 -0.1364
   97MOL   H16521477   4.973   1.530   0.520 -1.0019  0.8992  0.7377
   97MOL   H16621478   4.979   1.561   0.348 -0.8356 -2.0767 -0.0265
   97MOL   C16721479   4.836   1.418   0.413  0.0234  0.3950 -0.2195
   97MOL   C16821480   4.730   1.393   0.522 -0.8612 -0.4299 -0.7131
   97MOL   O16921481   4.750   1.426   0.638 -0.0535 -0.2960 -0.3509
   97MOL   C17021482   4.615   1.299   0.484  0.2302 -0.5685  0.0004
   97MOL   C17121483   4.925   1.298   0.394  0.6259 -0.1573  0.0105
   97MOL   H17221484   4.774   1.430   0.323  0.2774  2.5913 -0.1381
   97MOL   H17321485   4.592   1.234   0.569  0.5041  0.3239  0.7669
   97MOL   H17421486   4.529   1.362   0.461 -0.3657 -1.3405  0.0887
   97MOL   H17521487   4.640   1.225   0.408  1.0350  0.0090 -0.2952
   97MOL   H17621488   4.961   1.319   0.293 -0.8416 -2.3296 -1.0059
   97MOL   H17721489   4.861   1.210   0.385  2.4421 -1.6099  0.8953
   97MOL   C17821490   5.038   1.260   0.495 -0.4242 -0.5524  0.3857
   97MOL   C17921491   5.161   1.350   0.523  0.2002 -0.8108 -0.6172
   97MOL   O18021492   5.235   1.388   0.433  0.1931  0.2529 -0.2851
   97MOL   C18121493   5.184   1.389   0.668 -0.1775 -0.2543 -0.1207
   97MOL   C18221494   5.086   1.111   0.479  0.2810 -0.3253  0.2461
   97MOL   H18321495   4.980   1.267   0.588  1.3136 -1.0998  1.5321
   97MOL   H18421496   5.239   1.483   0.669 -0.3032 -0.1850  1.0630
   97MOL   H18521497   5.085   1.406   0.710 -0.3712  1.7888 -1.3705
   97MOL   H18621498   5.225   1.308   0.729  0.9794  0.8985  0.6623
   97MOL   H18721499   4.991   1.058   0.493  0.0363 -0.1258 -0.6207
   97MOL   H18821500   5.149   1.081   0.563 -1.0170 -0.3742  1.2214
   97MOL   C18921501   5.163   1.075   0.349  0.5685  0.2394  0.8193
   97MOL   C19021502   5.086   1.035   0.215  0.7533 -0.5726 -1.4686
   97MOL   O19121503   4.963   1.017   0.221 -0.1834  0.1460 -0.0842
   97MOL   C19221504   5.167   1.025   0.084 -0.2580 -0.0748 -0.4615
   97MOL   C19321505   5.273   0.970   0.376 -0.9006  0.1988 -0.2293
   97MOL   H19421506   5.210   1.171   0.328  1.9519 -0.3689  1.1025
   97MOL   H19521507   5.276   1.028   0.086 -0.2381 -0.2928 -0.9125
   97MOL   H19621508   5.143   0.924   0.049 -0.4921 -0.3555  0.4957
   97MOL   H19721509   5.136   1.097   0.008 -1.6815 -0.5254 -0.3145
   97MOL   H19821510   5.326   0.998   0.467  0.1016  1.1730 -1.0928
   97MOL   H19921511   5.353   0.986   0.304 -0.1797  0.6138  0.6438
   97MOL   C20021512   5.234   0.818   0.370 -0.0656 -0.5121 -0.1465
   97MOL   C20121513   5.113   0.788   0.465 -0.6483 -0.1069 -0.0919
   97MOL   O20221514   5.123   0.813   0.585 -0.0087  0.1393  0.4040
   97MOL   C20321515   4.984   0.715   0.415 -0.5169 -0.4250 -0.0406
   97MOL   C20421516   5.356   0.732   0.418  0.5751 -0.7840  0.1746
   97MOL   H20521517   5.202   0.793   0.269 -1.7631 -0.9651  0.4964
   97MOL   H20621518   4.910   0.786   0.378  0.0413  0.1347 -0.1028
   97MOL   H20721519   5.019   0.649   0.335 -0.3623 -0.7469  0.2950
   97MOL   H20821520   4.935   0.661   0.496  3.7699 -0.9591  2.3800
   97MOL   H20921521   5.381   0.764   0.519  2.3883  1.8514 -1.0411
   97MOL   H21021522   5.447   0.753   0.361  0.4668  1.0210  0.6553
   97MOL   C21121523   5.340   0.576   0.418  0.3753 -0.2520 -0.0465
   97MOL   C21221524   5.448   0.512   0.506 -0.2193  0.2297  0.7908
   97MOL   O21321525   5.566   0.534   0.488 -0.1630 -0.0929  0.4595
   97MOL   C21421526   5.409   0.418   0.613  0.5368  0.4663 -0.5126
   97MOL   C21521527   5.327   0.518   0.270  0.4996 -0.3680 -0.9620
   97MOL   H21621528   5.245   0.560   0.469  0.1815 -0.3064 -0.4234
   97MOL   H21721529   5.351   0.476   0.684  1.0847 -1.2902  1.4118
   97MOL   H21821530   5.364   0.324   0.580  0.6416  0.4443 -0.5939
   97MOL   H21921531   5.500   0.380   0.660  0.9303 -0.1481 -1.7337
   97MOL   H22021532   5.423   0.531   0.221  1.5691 -1.3959  0.8059
   97MOL   H22121533   5.268   0.585   0.207 -2.4579 -1.1405  0.8834
   97MOL   H22221534   5.282   0.419   0.263 -4.2450  1.4370  1.5980
   98MOL     C121535   2.800   2.597   4.754  0.2407 -0.2500 -0.5569
   98MOL     C221536   2.782   2.746   4.793  0.5353 -0.0566 -0.1516
   98MOL     O321537   2.847   2.802   4.884 -0.1304 -0.0157  0.2865
   98MOL     C421538   2.683   2.831   4.710  0.1007  0.4657  0.1115
   98MOL     C521539   2.927   2.545   4.823 -0.3468  0.0428  0.3809
   98MOL     H621540   2.706   2.548   4.779 -1.1401  2.2203 -0.7044
   98MOL     H721541   2.646   2.904   4.782 -0.8112  0.6159 -0.4971
   98MOL     H821542   2.738   2.889   4.636 -0.0160  1.4666  0.8027
   98MOL     H921543   2.594   2.784   4.668  0.3825  0.4787 -0.5071
   98MOL    H1021544   2.941   2.573   4.927 -0.0039  1.0612  0.0621
   98MOL    H1121545   3.007   2.602   4.776  1.1396 -1.1871  1.4137
   98MOL    H1221546   2.819   2.600   4.647  3.0945  3.1156 -0.0579
   98MOL    C1321547   2.955   2.391   4.800 -0.0401  0.3958 -0.1604
   98MOL    C1421548   2.840   2.302   4.855 -0.3540  0.5602  0.1375
   98MOL    O1521549   2.812   2.203   4.790  0.3965  0.1963 -0.2108
   98MOL    C1621550   2.762   2.335   4.980 -0.5116  0.0386  0.7738
   98MOL    C1721551   3.082   2.365   4.885  0.0876  0.2071 -0.4026
   98MOL    H1821552   2.970   2.385   4.692 -0.2576 -1.1740 -0.1114
   98MOL    H1921553   2.683   2.265   5.008 -1.2631  0.1555 -1.0282
   98MOL    H2021554   2.836   2.323   5.059  1.3346 -0.3082 -0.9669
   98MOL    H2121555   2.727   2.434   5.008  1.6019  1.2032 -0.5878
   98MOL    H2221556   3.047   2.381   4.986 -1.4516  4.5614 -1.4987
   98MOL    H2321557   3.156   2.442   4.862  0.9414 -0.5515 -0.2435
   98MOL    C2421558   3.149   2.230   4.866  0.2664  0.1684 -0.0612
   98MOL    C2521559   3.234   2.192   4.995 -0.1674 -0.7380 -0.4032
   98MOL    O2621560   3.299   2.272   5.062  0.3174 -0.1379  0.3133
   98MOL    C2721561   3.236   2.049   5.035 -0.2593  1.0028 -1.5632
   98MOL    C2821562   3.246   2.213   4.747  0.0656  0.4207  0.1931
   98MOL    H2921563   3.065   2.160   4.874  0.0881  0.4513  0.5302
   98MOL    H3021564   3.289   2.030   5.128 -4.3265 -1.0877  0.5091
   98MOL    H3121565   3.135   2.016   5.061  0.5064  0.3782  0.6723
   98MOL    H3221566   3.268   1.982   4.955  1.1372 -1.2041  0.7864
   98MOL    H3321567   3.308   2.125   4.765  0.9355  0.4126 -2.5579
   98MOL    H3421568   3.320   2.292   4.732 -0.9907  1.5874  1.0403
   98MOL    C3521569   3.185   2.186   4.607  0.1968  0.5944  0.0389
   98MOL    C3621570   3.092   2.060   4.605 -0.2519 -1.0180 -0.1656
   98MOL    O3721571   3.117   1.955   4.662 -0.2102  0.0218 -0.1555
   98MOL    C3821572   2.972   2.074   4.515 -0.0800  0.5902 -0.2415
   98MOL    C3921573   3.277   2.191   4.489 -0.1155 -0.3425 -0.1390
   98MOL    H4021574   3.112   2.264   4.587 -1.8985 -2.0007 -3.1164
   98MOL    H4121575   2.920   2.167   4.539 -1.6017 -0.5139  0.7966
   98MOL    H4221576   3.007   2.079   4.412 -0.8386  0.4955 -0.5023
   98MOL    H4321577   2.903   1.993   4.536 -0.1744  0.6310 -0.4031
   98MOL    H4421578   3.245   2.108   4.427 -3.0453 -0.9553  2.0787
   98MOL    H4521579   3.377   2.160   4.519  0.1811  0.9126  0.2314
   98MOL    C4621580   3.273   2.325   4.401 -0.3275 -0.1528 -0.0391
   98MOL    C4721581   3.136   2.324   4.333 -0.6040 -0.2572  0.4577
   98MOL    O4821582   3.096   2.231   4.267  0.0725  0.5947  0.8397
   98MOL    C4921583   3.042   2.442   4.349  0.5739  0.2286 -0.2049
   98MOL    C5021584   3.393   2.346   4.297 -0.0943  0.2865  0.2701
   98MOL    H5121585   3.284   2.401   4.478 -0.7239  2.4961 -2.4988
   98MOL    H5221586   2.994   2.463   4.253 -1.6843 -0.7484  0.6606
   98MOL    H5321587   2.960   2.423   4.418  0.9644 -1.4896 -0.1834
   98MOL    H5421588   3.087   2.537   4.377 -1.0032  0.7578  0.6101
   98MOL    H5521589   3.391   2.454   4.284  1.5242  0.4123  0.8652
   98MOL    H5621590   3.368   2.289   4.208 -0.7230 -0.6329  1.0328
   98MOL    C5721591   3.536   2.295   4.357 -0.5456 -0.5508 -0.8303
   98MOL    C5821592   3.576   2.393   4.465  0.1249 -0.1272 -0.3243
   98MOL    O5921593   3.587   2.513   4.445  0.1347  0.5434  0.3250
   98MOL    C6021594   3.584   2.353   4.609  0.4652 -0.1948  0.2348
   98MOL    C6121595   3.640   2.305   4.236 -0.6758  0.2959 -0.1164
   98MOL    H6221596   3.535   2.191   4.387  0.0525  0.1127  1.5467
   98MOL    H6321597   3.506   2.389   4.677  0.0660 -0.3881 -0.1156
   98MOL    H6421598   3.563   2.246   4.611  3.5930 -0.9194 -2.2855
   98MOL    H6521599   3.687   2.366   4.641  0.6430  0.5539 -0.6545
   98MOL    H6621600   3.682   2.405   4.233  0.3193 -0.1406 -1.1459
   98MOL    H6721601   3.582   2.289   4.145  1.3937 -0.6765 -1.3022
   98MOL    C6821602   3.753   2.200   4.233 -0.2215 -0.2263 -0.7027
   98MOL    C6921603   3.856   2.212   4.348  0.2245  0.1006 -0.2036
   98MOL    O7021604   3.940   2.302   4.362 -0.2259 -0.6534  0.1619
   98MOL    C7121605   3.843   2.098   4.452 -0.4887  0.0436  0.4253
   98MOL    C7221606   3.832   2.206   4.093  0.8184  0.9175 -0.0701
   98MOL    H7321607   3.708   2.101   4.232  1.6652 -1.1348  0.4578
   98MOL    H7421608   3.810   2.006   4.404 -0.4731  1.0513 -1.5950
   98MOL    H7521609   3.936   2.079   4.504 -0.4062  0.5657  0.4774
   98MOL    H7621610   3.760   2.121   4.519 -0.4510 -1.5467  1.0201
   98MOL    H7721611   3.868   2.309   4.086 -2.3794  2.1794  1.1836
   98MOL    H7821612   3.771   2.181   4.006 -0.0581  0.4130  0.6863
   98MOL    C7921613   3.954   2.113   4.071  0.4880  0.2895 -0.3423
   98MOL    C8021614   4.031   2.136   3.941  0.2262  0.3582  0.2995
   98MOL    O8121615   3.983   2.097   3.834 -0.3163  0.8239  0.1382
   98MOL    C8221616   4.175   2.181   3.948 -0.4567  0.2898  0.0220
   98MOL    C8321617   3.924   1.960   4.089  0.7123 -0.2334 -0.1690
   98MOL    H8421618   4.016   2.145   4.155 -1.4214  2.8326  0.1839
   98MOL    H8521619   4.177   2.290   3.943 -0.9581  0.3832  1.6179
   98MOL    H8621620   4.221   2.143   4.038 -1.5565 -1.2186 -0.0363
   98MOL    H8721621   4.226   2.134   3.864 -1.8960  0.3633 -0.9201
   98MOL    H8821622   3.862   1.927   4.005 -2.1255  0.3590  1.6225
   98MOL    H8921623   3.862   1.953   4.179 -0.1112 -1.3024 -0.8022
   98MOL    C9021624   4.045   1.863   4.105 -0.0069  1.1399  0.4088
   98MOL    C9121625   3.983   1.724   4.134  0.1229  0.3579  0.8868
   98MOL    O9221626   3.936   1.702   4.242  0.8628 -0.1684 -0.4755
   98MOL    C9321627   3.982   1.607   4.034 -0.1323  0.0328 -0.0825
   98MOL    C9421628   4.152   1.908   4.217  0.2222  0.2995  0.3920
   98MOL    H9521629   4.102   1.854   4.013  0.0599 -1.0995  0.6473
   98MOL    H9621630   3.888   1.554   4.052 -0.5364  0.4239 -1.0005
   98MOL    H9721631   3.976   1.647   3.933  1.4036  0.9101  0.1605
   98MOL    H9821632   4.067   1.540   4.044 -0.4736 -0.0599  2.6223
   98MOL    H9921633   4.100   1.932   4.310 -0.7727 -1.2200  0.2326
   98MOL   H10021634   4.194   2.007   4.198  0.1499 -0.1455 -2.1693
   98MOL   C10121635   4.269   1.809   4.250 -0.0886  0.5373  0.2688
   98MOL   C10221636   4.347   1.858   4.372  0.2639 -0.6588 -0.2835
   98MOL   O10321637   4.402   1.969   4.374 -0.3325 -0.3059  0.1960
   98MOL   C10421638   4.352   1.767   4.497  0.1595  0.1562  0.5029
   98MOL   C10521639   4.360   1.778   4.134  0.4778  0.1324 -0.6061
   98MOL   H10621640   4.216   1.719   4.279 -0.5675  0.2280 -1.5556
   98MOL   H10721641   4.327   1.829   4.583 -2.5134 -0.4799  0.2393
   98MOL   H10821642   4.271   1.694   4.498  1.6307 -1.5046  1.5004
   98MOL   H10921643   4.450   1.719   4.501  0.2151 -0.0687 -2.2149
   98MOL   H11021644   4.413   1.869   4.107 -0.7234  0.3738 -2.2091
   98MOL   H11121645   4.301   1.749   4.047  1.5772 -0.2222 -1.2397
   98MOL   C11221646   4.459   1.654   4.164  0.3060  0.3502 -0.1366
   98MOL   C11321647   4.589   1.661   4.078  0.3099  0.1172 -0.7796
   98MOL   O11421648   4.611   1.579   3.990 -0.2484  0.1958 -0.2035
   98MOL   C11521649   4.694   1.764   4.122  0.0136 -0.0917  0.7984
   98MOL   C11621650   4.380   1.514   4.154 -0.0234 -0.1554 -0.0841
   98MOL   H11721651   4.503   1.668   4.263  1.5348  0.6091 -0.7071
   98MOL   H11821652   4.733   1.825   4.041  1.6048 -2.1212  0.0034
   98MOL   H11921653   4.663   1.830   4.203 -0.9975 -2.9521  2.8409
   98MOL   H12021654   4.785   1.711   4.150 -0.3159  0.2515  2.5980
   98MOL   H12121655   4.405   1.460   4.063  1.5364 -0.1864  0.3503
   98MOL   H12221656   4.278   1.541   4.125  0.3589  0.4540 -0.8882
   98MOL   C12321657   4.396   1.417   4.272  0.2581  0.6179 -0.3607
   98MOL   C12421658   4.538   1.394   4.316 -0.1999 -0.3284  0.6080
   98MOL   O12521659   4.595   1.455   4.408  0.1267  0.4739  0.1141
   98MOL   C12621660   4.623   1.309   4.215 -0.8093 -0.4821  0.8540
   98MOL   C12721661   4.318   1.285   4.264 -0.0234  0.1637 -0.0468
   98MOL   H12821662   4.353   1.464   4.360 -0.1834 -1.7934  0.7687
   98MOL   H12921663   4.699   1.364   4.159 -1.0975 -0.5654  0.3756
   98MOL   H13021664   4.682   1.227   4.255 -1.7032 -2.3088 -1.4641
   98MOL   H13121665   4.567   1.251   4.141  1.2292 -0.4573 -0.7519
   98MOL   H13221666   4.347   1.214   4.342 -0.7874 -0.5549 -0.4200
   98MOL   H13321667   4.344   1.241   4.168 -1.5737 -0.5190 -0.1669
   98MOL   C13421668   4.160   1.305   4.263  0.2262  0.4351  0.0295
   98MOL   C13521669   4.102   1.344   4.397  0.2330 -0.4993 -0.1926
   98MOL   O13621670   4.143   1.289   4.504 -0.4528  0.2378  0.2821
   98MOL   C13721671   3.983   1.441   4.403 -0.0758 -0.2388 -0.3954
   98MOL   C13821672   4.068   1.192   4.201 -0.2465 -0.3279  0.3980
   98MOL   H13921673   4.142   1.388   4.196 -2.6792 -0.5696 -0.4920
   98MOL   H14021674   3.949   1.469   4.303  0.9164 -1.1497 -0.9987
   98MOL   H14121675   3.901   1.385   4.447 -0.3010 -0.3486 -0.9519
   98MOL   H14221676   4.011   1.528   4.463 -2.2146  1.1707 -1.3563
   98MOL   H14321677   4.124   1.154   4.115 -1.1486 -0.5735 -0.0873
   98MOL   H14421678   3.985   1.242   4.150  0.1056  2.9439  2.9112
   98MOL   C14521679   4.031   1.070   4.284  0.0914  0.1375  0.1845
   98MOL   C14621680   4.148   0.976   4.303 -0.0097  0.9479 -0.4188
   98MOL   O14721681   4.224   0.931   4.219 -0.2423 -0.4161  0.6876
   98MOL   C14821682   4.150   0.911   4.442 -0.2195 -0.3637  0.0478
   98MOL   C14921683   3.914   0.992   4.212 -0.8868 -0.3770 -0.5051
   98MOL   H15021684   3.999   1.106   4.382  0.5883 -0.6189  0.6282
   98MOL   H15121685   4.127   0.808   4.414 -3.1429  0.6983 -1.6055
   98MOL   H15221686   4.249   0.915   4.488 -0.3116  0.6294  0.1647
   98MOL   H15321687   4.073   0.941   4.513 -0.7714  0.1512 -0.7713
   98MOL   H15421688   3.899   0.894   4.258 -3.1034  0.6210  0.9676
   98MOL   H15521689   3.941   0.978   4.107  0.9118 -0.9732  0.0142
   98MOL   C15621690   3.775   1.053   4.217  0.0345 -0.1372 -0.0463
   98MOL   C15721691   3.721   1.075   4.359 -0.3925  0.5678  0.4128
   98MOL   O15821692   3.750   0.996   4.449  0.0495  0.0312  0.1020
   98MOL   C15921693   3.632   1.199   4.371 -0.7852 -0.5770 -0.1059
   98MOL   C16021694   3.670   0.982   4.133 -0.7376  0.2691 -0.5375
   98MOL   H16121695   3.794   1.152   4.174  2.5325 -0.2295  0.7529
   98MOL   H16221696   3.673   1.266   4.446 -3.6418  1.9314 -0.6998
   98MOL   H16321697   3.621   1.260   4.281 -0.3361 -2.4312 -1.4546
   98MOL   H16421698   3.533   1.169   4.405 -1.3023 -0.5085 -1.4887
   98MOL   H16521699   3.706   0.988   4.030  0.3663 -0.1125 -0.1844
   98MOL   H16621700   3.579   1.043   4.134  0.8466  2.6738  0.1800
   98MOL   C16721701   3.633   0.836   4.177  0.0091 -0.4084  0.1273
   98MOL   C16821702   3.730   0.723   4.129 -0.1884 -0.3072  0.5720
   98MOL   O16921703   3.753   0.706   4.011 -0.3391 -0.0135 -0.0697
   98MOL   C17021704   3.803   0.638   4.229  0.5204  0.1620  0.3452
   98MOL   C17121705   3.487   0.804   4.153  0.5530  0.1211  0.0458
   98MOL   H17221706   3.639   0.830   4.285  0.4832  0.3166  0.1483
   98MOL   H17321707   3.791   0.682   4.328 -1.6624  2.8765 -1.0705
   98MOL   H17421708   3.768   0.534   4.227 -0.3829  0.4633  0.4103
   98MOL   H17521709   3.910   0.646   4.209  0.1748 -1.0533 -2.1276
   98MOL   H17621710   3.427   0.876   4.208  1.6739 -0.3780  1.9578
   98MOL   H17721711   3.483   0.714   4.214  2.6401 -0.6357 -0.8707
   98MOL   C17821712   3.436   0.762   4.017  0.7267  0.7850  0.1509
   98MOL   C17921713   3.447   0.876   3.912 -0.5884 -0.4637  0.2096
   98MOL   O18021714   3.390   0.983   3.923  0.4831  0.3717 -0.0090
   98MOL   C18121715   3.535   0.851   3.784  0.0362  0.2543  0.7914
   98MOL   C18221716   3.285   0.706   4.022 -0.0565 -0.0829 -0.3325
   98MOL   H18321717   3.493   0.675   3.985 -1.6190 -0.6477 -0.2528
   98MOL   H18421718   3.581   0.948   3.767  0.8227 -0.2370  0.0805
   98MOL   H18521719   3.613   0.780   3.812 -0.2807  0.7649  3.0135
   98MOL   H18621720   3.481   0.823   3.693  3.5049  0.1801 -1.3043
   98MOL   H18721721   3.218   0.788   4.048  0.6506 -0.2394  2.1379
   98MOL   H18821722   3.270   0.636   4.104  1.1446  1.2030  1.0325
   98MOL   C18921723   3.236   0.645   3.885 -0.5369  0.0807 -0.3545
   98MOL   C19021724   3.084   0.652   3.870  0.4841 -0.4163 -0.4245
   98MOL   O19121725   3.018   0.550   3.877  0.6908  0.1120  0.2014
   98MOL   C19221726   3.015   0.790   3.855 -0.1226 -0.2606 -0.0697
   98MOL   C19321727   3.288   0.510   3.850 -0.3169 -0.1434 -0.6283
   98MOL   H19421728   3.275   0.712   3.808  2.4720 -0.8806  0.2616
   98MOL   H19521729   3.077   0.873   3.888  3.6703 -2.6510 -0.8594
   98MOL   H19621730   2.986   0.802   3.750 -1.6099 -3.7925 -0.1331
   98MOL   H19721731   2.913   0.778   3.891 -0.8415  0.5536 -1.7632
   98MOL   H19821732   3.236   0.437   3.913  0.1723  0.1277  0.0959
   98MOL   H19921733   3.394   0.498   3.873 -0.5451 -0.5169  0.2587
   98MOL   C20021734   3.270   0.477   3.700  0.1834  0.1599 -0.2412
   98MOL   C20121735   3.268   0.317   3.688 -0.7494 -0.2943  0.0419
   98MOL   O20221736   3.356   0.245   3.738  0.3135  0.4080 -0.1936
   98MOL   C20321737   3.158   0.259   3.607 -0.0183 -0.3065 -0.2512
   98MOL   C20421738   3.386   0.523   3.603 -0.0586  0.5539  0.1333
   98MOL   H20521739   3.174   0.508   3.660 -0.2176 -1.1163 -0.2855
   98MOL   H20621740   3.071   0.232   3.667 -0.5890  1.0168 -0.4678
   98MOL   H20721741   3.136   0.338   3.536 -1.5106 -0.7855 -0.3399
   98MOL   H20821742   3.201   0.178   3.547 -0.4967  0.7936 -2.1097
   98MOL   H20921743   3.486   0.504   3.641 -0.4974  0.0928  1.0696
   98MOL   H21021744   3.376   0.631   3.606  2.0399  0.8456 -1.7694
   98MOL   C21121745   3.376   0.476   3.454 -0.3850 -0.2779 -0.6363
   98MOL   C21221746   3.512   0.473   3.386  0.0237  0.0198 -0.4232
   98MOL   O21321747   3.578   0.369   3.384 -0.5468  0.0393 -0.2808
   98MOL   C21421748   3.565   0.610   3.337  0.5562  0.1031  0.2856
   98MOL   C21521749   3.270   0.543   3.367 -0.3726 -0.2661 -0.4035
   98MOL   H21621750   3.343   0.373   3.461  1.1487 -0.7354  0.1112
   98MOL   H21721751   3.494   0.692   3.340  0.6145  0.1386  0.7378
   98MOL   H21821752   3.651   0.655   3.386 -0.1504  0.2294  1.4065
   98MOL   H21921753   3.591   0.607   3.231 -0.0144  0.8167  0.1197
   98MOL   H22021754   3.173   0.532   3.415 -0.0816  2.1773  0.8136
   98MOL   H22121755   3.263   0.502   3.266 -3.4891 -0.9252  0.0438
   98MOL   H22221756   3.289   0.650   3.361 -0.9517 -0.1435 -0.0450
   99MOL     C121757   7.703   1.235   1.488  0.4615  0.3778 -0.0001
   99MOL     C221758   7.620   1.358   1.456 -0.0983 -0.4938 -0.1636
   99MOL     O321759   7.664   1.456   1.396 -0.4515  0.4322 -0.3247
   99MOL     C421760   7.478   1.352   1.503 -0.2248 -0.7845 -0.9172
   99MOL     C521761   7.764   1.237   1.634 -0.3966 -0.0644  0.1615
   99MOL     H621762   7.641   1.146   1.484 -0.2255  0.7940  1.1153
   99MOL     H721763   7.466   1.247   1.531 -0.4584 -1.2854 -2.8746
   99MOL     H821764   7.462   1.414   1.592 -2.1675 -1.2056 -0.9581
   99MOL     H921765   7.407   1.375   1.424  1.2886  2.0159 -1.5388
   99MOL    H1021766   7.805   1.139   1.657  0.8507  0.6682  1.1696
   99MOL    H1121767   7.680   1.237   1.703 -1.3185 -3.0004 -0.8821
   99MOL    H1221768   7.781   1.226   1.412  1.0093 -1.2790  0.7427
   99MOL    C1321769   0.028   1.347   1.668  0.7671 -0.4282  0.2215
   99MOL    C1421770   0.152   1.311   1.598 -0.7609  0.1231  0.4017
   99MOL    O1521771   0.244   1.248   1.653  0.3525  0.4937  0.9118
   99MOL    C1621772   0.169   1.353   1.450 -0.1999 -0.2020  0.0480
   99MOL    C1721773   0.058   1.385   1.818  0.3113 -0.7490 -0.4025
   99MOL    H1821774   7.821   1.437   1.629  2.9650  0.7310  0.0742
   99MOL    H1921775   0.159   1.264   1.388  2.0456 -0.3969 -0.0582
   99MOL    H2021776   0.095   1.428   1.423 -0.3668 -0.4910 -0.3059
   99MOL    H2121777   0.265   1.398   1.429 -0.8367  1.5694  0.8487
   99MOL    H2221778   0.162   1.417   1.820  0.0197  0.1763  0.4306
   99MOL    H2321779   0.064   1.291   1.874 -0.6622 -0.1629  0.7055
   99MOL    C2421780   7.813   1.498   1.878 -0.3160  0.3717 -0.1779
   99MOL    C2521781   7.660   1.478   1.873  0.3013  0.0119  0.0623
   99MOL    O2621782   7.578   1.545   1.804 -0.5079 -0.0265  0.4329
   99MOL    C2721783   7.595   1.369   1.963 -0.0547 -0.3237  0.4508
   99MOL    C2821784   0.003   1.639   1.819  0.2874  0.3525  0.0669
   99MOL    H2921785   7.829   1.500   1.985  0.3527 -2.3349 -0.1924
   99MOL    H3021786   7.647   1.386   2.057  0.6706  2.2304 -0.3722
   99MOL    H3121787   7.488   1.385   1.974 -0.0431  0.3359 -0.3106
   99MOL    H3221788   7.626   1.271   1.927 -0.9692 -1.3374  2.3914
   99MOL    H3321789   7.766   1.713   1.834  1.0682  1.5656 -1.6960
   99MOL    H3421790   0.023   1.632   1.712  0.7263  0.6686  0.1269
   99MOL    C3521791   0.130   1.706   1.872  0.4794  0.4148 -0.8746
   99MOL    C3621792   0.109   1.742   2.021  0.1691  0.3257  0.6899
   99MOL    O3721793   0.013   1.806   2.066  0.2150 -0.0827 -0.1840
   99MOL    C3821794   0.221   1.709   2.110  0.4294 -0.2147 -0.1106
   99MOL    C3921795   0.183   1.825   1.795  0.0025  0.2557  0.3115
   99MOL    H4021796   0.211   1.633   1.860  1.4574  1.1073  1.2748
   99MOL    H4121797   0.193   1.635   2.186 -0.6495 -0.4400 -0.7091
   99MOL    H4221798   0.303   1.678   2.046  1.3655  1.3443  0.3187
   99MOL    H4321799   0.246   1.807   2.149  1.6811 -0.2335 -0.8474
   99MOL    H4421800   0.246   1.883   1.862 -2.3952  2.3384  0.8419
   99MOL    H4521801   0.093   1.887   1.791  0.7727  1.4565  1.1833
   99MOL    C4621802   0.259   1.805   1.671 -0.0868  0.5520 -0.0275
   99MOL    C4721803   0.393   1.737   1.707 -0.2786 -0.2987  0.4570
   99MOL    O4821804   0.488   1.798   1.765  0.6881  0.7418 -0.1453
   99MOL    C4921805   0.402   1.588   1.677  0.4665 -0.1638  0.3878
   99MOL    C5021806   0.285   1.938   1.600  0.2107  0.4174  0.3342
   99MOL    H5121807   0.203   1.738   1.606  0.1001 -1.1642  1.5264
   99MOL    H5221808   0.301   1.549   1.669  0.9790 -0.9331 -3.1409
   99MOL    H5321809   0.450   1.562   1.583  2.8308  2.2535  0.8543
   99MOL    H5421810   0.468   1.546   1.753  2.7983  2.0871 -0.3374
   99MOL    H5521811   0.361   1.997   1.649 -1.0756  2.6835 -0.3232
   99MOL    H5621812   0.203   2.008   1.615 -0.2728  0.6231 -2.8675
   99MOL    C5721813   0.320   1.931   1.446 -0.3294  0.0468  0.0245
   99MOL    C5821814   0.198   1.865   1.374 -0.3038 -0.2234  0.3281
   99MOL    O5921815   0.203   1.752   1.329 -0.4890  0.2374  0.4453
   99MOL    C6021816   0.067   1.943   1.378 -0.2739  0.2362 -0.1854
   99MOL    C6121817   0.463   1.876   1.416 -0.6209 -0.0448 -0.1907
   99MOL    H6221818   0.333   2.032   1.407 -2.1307  1.1983  2.2367
   99MOL    H6321819   0.038   1.972   1.277  0.4408  0.3194 -0.3654
   99MOL    H6421820   7.827   1.882   1.415 -0.7701  1.1892  0.3050
   99MOL    H6521821   0.081   2.031   1.440 -1.1927  0.5180 -0.3703
   99MOL    H6621822   0.468   1.859   1.308 -0.7543  0.2338 -0.2403
   99MOL    H6721823   0.465   1.773   1.452 -0.6636  0.1244  0.2951
   99MOL    C6821824   0.584   1.948   1.478  0.8571 -0.1217 -0.4615
   99MOL    C6921825   0.590   2.086   1.426  0.5217  0.0232 -0.0874
   99MOL    O7021826   0.672   2.108   1.337 -0.3835  0.7834 -0.1611
   99MOL    C7121827   0.526   2.199   1.502  0.0142  0.1041  0.2421
   99MOL    C7221828   0.710   1.857   1.449  0.2191 -0.1413  0.7007
   99MOL    H7321829   0.567   1.965   1.585  0.1566  1.1300 -0.7683
   99MOL    H7421830   0.517   2.172   1.608 -1.7292 -1.5143 -0.3022
   99MOL    H7521831   0.597   2.282   1.511  0.1358  0.2327 -1.7452
   99MOL    H7621832   0.433   2.229   1.455 -0.8811 -1.2785  1.1092
   99MOL    H7721833   0.796   1.924   1.440  1.2702 -1.3664  1.4218
   99MOL    H7821834   0.706   1.817   1.348 -0.6128 -1.0255  1.0688
   99MOL    C7921835   0.748   1.754   1.558 -0.2310 -0.4690  1.1223
   99MOL    C8021836   0.818   1.820   1.686 -0.3783  0.3382  1.1228
   99MOL    O8121837   0.886   1.922   1.674  0.3358 -0.3956 -0.1883
   99MOL    C8221838   0.812   1.743   1.815 -0.6664  0.7107 -0.0255
   99MOL    C8321839   0.839   1.639   1.503  0.1300  0.7232  0.2205
   99MOL    H8421840   0.656   1.710   1.596 -0.8255  0.6487  0.9830
   99MOL    H8521841   0.774   1.641   1.812  1.8006 -0.2574  0.6139
   99MOL    H8621842   0.915   1.720   1.841 -0.0048 -0.0534 -3.0948
   99MOL    H8721843   0.761   1.796   1.895 -1.6223 -0.8826  0.4536
   99MOL    H8821844   0.918   1.625   1.577 -0.4034  0.9331  0.8352
   99MOL    H8921845   0.892   1.665   1.411  2.3215  2.6488  1.9506
   99MOL    C9021846   0.757   1.509   1.476  0.7823  0.1502 -0.3149
   99MOL    C9121847   0.733   1.432   1.605 -0.2793 -0.5294  0.1110
   99MOL    O9221848   0.816   1.432   1.699  0.4325  0.4152  1.3029
   99MOL    C9321849   0.613   1.333   1.609 -0.3675 -0.2701  0.3568
   99MOL    C9421850   0.814   1.407   1.378 -0.6398 -0.0970 -0.1575
   99MOL    H9521851   0.656   1.537   1.447 -0.6992 -1.7366  2.8235
   99MOL    H9621852   0.573   1.321   1.710  1.0290 -0.6775  0.8645
   99MOL    H9721853   0.533   1.367   1.543 -1.2421 -0.2171  1.4092
   99MOL    H9821854   0.653   1.239   1.570 -2.9297 -0.6808 -1.4032
   99MOL    H9921855   0.816   1.462   1.284  0.5278 -1.9278 -1.2476
   99MOL   H10021856   0.736   1.331   1.368 -2.0582  1.5115 -1.7764
   99MOL   C10121857   0.955   1.345   1.407  0.3403 -0.3666 -0.0659
   99MOL   C10221858   1.078   1.445   1.408  0.5905  0.9782 -0.1904
   99MOL   O10321859   1.098   1.529   1.327 -1.0197  0.4259  0.0336
   99MOL   C10421860   1.181   1.420   1.523  0.5602  0.0458  0.1530
   99MOL   C10521861   0.979   1.227   1.310  0.0106  0.2387  0.4253
   99MOL   H10621862   0.946   1.300   1.506  0.6581  2.1490  1.1450
   99MOL   H10721863   1.138   1.329   1.566 -1.7994  0.0452 -2.0607
   99MOL   H10821864   1.286   1.411   1.494  0.6136  0.9199  0.0751
   99MOL   H10921865   1.182   1.497   1.600 -1.3568 -0.0046  0.2620
   99MOL   H11021866   1.086   1.219   1.294 -0.0153 -0.0651  0.3960
   99MOL   H11121867   0.925   1.264   1.223 -1.1392 -1.3093  0.4555
   99MOL   C11221868   0.924   1.095   1.359 -0.7346  0.0343  0.0140
   99MOL   C11321869   0.973   1.050   1.500  0.6591 -0.1458 -0.4095
   99MOL   O11421870   1.075   1.101   1.553 -0.4692 -0.0454 -0.0942
   99MOL   C11521871   0.901   0.937   1.573  0.1796 -0.5242  0.1254
   99MOL   C11621872   0.980   0.993   1.258  0.9094  0.1579 -0.4761
   99MOL   H11721873   0.816   1.090   1.353 -0.7064 -2.4788  0.8914
   99MOL   H11821874   0.814   0.971   1.629  0.2944 -1.1937  0.7209
   99MOL   H11921875   0.849   0.872   1.503 -1.2330 -0.3513  0.9993
   99MOL   H12021876   0.956   0.883   1.650  0.0677  2.1304  2.1513
   99MOL   H12121877   0.925   0.900   1.274 -0.3449  0.9431 -0.0938
   99MOL   H12221878   1.082   0.977   1.291 -0.3021 -2.2008  2.3694
   99MOL   C12321879   0.966   1.012   1.103 -0.4667  0.4523  0.2418
   99MOL   C12421880   0.816   1.023   1.065 -0.7766  0.0987  0.0286
   99MOL   O12521881   0.730   0.947   1.110 -0.0993 -0.6449 -0.4967
   99MOL   C12621882   0.783   1.140   0.978  0.1327 -0.0764  0.5479
   99MOL   C12721883   1.026   0.882   1.030 -0.1105  0.1135  0.3478
   99MOL   H12821884   1.018   1.103   1.073  1.4088  0.2841  2.8336
   99MOL   H12921885   0.778   1.215   1.057  0.7304 -0.2388  0.7465
   99MOL   H13021886   0.867   1.173   0.916  0.5778 -1.4264  0.4161
   99MOL   H13121887   0.698   1.117   0.914 -0.5793  1.9528  0.7470
   99MOL   H13221888   0.944   0.817   1.000 -1.4021  2.1821 -0.7290
   99MOL   H13321889   1.095   0.818   1.085  0.6457  1.3098  0.8112
   99MOL   C13421890   1.102   0.917   0.900  0.1404 -0.3900  0.2890
   99MOL   C13521891   1.126   0.789   0.811  0.0990 -1.0102 -0.4889
   99MOL   O13621892   1.169   0.691   0.864 -0.1481  0.8220  0.6791
   99MOL   C13721893   1.089   0.815   0.666  0.5192 -0.0466 -0.1711
   99MOL   C13821894   1.247   0.984   0.930  0.2551  0.6091 -0.0363
   99MOL   H13921895   1.041   0.984   0.839  1.8905  1.4537  0.5101
   99MOL   H14021896   0.980   0.821   0.668  0.5008 -0.3770 -0.0340
   99MOL   H14121897   1.136   0.897   0.612  0.0911  0.1879 -0.1838
   99MOL   H14221898   1.111   0.730   0.601 -2.3758 -2.8768  2.3930
   99MOL   H14321899   1.327   0.927   0.883 -0.2262 -0.4348  0.3893
   99MOL   H14421900   1.278   0.963   1.032 -0.5790 -0.5877 -0.0164
   99MOL   C14521901   1.254   1.135   0.906 -0.5121 -0.0838  0.1622
   99MOL   C14621902   1.292   1.170   0.770  0.0073 -0.1152  0.2314
   99MOL   O14721903   1.210   1.202   0.684 -0.4331  0.2764 -0.0373
   99MOL   C14821904   1.437   1.188   0.731 -0.1660 -0.4120 -0.1767
   99MOL   C14921905   1.339   1.206   1.023  0.5035 -0.1388 -0.5790
   99MOL   H15021906   1.154   1.178   0.916 -0.2115  0.7800 -0.4727
   99MOL   H15121907   1.463   1.116   0.654  0.2694  0.2060 -0.6083
   99MOL   H15221908   1.445   1.289   0.690  1.4566 -1.1173 -1.6388
   99MOL   H15321909   1.500   1.180   0.820 -0.4610  0.6341  0.1421
   99MOL   H15421910   1.435   1.154   1.024  0.4369 -0.3785  4.1130
   99MOL   H15521911   1.300   1.176   1.120 -1.4429  4.4178  0.1710
   99MOL   C15621912   1.358   1.358   1.013  0.1771 -0.4578  0.5367
   99MOL   C15721913   1.442   1.404   1.127 -0.1506  0.2384  0.1553
   99MOL   O15821914   1.418   1.369   1.243 -0.4327 -0.0229 -0.6951
   99MOL   C15921915   1.554   1.510   1.096  0.0933 -0.4554 -1.1246
   99MOL   C16021916   1.223   1.434   0.998  0.3536  0.7218  0.1924
   99MOL   H16121917   1.413   1.372   0.920 -0.1227  1.7508  0.6663
   99MOL   H16221918   1.508   1.608   1.095  0.8494 -0.0772  0.3106
   99MOL   H16321919   1.634   1.512   1.169 -1.1622  1.0080  0.2423
   99MOL   H16421920   1.593   1.500   0.994  0.2361  0.4271 -1.1533
   99MOL   H16521921   1.163   1.425   1.088 -1.8063  0.8474 -1.1828
   99MOL   H16621922   1.165   1.385   0.920  2.2145 -3.3035  1.2370
   99MOL   C16721923   1.227   1.595   0.987  0.0765 -0.0403  0.2471
   99MOL   C16821924   1.089   1.660   0.991 -1.0375  0.3301 -0.8019
   99MOL   O16921925   1.008   1.640   0.905 -0.1747 -0.4479 -0.1130
   99MOL   C17021926   1.059   1.759   1.105  0.5470  0.0999  0.2928
   99MOL   C17121927   1.297   1.631   0.852 -0.2454  0.4768  0.6419
   99MOL   H17221928   1.285   1.613   1.078  0.8195 -0.1836 -0.1902
   99MOL   H17321929   0.952   1.756   1.122  0.7804  0.1953  1.8666
   99MOL   H17421930   1.116   1.740   1.197 -0.4440  4.0163  1.7973
   99MOL   H17521931   1.083   1.862   1.078  0.6396 -0.2010 -0.8079
   99MOL   H17621932   1.247   1.574   0.774 -2.0858  1.0417  1.3924
   99MOL   H17721933   1.398   1.589   0.853 -0.6456 -0.5058  2.7645
   99MOL   C17821934   1.313   1.778   0.809  0.7004 -0.0858 -0.3442
   99MOL   C17921935   1.211   1.834   0.708 -0.0068 -0.5271  0.2101
   99MOL   O18021936   1.185   1.767   0.613  0.3572 -0.0288 -1.0411
   99MOL   C18121937   1.138   1.957   0.734  0.1276 -0.0065 -0.2132
   99MOL   C18221938   1.452   1.829   0.767 -0.1173 -0.8061  0.4488
   99MOL   H18321939   1.280   1.831   0.899  0.7002 -1.2310  0.3324
   99MOL   H18421940   1.046   1.955   0.676  0.1211 -0.1049 -0.1993
   99MOL   H18521941   1.119   1.957   0.841  0.8152  0.1827 -0.0921
   99MOL   H18621942   1.196   2.038   0.690  1.4640 -0.8256  0.0105
   99MOL   H18721943   1.531   1.785   0.828  1.5664  2.4235  0.7013
   99MOL   H18821944   1.460   1.937   0.781  1.3109 -0.9080  0.4315
   99MOL   C18921945   1.499   1.809   0.617 -0.4567 -0.8739  0.2344
   99MOL   C19021946   1.493   1.665   0.573 -0.2192 -0.1279  0.2772
   99MOL   O19121947   1.547   1.571   0.634 -0.1701 -0.3516  0.2537
   99MOL   C19221948   1.444   1.649   0.434  0.8510  0.0277  0.2426
   99MOL   C19321949   1.632   1.891   0.588  0.1617  0.5069 -0.1035
   99MOL   H19421950   1.422   1.850   0.552  0.4643 -1.5469 -1.3184
   99MOL   H19521951   1.526   1.686   0.372  0.8533 -2.1147 -1.0933
   99MOL   H19621952   1.441   1.541   0.427  2.7715  0.0483 -1.3931
   99MOL   H19721953   1.348   1.699   0.418  1.5656  1.6432  0.8275
   99MOL   H19821954   1.714   1.820   0.595 -0.8691 -0.6541  0.2833
   99MOL   H19921955   1.645   1.974   0.658 -0.0481 -0.3092  0.9062
   99MOL   C20021956   1.617   1.959   0.457 -0.0146  0.0308  0.2350
   99MOL   C20121957   1.753   1.994   0.397  0.0669  0.3858  0.1330
   99MOL   O20221958   1.787   1.940   0.295  0.6756 -0.3794 -0.0838
   99MOL   C20321959   1.823   2.124   0.447 -0.2066  0.0011  0.2787
   99MOL   C20421960   1.514   2.081   0.461 -0.3465 -0.3328 -0.3045
   99MOL   H20521961   1.569   1.904   0.377 -1.7101  1.8244 -0.0157
   99MOL   H20621962   1.763   2.210   0.417  2.7589  2.6490  1.7205
   99MOL   H20721963   1.817   2.120   0.556  1.0642 -1.5216  0.3123
   99MOL   H20821964   1.921   2.140   0.403 -0.2375 -0.5323  0.0028
   99MOL   H20921965   1.544   2.160   0.529  1.1133 -0.1300 -1.1520
   99MOL   H21021966   1.414   2.051   0.492 -0.0451 -0.6374  0.3869
   99MOL   C21121967   1.503   2.151   0.320 -0.6086 -0.0363  0.2271
   99MOL   C21221968   1.428   2.288   0.333  0.3228  0.4627  0.0952
   99MOL   O21321969   1.394   2.330   0.441 -0.0113  0.4686 -0.8081
   99MOL   C21421970   1.387   2.372   0.204  0.1061  0.5981 -0.0481
   99MOL   C21521971   1.438   2.059   0.213 -0.1364 -0.1590 -0.9209
   99MOL   H21621972   1.601   2.180   0.282 -1.6394  2.0568 -0.9371
   99MOL   H21721973   1.472   2.379   0.137  0.3230  0.8045  0.2462
   99MOL   H21821974   1.299   2.326   0.160 -0.1114 -0.7938  1.7664
   99MOL   H21921975   1.353   2.465   0.251 -2.9257  0.2666 -1.5294
   99MOL   H22021976   1.370   1.994   0.269  0.4987  0.9232  1.1649
   99MOL   H22121977   1.521   2.003   0.170  0.0718 -0.4225 -0.1810
   99MOL   H22221978   1.393   2.106   0.126 -2.9483 -0.5055  0.2671
  100MOL     C121979   6.485   5.939   4.444  0.3969  0.3571  0.0990
  100MOL     C221980   6.588   6.048   4.444 -0.7970  0.0791  0.1652
  100MOL     O321981   6.584   6.158   4.388 -0.6159 -0.4245 -0.7333
  100MOL     C421982   6.697   6.022   4.547  0.4178  0.2473 -0.1732
  100MOL     C521983   6.350   5.976   4.379 -0.2481  0.4423  0.4612
  100MOL     H621984   6.532   5.848   4.407 -0.1749  0.3296 -0.5800
  100MOL     H721985   6.705   5.914   4.556 -0.3409  0.2232  0.2103
  100MOL     H821986   6.790   6.073   4.519  0.0896  1.2684  0.5339
  100MOL     H921987   6.662   6.059   4.644  1.0375 -0.0537  0.1702
  100MOL    H1021988   6.373   6.010   4.278  0.8103  0.1402  0.5958
  100MOL    H1121989   6.296   6.054   4.433  1.6292  0.2206  2.7189
  100MOL    H1221990   6.452   5.913   4.544 -0.0438 -3.1110 -0.9032
  100MOL    C1321991   6.254   5.850   4.371 -0.6279  0.9906 -0.2583
  100MOL    C1421992   6.112   5.891   4.323  0.3668 -0.4865  0.5896
  100MOL    O1521993   6.067   5.981   4.391  0.8179 -0.2633  0.3736
  100MOL    C1621994   6.033   5.820   4.211 -0.1871  0.0671  0.3367
  100MOL    C1721995   6.237   5.782   4.505  0.4222 -0.5447  0.3668
  100MOL    H1821996   6.303   5.790   4.294  1.2281  1.2280  0.7124
  100MOL    H1921997   6.092   5.829   4.119 -1.0363  1.1990 -0.1088
  100MOL    H2021998   6.017   5.716   4.240 -0.6106 -0.2241 -0.9139
  100MOL    H2121999   5.937   5.870   4.199  0.3142  0.6246 -1.5376
  100MOL    H2222000   6.232   5.848   4.592  0.3541  1.0144 -0.7983
  100MOL    H2322001   6.325   5.729   4.540  0.3076 -1.1153 -0.2101
  100MOL    C2422002   6.146   5.659   4.505 -0.1933 -0.1696 -0.5821
  100MOL    C2522003   6.046   5.671   4.620  0.5568  0.1793 -0.2249
  100MOL    O2622004   6.061   5.756   4.715 -0.3691  1.0987 -0.1475
  100MOL    C2722005   5.921   5.577   4.638  0.2098  0.2665  0.2674
  100MOL    C2822006   6.215   5.517   4.495  0.0469 -0.1727  0.4992
  100MOL    H2922007   6.067   5.672   4.431 -1.3025  0.5982  0.7241
  100MOL    H3022008   5.933   5.473   4.607 -2.6513 -0.2069  0.5284
  100MOL    H3122009   5.872   5.577   4.736 -3.2024 -1.4704 -1.3385
  100MOL    H3222010   5.843   5.610   4.569 -0.4272 -2.6843 -0.4985
  100MOL    H3322011   6.137   5.440   4.499 -1.1700  0.7364 -3.4811
  100MOL    H3422012   6.257   5.498   4.593  0.0506 -1.3052  0.2916
  100MOL    C3522013   6.301   5.489   4.369 -0.3269 -0.2392 -0.1242
  100MOL    C3622014   6.216   5.483   4.244 -0.0439 -0.8388  0.2282
  100MOL    O3722015   6.232   5.562   4.151  0.1465  0.0323 -0.0352
  100MOL    C3822016   6.125   5.366   4.222 -0.4643 -0.5827  0.0861
  100MOL    C3922017   6.379   5.353   4.388 -0.3875 -0.1111 -0.0969
  100MOL    H4022018   6.369   5.573   4.363 -1.3379  0.6116  0.1653
  100MOL    H4122019   6.171   5.280   4.174  1.1605  0.6519 -0.6308
  100MOL    H4222020   6.061   5.341   4.306  0.5754  0.4390  1.1861
  100MOL    H4322021   6.052   5.401   4.148  0.8399  1.5673 -0.2457
  100MOL    H4422022   6.416   5.303   4.299 -0.1172 -2.1218  1.1185
  100MOL    H4522023   6.316   5.276   4.433 -0.9694 -0.8277 -2.0990
  100MOL    C4622024   6.502   5.359   4.474  0.0172 -0.6492 -0.3583
  100MOL    C4722025   6.596   5.483   4.450 -0.7741  0.2734  0.1005
  100MOL    O4822026   6.631   5.555   4.541 -0.4108 -0.3620 -0.4249
  100MOL    C4922027   6.646   5.502   4.308 -0.4766 -0.1512  0.1251
  100MOL    C5022028   6.575   5.214   4.466  0.6000  0.0206 -0.2890
  100MOL    H5122029   6.465   5.370   4.576  0.5730 -1.5998 -0.0475
  100MOL    H5222030   6.689   5.410   4.268 -1.6230  0.3198 -2.2676
  100MOL    H5322031   6.562   5.535   4.248  0.2381  0.2039 -0.6852
  100MOL    H5422032   6.729   5.570   4.292  0.1661 -0.8114  0.5939
  100MOL    H5522033   6.625   5.195   4.371 -0.5041  3.0832 -1.5436
  100MOL    H5622034   6.493   5.143   4.479  1.5711 -0.7322  1.9287
  100MOL    C5722035   6.671   5.185   4.586  0.6670  0.7653 -0.0845
  100MOL    C5822036   6.804   5.250   4.575 -0.4339  0.2179 -0.3100
  100MOL    O5922037   6.845   5.320   4.667  0.2045 -0.2708 -0.2482
  100MOL    C6022038   6.884   5.242   4.439 -0.2308 -0.1064  0.3497
  100MOL    C6122039   6.685   5.037   4.616 -0.2385  0.3868  0.3078
  100MOL    H6222040   6.634   5.226   4.680  1.4534  1.0193  0.1205
  100MOL    H6322041   6.900   5.135   4.419  0.8911  0.1085  0.0544
  100MOL    H6422042   6.818   5.288   4.365  0.3034  1.0500  0.5845
  100MOL    H6522043   6.985   5.284   4.434  0.8045 -2.5254 -0.1503
  100MOL    H6622044   6.786   5.005   4.592  0.0167  0.0107  1.8303
  100MOL    H6722045   6.628   4.973   4.549 -1.3862  0.9527  0.7297
  100MOL    C6822046   6.653   4.992   4.761 -0.0601 -0.3988  0.2840
  100MOL    C6922047   6.501   4.988   4.793 -0.1986 -0.2886  0.1867
  100MOL    O7022048   6.454   5.064   4.880 -0.5308 -0.2121  0.2521
  100MOL    C7122049   6.420   4.884   4.721 -0.1007 -0.2162 -0.4048
  100MOL    C7222050   6.725   5.056   4.882 -0.5275 -0.3886 -0.0014
  100MOL    H7322051   6.683   4.887   4.761 -0.4723 -0.5470 -1.5490
  100MOL    H7422052   6.474   4.793   4.745 -0.2999 -0.8634 -2.2708
  100MOL    H7522053   6.328   4.881   4.780  0.1459 -0.0679 -0.0157
  100MOL    H7622054   6.403   4.886   4.613 -1.4280 -1.3382 -0.2436
  100MOL    H7722055   6.695   5.005   4.974  0.6301  0.0347  0.6186
  100MOL    H7822056   6.684   5.155   4.901 -0.0144  0.1858 -1.7797
  100MOL    C7922057   6.878   5.052   4.870  0.3015 -0.8003 -0.3209
  100MOL    C8022058   6.925   4.909   4.896 -0.0392 -0.4272 -0.0481
  100MOL    O8122059   6.901   4.855   5.002  0.7885  0.3967 -0.5616
  100MOL    C8222060   7.006   4.828   4.796  0.4040  0.0223  0.3051
  100MOL    C8322061   6.948   5.146   4.972 -0.9217  0.1302 -0.2112
  100MOL    H8422062   6.904   5.073   4.767  3.4848 -0.7943  0.4297
  100MOL    H8522063   6.948   4.776   4.720  1.5544 -2.4668  1.0914
  100MOL    H8622064   7.090   4.888   4.761  1.1432 -1.5967 -0.7327
  100MOL    H8722065   7.041   4.745   4.856  1.0450  1.5318  2.0712
  100MOL    H8822066   6.935   5.122   5.077 -0.3477  2.7145  0.4683
  100MOL    H8922067   6.897   5.242   4.971 -1.5067 -0.1740  0.0562
  100MOL    C9022068   7.101   5.170   4.950 -0.4355  0.3292 -0.3739
  100MOL    C9122069   7.188   5.158   5.083 -0.4972  0.2199 -0.5570
  100MOL    O9222070   7.222   5.262   5.140 -0.0765 -0.3006 -0.1086
  100MOL    C9322071   7.202   5.015   5.142 -1.5299  0.4792  0.6674
  100MOL    C9422072   7.120   5.311   4.882  0.2865  0.6378  0.1286
  100MOL    H9522073   7.141   5.101   4.876  0.8724  0.1818  0.4565
  100MOL    H9622074   7.269   5.019   5.229  0.6018  2.8027 -1.0140
  100MOL    H9722075   7.102   4.982   5.172 -1.6367 -1.7524 -1.9443
  100MOL    H9822076   7.232   4.936   5.073 -0.5314  1.9334 -0.6031
  100MOL    H9922077   7.093   5.385   4.958 -5.0481 -1.8378  0.8604
  100MOL   H10022078   7.040   5.323   4.808  1.5990  1.5686 -1.1601
  100MOL   C10122079   7.257   5.359   4.834 -0.1652 -0.2729 -1.0836
  100MOL   C10222080   7.267   5.516   4.839  0.1944 -0.2796 -0.2831
  100MOL   O10322081   7.166   5.590   4.830  0.0060  0.3234 -0.0097
  100MOL   C10422082   7.408   5.579   4.842 -0.5066 -0.0444  0.1487
  100MOL   C10522083   7.297   5.311   4.688  0.0741 -0.4581  0.4411
  100MOL   H10622084   7.338   5.314   4.892 -0.0519  0.5494 -0.5970
  100MOL   H10722085   7.447   5.589   4.740  1.5991  1.0424  1.0373
  100MOL   H10822086   7.413   5.676   4.891 -1.5204  1.4334 -2.5327
  100MOL   H10922087   7.478   5.514   4.894  1.0960  1.0831 -0.5484
  100MOL   H11022088   7.372   5.377   4.645 -0.9581 -0.4809 -1.4111
  100MOL   H11122089   7.205   5.335   4.635 -0.8725 -0.9486  1.8160
  100MOL   C11222090   7.330   5.156   4.662 -0.4735  0.1856 -0.2963
  100MOL   C11322091   7.436   5.100   4.761 -0.0098  0.1676  0.1816
  100MOL   O11422092   7.412   5.006   4.836  0.6851 -0.2829 -0.6281
  100MOL   C11522093   7.574   5.173   4.762  0.3386  0.0092  0.1158
  100MOL   C11622094   7.381   5.142   4.516  0.4094 -0.1846 -0.0113
  100MOL   H11722095   7.245   5.098   4.698 -0.2945 -0.4339 -0.8497
  100MOL   H11822096   7.577   5.247   4.843 -0.7802 -1.3502  1.4261
  100MOL   H11922097   7.648   5.094   4.771 -0.8540 -1.3021 -1.2809
  100MOL   H12022098   7.609   5.233   4.678  3.6764  1.3817  2.3880
  100MOL   H12122099   7.487   5.165   4.505  0.6591 -0.2878  1.9878
  100MOL   H12222100   7.326   5.217   4.459 -0.3602 -1.4681 -1.0088
  100MOL   C12322101   7.356   5.006   4.449 -0.5577 -0.2370 -0.2808
  100MOL   C12422102   7.203   4.992   4.422  0.2482 -0.8144  0.4027
  100MOL   O12522103   7.136   4.908   4.477  0.2215 -0.0952 -0.0709
  100MOL   C12622104   7.141   5.078   4.310  0.2478 -0.1534 -0.6125
  100MOL   C12722105   7.438   4.889   4.503  0.2230  0.1820  0.0879
  100MOL   H12822106   7.399   5.015   4.349  2.0292 -2.0775  0.6135
  100MOL   H12922107   7.033   5.060   4.306 -0.0469  1.3539 -0.0232
  100MOL   H13022108   7.152   5.185   4.331 -0.9177  0.0468 -0.9700
  100MOL   H13122109   7.187   5.067   4.212  1.8327 -1.7956  0.2883
  100MOL   H13222110   7.410   4.883   4.608 -0.1406 -0.5798 -0.0498
  100MOL   H13322111   7.543   4.916   4.514  0.2186  0.1048  0.3204
  100MOL   C13422112   7.432   4.747   4.427 -0.1823  0.2242  0.3448
  100MOL   C13522113   7.503   4.647   4.516 -0.0030 -0.1215  0.2392
  100MOL   O13622114   7.614   4.609   4.488  0.4015  0.1767 -0.2241
  100MOL   C13722115   7.434   4.608   4.648 -1.0075  0.9995  0.0315
  100MOL   C13822116   7.497   4.761   4.287  0.6781 -0.4210 -0.4991
  100MOL   H13922117   7.329   4.713   4.418  0.1037 -0.0496 -2.2213
  100MOL   H14022118   7.458   4.504   4.668 -1.3257  0.5561 -1.7514
  100MOL   H14122119   7.476   4.669   4.728 -0.3382 -0.0915  0.5204
  100MOL   H14222120   7.327   4.620   4.630 -0.8684  0.2883 -1.3302
  100MOL   H14322121   7.599   4.795   4.301 -0.5011  2.9242  0.2796
  100MOL   H14422122   7.446   4.839   4.231 -0.6178  0.0135  1.2427
  100MOL   C14522123   7.504   4.627   4.200 -0.3115 -0.0764  0.0635
  100MOL   C14622124   7.625   4.640   4.104 -0.7779 -0.3204  0.2942
  100MOL   O14722125   7.609   4.671   3.987  0.0339 -0.4584 -0.3628
  100MOL   C14822126   7.765   4.615   4.164 -0.4556  0.2198  0.0244
  100MOL   C14922127   7.369   4.610   4.130  0.1169 -0.0417 -0.5024
  100MOL   H15022128   7.525   4.535   4.255 -0.0026  0.0751  0.2012
  100MOL   H15122129   7.800   4.523   4.117  1.4213 -0.6880  3.1054
  100MOL   H15222130   7.823   4.701   4.130 -1.4903  1.4933  1.4325
  100MOL   H15322131   7.751   4.606   4.272 -3.8236  1.0465 -0.2687
  100MOL   H15422132   7.355   4.700   4.070  1.1430  0.5107  0.0597
  100MOL   H15522133   7.289   4.613   4.204 -1.6831 -1.2835 -2.3542
  100MOL   C15622134   7.343   4.496   4.028  0.2595 -0.0013  1.0897
  100MOL   C15722135   7.199   4.512   3.957 -1.4930  0.5608 -0.1190
  100MOL   O15822136   7.111   4.588   4.001 -0.0021 -0.3612  0.1636
  100MOL   C15922137   7.178   4.429   3.830 -1.2276  0.5855  0.1154
  100MOL   C16022138   7.344   4.359   4.102 -0.3947 -0.1450  0.1835
  100MOL   H16122139   7.412   4.516   3.946  0.4861  0.8981  1.4943
  100MOL   H16222140   7.216   4.329   3.848 -1.4836  0.6018  0.7453
  100MOL   H16322141   7.073   4.436   3.802 -0.9789  0.5801 -0.8181
  100MOL   H16422142   7.238   4.475   3.751 -2.0991  1.8602  0.1743
  100MOL   H16522143   7.267   4.294   4.060  0.8042 -2.6343  1.7384
  100MOL   H16622144   7.302   4.394   4.196 -0.0267 -1.0381  0.6877
  100MOL   C16722145   7.481   4.283   4.098 -0.4186 -0.5859 -0.2658
  100MOL   C16822146   7.545   4.269   3.955  0.3916 -0.3069 -0.1108
  100MOL   O16922147   7.476   4.287   3.855  0.3057  0.3100  0.8995
  100MOL   C17022148   7.684   4.226   3.944 -0.0278 -0.0623 -0.5313
  100MOL   C17122149   7.463   4.143   4.165 -1.0021 -0.1941 -0.1850
  100MOL   H17222150   7.557   4.337   4.156 -0.7150  0.9573 -1.2721
  100MOL   H17322151   7.719   4.194   3.846 -0.0865 -0.1731 -0.5168
  100MOL   H17422152   7.749   4.313   3.955  0.8127 -0.6349 -0.8936
  100MOL   H17522153   7.725   4.153   4.014  2.1465  0.4216 -1.2509
  100MOL   H17622154   7.543   4.074   4.138 -0.1751  0.5865  0.2383
  100MOL   H17722155   7.382   4.084   4.123 -0.2729 -0.9777 -0.4975
  100MOL   C17822156   7.451   4.147   4.322 -0.0571 -0.3816 -0.0547
  100MOL   C17922157   7.583   4.205   4.380  0.0304 -0.4892  0.1290
  100MOL   O18022158   7.686   4.209   4.316  0.1588  0.1839 -0.2867
  100MOL   C18122159   7.572   4.265   4.516 -0.4874 -0.2963  0.2971
  100MOL   C18222160   7.420   4.011   4.383 -0.0709  0.3738  0.2096
  100MOL   H18322161   7.371   4.217   4.345 -1.1284 -1.3610 -0.7120
  100MOL   H18422162   7.531   4.365   4.499 -0.8698 -0.4933  0.0655
  100MOL   H18522163   7.518   4.211   4.594  1.0788 -0.1685  1.4853
  100MOL   H18622164   7.670   4.277   4.562 -1.8876  2.3071  2.7899
  100MOL   H18722165   7.513   3.959   4.408 -0.2733 -0.3062 -0.4277
  100MOL   H18822166   7.373   3.955   4.303  1.3611  1.5327 -1.4890
  100MOL   C18922167   7.327   4.011   4.503  0.5461  0.5450  0.4226
  100MOL   C19022168   7.346   3.892   4.592 -0.3026 -0.1170 -0.8895
  100MOL   O19122169   7.271   3.800   4.607  0.1900  0.8943 -0.2351
  100MOL   C19222170   7.468   3.897   4.681 -0.2591  0.4148  0.2564
  100MOL   C19322171   7.175   4.035   4.470  1.0805  0.2700  0.9359
  100MOL   H19422172   7.359   4.102   4.553 -1.3483  0.8690  1.0921
  100MOL   H19522173   7.453   3.842   4.774  1.6491 -0.3641  0.1305
  100MOL   H19622174   7.554   3.865   4.623 -1.0688  1.1815 -1.3870
  100MOL   H19722175   7.494   3.992   4.728 -0.6463  0.3942  0.5166
  100MOL   H19822176   7.167   4.135   4.428 -1.8709 -0.0313  0.6734
  100MOL   H19922177   7.113   4.039   4.559 -0.2372 -0.2621  0.0683
  100MOL   C20022178   7.121   3.942   4.354 -0.4436 -0.0644  0.1152
  100MOL   C20122179   7.119   3.994   4.208  0.3580 -1.0127 -0.8096
  100MOL   O20222180   7.101   4.109   4.181 -0.0146 -0.0323 -0.4120
  100MOL   C20322181   7.168   3.901   4.096 -0.3244 -0.0457 -0.1955
  100MOL   C20422182   6.986   3.877   4.398  0.7575  0.2577  0.3506
  100MOL   H20522183   7.184   3.854   4.344 -1.6760 -1.3531  3.1017
  100MOL   H20622184   7.272   3.920   4.069  0.3387 -3.7765 -0.6075
  100MOL   H20722185   7.164   3.798   4.132 -2.5437 -0.3473 -1.2454
  100MOL   H20822186   7.101   3.904   4.011 -0.4346  0.7461 -0.0798
  100MOL   H20922187   6.904   3.936   4.356 -0.1928  0.2966  2.2274
  100MOL   H21022188   6.974   3.904   4.502  1.4288  0.7881  0.2983
  100MOL   C21122189   6.985   3.725   4.384 -0.0374 -0.1451  0.1032
  100MOL   C21222190   6.939   3.672   4.246 -0.8051  0.6000  0.1448
  100MOL   O21322191   6.846   3.726   4.193  0.2592 -0.4410  0.0400
  100MOL   C21422192   7.006   3.544   4.193 -0.4803  0.3703 -0.6840
  100MOL   C21522193   6.887   3.674   4.494  0.3268  0.3015  0.4881
  100MOL   H21622194   7.083   3.685   4.410 -0.4255 -0.9268  0.3709
  100MOL   H21722195   7.019   3.559   4.086  2.4625  2.2387 -0.1050
  100MOL   H21822196   7.107   3.552   4.232 -1.3272  1.3025  1.3937
  100MOL   H21922197   6.962   3.446   4.215 -0.0625 -0.0889 -1.8536
  100MOL   H22022198   6.885   3.717   4.595 -3.6543 -0.0678  0.6188
  100MOL   H22122199   6.901   3.567   4.510 -1.0628 -0.5988 -3.7396
  100MOL   H22222200   6.787   3.690   4.454  0.3159 -0.9001  0.0215
  101MOL     C122201   0.725   4.970   7.016  0.3321 -0.2448 -0.1067
  101MOL     C222202   0.610   5.068   7.026  0.3517 -0.7101  0.1436
  101MOL     O322203   0.556   5.117   6.925 -0.5479  0.1746 -0.2052
  101MOL     C422204   0.539   5.087   7.159  1.5139  0.4912  0.0619
  101MOL     C522205   0.695   4.857   6.916 -0.1508 -0.3019  0.0863
  101MOL     H622206   0.815   5.024   6.986  0.2057 -0.0280 -0.1020
  101MOL     H722207   0.564   5.015   7.236 -0.9607  0.8587  1.2562
  101MOL     H822208   0.564   5.178   7.213  0.0728 -0.2496  2.0290
  101MOL     H922209   0.432   5.078   7.139  0.6735  0.2847  4.2588
  101MOL    H1022210   0.772   4.779   6.916 -0.6584 -0.8025  0.6299
  101MOL    H1122211   0.702   4.888   6.812  0.9344 -2.5887 -0.5699
  101MOL    H1222212   0.763   4.929   7.109  0.9678  0.9115  0.1520
  101MOL    C1322213   0.571   4.764   6.937 -0.6729 -0.0411  0.5023
  101MOL    C1422214   0.569   4.693   7.079 -0.0446 -0.3157 -0.3509
  101MOL    O1522215   0.609   4.579   7.086 -0.1703  0.1586 -0.3692
  101MOL    C1622216   0.497   4.765   7.187  0.0142 -0.3123 -0.8660
  101MOL    C1722217   0.536   4.677   6.814  0.9863 -0.6146  0.1280
  101MOL    H1822218   0.485   4.829   6.955 -0.5254  0.9259 -2.0182
  101MOL    H1922219   0.561   4.786   7.272 -0.2248 -1.4514 -0.4065
  101MOL    H2022220   0.451   4.859   7.153 -3.0971 -1.9315 -1.3322
  101MOL    H2122221   0.416   4.703   7.227 -0.4811  0.2602 -0.9630
  101MOL    H2222222   0.598   4.587   6.817 -0.0796 -1.5296 -2.9915
  101MOL    H2322223   0.564   4.719   6.718 -0.2780  0.1479  0.0781
  101MOL    C2422224   0.388   4.623   6.811 -0.2835 -0.3254  0.2602
  101MOL    C2522225   0.393   4.489   6.734 -0.5476 -0.0692  0.2545
  101MOL    O2622226   0.404   4.487   6.613 -0.0339  0.4761 -0.6002
  101MOL    C2722227   0.391   4.363   6.807 -0.4764  0.7168 -1.2941
  101MOL    C2822228   0.286   4.723   6.755 -0.4191  0.2049  0.0087
  101MOL    H2922229   0.369   4.600   6.916 -0.8670 -4.2657 -0.6052
  101MOL    H3022230   0.398   4.386   6.913  0.4529  0.0498 -1.2058
  101MOL    H3122231   0.300   4.308   6.785 -0.8592  1.2968 -1.1545
  101MOL    H3222232   0.472   4.297   6.775 -1.5295 -0.5371 -1.4291
  101MOL    H3322233   0.307   4.718   6.648 -2.3478  0.6036 -0.4181
  101MOL    H3422234   0.307   4.828   6.776 -0.6475  0.0333  1.1469
  101MOL    C3522235   0.131   4.709   6.797  0.5464 -0.6831 -0.6825
  101MOL    C3622236   0.107   4.716   6.948  0.5228  0.0135  0.1645
  101MOL    O3722237   0.086   4.613   7.017 -0.0153  0.4868  0.2058
  101MOL    C3822238   0.109   4.857   7.001 -0.7169  0.2689 -0.1559
  101MOL    C3922239   0.068   4.580   6.728  0.0895  0.2172  0.5920
  101MOL    H4022240   0.080   4.800   6.766 -1.2445 -0.9406  1.3886
  101MOL    H4122241   0.035   4.916   6.947 -0.6241  0.4195 -0.1205
  101MOL    H4222242   0.099   4.854   7.109  2.1969 -0.5950  0.1432
  101MOL    H4322243   0.212   4.888   6.981 -0.6044  0.3608  0.5606
  101MOL    H4422244   7.812   4.566   6.772  1.3640 -0.0652  3.4200
  101MOL    H4522245   0.130   4.494   6.756  0.8986  0.6518  0.1531
  101MOL    C4622246   0.062   4.581   6.575 -0.3095 -0.4157  0.5711
  101MOL    C4722247   7.803   4.681   6.525 -0.1208 -0.6009 -0.0658
  101MOL    O4822248   7.696   4.692   6.585 -0.0238 -0.1305  0.1105
  101MOL    C4922249   7.833   4.760   6.399  0.2423  0.2192 -0.0938
  101MOL    C5022250   0.034   4.439   6.512  0.9198  0.0814  0.8312
  101MOL    H5122251   0.163   4.609   6.546 -0.1895 -1.4043 -0.0039
  101MOL    H5222252   0.098   4.769   6.379  0.6415  1.3074  2.3395
  101MOL    H5322253   7.791   4.713   6.310 -0.3389  3.4122 -1.5875
  101MOL    H5422254   7.780   4.855   6.403  0.2733  0.1788  1.5996
  101MOL    H5522255   7.772   4.412   6.528 -0.0451  1.7560 -2.2556
  101MOL    H5622256   0.090   4.364   6.568 -2.8202 -2.6782  1.0503
  101MOL    C5722257   0.064   4.428   6.358  0.0625  0.4422 -0.6473
  101MOL    C5822258   0.014   4.291   6.300  0.8661  0.0010 -0.3304
  101MOL    O5922259   0.040   4.184   6.351  0.7877 -0.4845  0.0247
  101MOL    C6022260   7.778   4.296   6.177 -0.1794  0.0385 -0.1874
  101MOL    C6122261   0.211   4.446   6.320 -0.1036 -0.1434 -0.3217
  101MOL    H6222262   7.841   4.504   6.314  0.3446  0.2435 -1.4236
  101MOL    H6322263   7.746   4.198   6.142 -1.6307 -0.1251  1.5276
  101MOL    H6422264   7.692   4.358   6.200 -0.1787 -0.5097  1.3811
  101MOL    H6522265   7.827   4.339   6.090 -0.0740  0.1075 -0.0945
  101MOL    H6622266   0.272   4.369   6.366  1.6701  1.0642 -0.6167
  101MOL    H6722267   0.247   4.543   6.355  1.4204 -1.5648  2.2392
  101MOL    C6822268   0.260   4.446   6.177 -0.3651  0.7303  0.2681
  101MOL    C6922269   0.414   4.455   6.172 -0.4973 -0.3380 -0.0015
  101MOL    O7022270   0.461   4.567   6.185  0.0802  0.0567 -0.0818
  101MOL    C7122271   0.493   4.328   6.167 -0.0196  0.6672 -0.2591
  101MOL    C7222272   0.196   4.573   6.106  0.3478 -0.2315 -0.2629
  101MOL    H7322273   0.223   4.354   6.131 -0.6615  0.9954 -0.0267
  101MOL    H7422274   0.597   4.358   6.174 -0.0493  0.4016  1.7275
  101MOL    H7522275   0.477   4.270   6.258 -0.9762  0.9217 -0.2571
  101MOL    H7622276   0.478   4.284   6.069 -1.6563  0.3213  0.1396
  101MOL    H7722277   0.224   4.668   6.153 -3.3151  1.4845 -1.3979
  101MOL    H7822278   0.088   4.573   6.115  0.1644  2.2687 -1.9786
  101MOL    C7922279   0.230   4.580   5.955  0.4324  0.2604 -0.0127
  101MOL    C8022280   0.217   4.729   5.896 -0.0239  0.1529 -0.2871
  101MOL    O8122281   0.123   4.770   5.834 -0.5632 -0.0702  0.2180
  101MOL    C8222282   0.332   4.835   5.922  0.1831  0.0738 -0.6817
  101MOL    C8322283   0.159   4.473   5.865  0.1549 -0.2321 -1.1526
  101MOL    H8422284   0.338   4.569   5.949  0.1933 -1.0536 -2.5448
  101MOL    H8522285   0.334   4.884   5.824 -0.9378  2.6288  0.5410
  101MOL    H8622286   0.306   4.892   6.011  3.5706 -0.9989  1.0936
  101MOL    H8722287   0.420   4.774   5.942  0.4091  0.5334 -0.2682
  101MOL    H8822288   0.075   4.514   5.809 -1.4814  0.6184  1.8213
  101MOL    H8922289   0.128   4.390   5.929  0.0118  0.5999 -0.1344
  101MOL    C9022290   0.240   4.416   5.744  0.3081  0.3907 -0.4363
  101MOL    C9122291   0.343   4.321   5.798  0.1537 -0.3147 -0.0479
  101MOL    O9222292   0.446   4.357   5.841  0.6745  1.0777 -0.3000
  101MOL    C9322293   0.300   4.173   5.817 -0.1710  0.4581 -0.3483
  101MOL    C9422294   0.311   4.513   5.648  0.2259  0.5189 -0.2589
  101MOL    H9522295   0.169   4.348   5.696 -0.1383  1.1395 -0.8414
  101MOL    H9622296   0.321   4.113   5.729  1.3817  1.9378 -1.0041
  101MOL    H9722297   0.361   4.124   5.893 -2.8691 -3.1398 -0.3873
  101MOL    H9822298   0.193   4.151   5.824 -0.0460  0.2055  0.9363
  101MOL    H9922299   0.388   4.477   5.580  0.9999 -1.6324  1.6839
  101MOL   H10022300   0.365   4.578   5.716  0.9527  0.1071 -0.4400
  101MOL   C10122301   0.221   4.605   5.555  0.3321  0.5590  0.7713
  101MOL   C10222302   0.134   4.529   5.459 -0.2719 -0.6184 -0.7377
  101MOL   O10322303   0.183   4.492   5.354  0.1301  0.4263 -0.2607
  101MOL   C10422304   7.830   4.505   5.505 -0.0459  0.5041  0.4483
  101MOL   C10522305   0.302   4.712   5.482 -0.2419 -0.4427 -0.8918
  101MOL   H10622306   0.154   4.657   5.623 -1.0037  0.6641 -0.6168
  101MOL   H10722307   7.754   4.575   5.470 -0.9884 -0.3145  0.8366
  101MOL   H10822308   7.799   4.407   5.468 -0.4654  0.2391  1.4792
  101MOL   H10922309   7.812   4.501   5.613  2.1143 -0.6277  0.7777
  101MOL   H11022310   0.375   4.671   5.412  1.3440  1.0288 -0.1412
  101MOL   H11122311   0.364   4.759   5.558 -0.6838  1.2759 -1.5694
  101MOL   C11222312   0.221   4.828   5.419 -0.3377 -0.6033 -0.5454
  101MOL   C11322313   0.313   4.909   5.327 -0.2484  0.4644  0.2587
  101MOL   O11422314   0.413   4.958   5.381  0.1538 -0.1754  0.5517
  101MOL   C11522315   0.284   4.908   5.182 -0.1631 -0.1473  0.4754
  101MOL   C11622316   0.164   4.918   5.531 -0.2777  0.1308 -0.2237
  101MOL   H11722317   0.142   4.778   5.363 -0.2860 -0.3283 -0.8611
  101MOL   H11822318   0.298   4.810   5.138  2.9991  0.3759  0.1954
  101MOL   H11922319   0.185   4.949   5.162 -0.4959 -0.0838  2.1821
  101MOL   H12022320   0.353   4.979   5.135  0.3245 -0.7963  0.2065
  101MOL   H12122321   0.252   4.931   5.594 -0.5816  2.8597 -0.3268
  101MOL   H12222322   0.090   4.869   5.594  0.1203  2.0395  1.7734
  101MOL   C12322323   0.099   5.055   5.491 -0.3790  0.7958  0.0083
  101MOL   C12422324   0.043   5.119   5.622 -0.2907  0.1285  0.0504
  101MOL   O12522325   7.770   5.149   5.636  0.1975 -0.2576  0.4128
  101MOL   C12622326   0.131   5.135   5.748  0.5344 -0.5381  0.4758
  101MOL   C12722327   0.000   5.050   5.381  0.0655  0.2896 -0.3537
  101MOL   H12822328   0.173   5.130   5.463 -1.2848  0.6982 -2.7916
  101MOL   H12922329   0.131   5.034   5.789 -1.0345 -0.6474  0.2179
  101MOL   H13022330   0.233   5.157   5.716  0.3959 -1.6091 -0.7288
  101MOL   H13122331   0.097   5.209   5.820 -1.0688 -0.2520 -0.5447
  101MOL   H13222332   7.764   4.978   5.404  0.4777  0.4033  1.4626
  101MOL   H13322333   0.048   5.007   5.293 -0.9486 -0.3723 -0.5880
  101MOL   C13422334   7.777   5.187   5.326 -0.4589  0.6044 -0.4138
  101MOL   C13522335   7.669   5.161   5.216  0.4264 -0.5508 -0.6909
  101MOL   O13622336   7.692   5.165   5.097  0.7699 -0.2241 -0.0236
  101MOL   C13722337   7.535   5.114   5.267 -0.9590  0.4927 -0.1698
  101MOL   C13822338   0.042   5.286   5.290  0.2932  0.5882 -0.4736
  101MOL   H13922339   7.724   5.240   5.405  1.3160 -0.7538  1.7660
  101MOL   H14022340   7.538   5.044   5.350  0.7785 -0.6171 -1.1416
  101MOL   H14122341   7.491   5.208   5.301  0.1321  1.3576 -1.0870
  101MOL   H14222342   7.475   5.080   5.183 -1.7711  3.4548 -0.8526
  101MOL   H14322343   0.108   5.236   5.219  0.0508 -1.6760  0.8391
  101MOL   H14422344   0.103   5.301   5.380  2.0989 -2.7187 -1.0671
  101MOL   C14522345   7.837   5.424   5.228  0.4244 -0.1124  0.0217
  101MOL   C14622346   0.094   5.500   5.137  0.3141  0.0289  0.0629
  101MOL   O14722347   0.218   5.490   5.155 -0.0334 -0.0855 -0.3370
  101MOL   C14822348   0.042   5.581   5.018  0.1286  0.0565 -0.7386
  101MOL   C14922349   7.790   5.514   5.340  0.0485 -0.3869  0.6782
  101MOL   H15022350   7.755   5.405   5.160  1.8379  0.6509 -1.9418
  101MOL   H15122351   0.089   5.545   4.927  0.7927  1.8224 -1.1006
  101MOL   H15222352   7.777   5.561   5.017  0.0929  0.0630  0.9474
  101MOL   H15322353   0.055   5.688   5.026 -0.0163  0.1172 -1.3370
  101MOL   H15422354   7.716   5.456   5.393 -0.5702 -1.2721 -1.1187
  101MOL   H15522355   7.730   5.599   5.305  0.8041  0.4697  1.4266
  101MOL   C15622356   0.042   5.573   5.442  0.7925  0.0881 -0.7288
  101MOL   C15722357   7.827   5.563   5.580  0.2997 -0.3380 -0.2036
  101MOL   O15822358   7.715   5.599   5.611  0.2195 -0.2448 -0.1969
  101MOL   C15922359   0.065   5.496   5.690 -0.0511  0.1360  0.0745
  101MOL   C16022360   0.082   5.719   5.413  0.1965 -1.2618  0.3264
  101MOL   H16122361   0.121   5.498   5.444 -0.3929 -1.1423  0.9959
  101MOL   H16222362   7.833   5.428   5.732 -1.7101  1.0133 -1.3342
  101MOL   H16322363   0.144   5.438   5.643  0.1038  0.4705 -0.0861
  101MOL   H16422364   0.093   5.574   5.761  0.2510 -1.0872  1.3041
  101MOL   H16522365   7.831   5.776   5.406  0.7986 -0.4450 -1.3509
  101MOL   H16622366   0.108   5.727   5.308 -0.9105 -0.0759  0.1273
  101MOL   C16722367   0.188   5.793   5.509  0.4178 -0.2191  0.2544
  101MOL   C16822368   0.181   5.944   5.486  0.9828  0.0950  0.2892
  101MOL   O16922369   0.187   5.986   5.370  0.4397  0.3727 -0.5714
  101MOL   C17022370   0.171   6.032   5.608  0.2822 -0.0331 -0.0444
  101MOL   C17122371   0.336   5.737   5.486 -0.6931  0.0248 -0.5505
  101MOL   H17222372   0.162   5.776   5.614 -0.3945 -1.9639 -0.2037
  101MOL   H17322373   0.263   6.085   5.632 -0.6705  1.8052 -0.3350
  101MOL   H17422374   0.079   6.091   5.612 -0.4665 -1.0953 -1.2724
  101MOL   H17522375   0.172   5.968   5.695  0.2541 -1.2603 -0.9340
  101MOL   H17622376   0.407   5.819   5.473  0.6178 -1.0719 -0.2693
  101MOL   H17722377   0.328   5.688   5.389  0.8192  0.4560 -0.9065
  101MOL   C17822378   0.393   5.653   5.596 -0.0652  0.3573 -0.5366
  101MOL   C17922379   0.418   5.736   5.725  0.4212 -0.0786 -0.0512
  101MOL   O18022380   0.431   5.857   5.722 -0.5817  0.1923  0.0112
  101MOL   C18122381   0.431   5.656   5.856  0.2686  0.6707  0.0976
  101MOL   C18222382   0.526   5.582   5.550  0.4498 -0.0326  0.0038
  101MOL   H18322383   0.320   5.574   5.613 -0.5839  0.2142 -3.2417
  101MOL   H18422384   0.429   5.728   5.937 -1.2963  2.3010 -1.3461
  101MOL   H18522385   0.340   5.597   5.869  0.0289  0.6690 -1.4868
  101MOL   H18622386   0.521   5.596   5.867  0.2388  0.6408  0.1760
  101MOL   H18722387   0.573   5.539   5.639 -0.0455 -1.5231 -0.4515
  101MOL   H18822388   0.591   5.663   5.515  0.9311 -0.3745  0.0985
  101MOL   C18922389   0.520   5.484   5.428 -0.5809  0.2063  0.1559
  101MOL   C19022390   0.421   5.361   5.431  0.6728 -0.1503 -0.5668
  101MOL   O19122391   0.376   5.319   5.534 -0.0262 -0.0498 -0.1509
  101MOL   C19222392   0.404   5.278   5.307  0.0694 -0.2002 -0.7981
  101MOL   C19322393   0.668   5.446   5.383  0.5166  1.4740  0.3015
  101MOL   H19422394   0.480   5.544   5.346 -1.2384 -1.5627 -0.8644
  101MOL   H19522395   0.412   5.341   5.218 -0.4610  1.0496  0.0252
  101MOL   H19622396   0.474   5.196   5.323 -1.0102 -1.2581 -1.4271
  101MOL   H19722397   0.313   5.219   5.299  1.1328 -1.9888  0.0990
  101MOL   H19822398   0.673   5.337   5.388 -2.7678  1.2452 -0.2488
  101MOL   H19922399   0.740   5.476   5.459  3.7328 -0.3461 -1.9070
  101MOL   C20022400   0.710   5.508   5.248 -0.1274  0.4226  0.3724
  101MOL   C20122401   0.725   5.662   5.264 -0.3058  0.5499  1.0683
  101MOL   O20222402   0.632   5.739   5.284 -0.6757 -0.2828  0.2927
  101MOL   C20322403   0.858   5.717   5.224 -0.6740 -0.1584  0.4347
  101MOL   C20422404   0.613   5.477   5.127  0.0345 -0.7012  0.0665
  101MOL   H20522405   0.808   5.466   5.225  0.1082  0.9796  0.3469
  101MOL   H20622406   0.909   5.757   5.311  0.0873 -1.0844  0.4197
  101MOL   H20722407   0.921   5.636   5.187  2.0485 -0.3830  5.1693
  101MOL   H20822408   0.836   5.794   5.150 -2.5134 -0.1169  1.0064
  101MOL   H20922409   0.512   5.519   5.137  0.4306  0.9309 -2.1459
  101MOL   H21022410   0.605   5.369   5.121  0.2004 -0.5739 -4.2739
  101MOL   C21122411   0.671   5.517   4.990  0.1673  0.2994  0.4917
  101MOL   C21222412   0.578   5.497   4.872  0.2424 -0.2117 -0.8092
  101MOL   O21322413   0.603   5.536   4.762 -0.4969 -0.1534  0.0838
  101MOL   C21422414   0.441   5.437   4.899 -0.3699  0.0996  0.0704
  101MOL   C21522415   0.807   5.452   4.961  0.4878  0.4111 -0.1041
  101MOL   H21622416   0.679   5.626   4.988  0.8749  0.2356 -0.0259
  101MOL   H21722417   0.362   5.505   4.932 -0.9405 -0.9998  1.0176
  101MOL   H21822418   0.410   5.397   4.803  0.3033 -1.7282  0.5984
  101MOL   H21922419   0.447   5.352   4.968  1.2314  1.3349  1.5084
  101MOL   H22022420   0.823   5.407   4.863  1.0979  0.4229 -0.0108
  101MOL   H22122421   0.828   5.372   5.031 -1.2755 -1.5052 -1.6853
  101MOL   H22222422   0.883   5.530   4.962 -0.4678  1.3825 -0.9258
  102MOL     C122423   2.973   4.035   6.789  0.0391 -0.0977 -0.2681
  102MOL     C222424   2.892   4.069   6.915 -0.2613 -0.0069 -0.4857
  102MOL     O322425   2.773   4.097   6.911  0.1656  0.3624  1.2976
  102MOL     C422426   2.968   4.091   7.041  0.3637  0.4708  0.0788
  102MOL     C522427   2.901   3.934   6.698 -0.1251  0.1766  0.3883
  102MOL     H622428   2.990   4.124   6.729 -1.5364  2.4148  2.8269
  102MOL     H722429   3.076   4.088   7.028  0.2136 -0.1234 -1.0664
  102MOL     H822430   2.951   4.195   7.069 -0.9023  0.3700 -0.3114
  102MOL     H922431   2.939   4.024   7.122 -1.8204  0.4630 -0.6702
  102MOL    H1022432   2.818   3.987   6.652  1.4414  1.9915 -0.4377
  102MOL    H1122433   2.851   3.853   6.752 -0.4023  0.0630 -0.0387
  102MOL    H1222434   3.067   3.990   6.819  0.3283 -0.2060 -1.3585
  102MOL    C1322435   2.990   3.872   6.591  0.9125  0.5765 -0.1294
  102MOL    C1422436   3.083   3.758   6.636 -0.1593  0.5202 -0.4180
  102MOL    O1522437   3.165   3.779   6.721  0.3600  0.0995  0.1145
  102MOL    C1622438   3.085   3.611   6.574  0.4113 -0.1829  0.3044
  102MOL    C1722439   3.071   3.969   6.493 -0.3783  0.0132 -0.9858
  102MOL    H1822440   2.921   3.816   6.528  1.2728  2.2072 -2.0145
  102MOL    H1922441   3.149   3.617   6.486 -0.2986  0.3336 -0.1832
  102MOL    H2022442   3.129   3.550   6.653 -0.2818  2.0815  2.5063
  102MOL    H2122443   2.980   3.584   6.565  1.1255 -2.4126 -1.6990
  102MOL    H2222444   3.131   3.909   6.425  0.5519  1.0243 -1.0819
  102MOL    H2322445   3.150   4.010   6.556 -0.1993 -2.5514  0.4861
  102MOL    C2422446   2.987   4.075   6.420 -0.6794 -0.0220 -0.3748
  102MOL    C2522447   2.931   4.007   6.299  0.5912 -0.4666 -0.3739
  102MOL    O2622448   2.999   3.932   6.230 -0.4571  0.4804 -0.2887
  102MOL    C2722449   2.789   4.044   6.258  0.9245 -0.3022  0.4886
  102MOL    C2822450   3.075   4.200   6.382  0.2849 -0.5765 -0.0464
  102MOL    H2922451   2.906   4.098   6.488  1.1144 -1.9401  2.5396
  102MOL    H3022452   2.777   4.021   6.152 -1.0849 -2.1213  1.0789
  102MOL    H3122453   2.726   3.984   6.323 -1.5018 -1.2679 -2.6471
  102MOL    H3222454   2.775   4.152   6.256 -0.2928 -0.4667 -0.8072
  102MOL    H3322455   3.140   4.174   6.299  0.7647  2.1061 -0.5403
  102MOL    H3422456   3.140   4.224   6.466 -2.0940  0.5782  1.5451
  102MOL    C3522457   3.007   4.334   6.338 -0.6473 -0.4687 -0.8554
  102MOL    C3622458   3.104   4.420   6.261 -0.2884 -0.3933  0.6404
  102MOL    O3722459   3.200   4.467   6.322  0.3393 -1.0770 -0.4005
  102MOL    C3822460   3.092   4.438   6.113 -0.3237  0.1906 -0.5686
  102MOL    C3922461   2.961   4.400   6.472  0.4424 -0.3603  0.2123
  102MOL    H4022462   2.921   4.307   6.278 -1.1395  1.0429 -0.8318
  102MOL    H4122463   2.991   4.409   6.084 -0.7881 -1.4949  2.5293
  102MOL    H4222464   3.116   4.543   6.092  1.6311  0.0340  0.6500
  102MOL    H4322465   3.165   4.376   6.061 -1.8453 -0.7375 -1.6215
  102MOL    H4422466   3.041   4.443   6.533 -1.2176  0.2272  1.9974
  102MOL    H4522467   2.916   4.313   6.520  0.5950 -0.3248  0.4239
  102MOL    C4622468   2.869   4.521   6.438  0.3851  0.0476 -0.3428
  102MOL    C4722469   2.864   4.626   6.548  0.6254 -0.2076  0.2044
  102MOL    O4822470   2.852   4.597   6.667 -0.2615 -0.1289  0.1635
  102MOL    C4922471   2.861   4.770   6.507  0.1413  0.0453 -0.1103
  102MOL    C5022472   2.728   4.485   6.378 -0.1381 -0.6663 -0.5697
  102MOL    H5122473   2.912   4.575   6.354  0.9232 -2.1029 -1.4832
  102MOL    H5222474   2.819   4.766   6.406 -0.0565 -2.8531  0.0402
  102MOL    H5322475   2.800   4.831   6.573 -0.7929  1.7278 -2.4512
  102MOL    H5422476   2.962   4.809   6.512  0.8105 -1.3760 -1.8811
  102MOL    H5522477   2.738   4.429   6.286  1.5674 -1.1606 -0.1113
  102MOL    H5622478   2.696   4.582   6.338 -0.0289 -0.1440  0.5656
  102MOL    C5722479   2.614   4.437   6.466 -0.0060  0.4444 -0.2251
  102MOL    C5822480   2.655   4.315   6.546 -0.4193  0.3798  0.7843
  102MOL    O5922481   2.681   4.207   6.491 -0.1960 -0.2762  0.3822
  102MOL    C6022482   2.650   4.324   6.697 -0.0547 -0.2356 -0.5468
  102MOL    C6122483   2.491   4.411   6.379 -0.4103 -0.9098 -0.0968
  102MOL    H6222484   2.591   4.518   6.535  1.0623  0.7491 -0.2189
  102MOL    H6322485   2.732   4.266   6.741  0.6458  1.0635 -0.1255
  102MOL    H6422486   2.642   4.417   6.752 -0.6361 -0.5958 -0.0187
  102MOL    H6522487   2.558   4.268   6.712  1.5685 -2.8762  0.0530
  102MOL    H6622488   2.506   4.330   6.308  0.5331 -2.0900  1.4168
  102MOL    H6722489   2.478   4.497   6.314 -0.3722 -0.0988  0.9569
  102MOL    C6822490   2.352   4.390   6.450 -0.6154 -0.5064  0.1942
  102MOL    C6922491   2.312   4.241   6.444 -0.1304  0.0417 -0.3807
  102MOL    O7022492   2.280   4.182   6.347 -0.0728  0.5505  0.1089
  102MOL    C7122493   2.328   4.157   6.576  0.1378  0.5236  0.5938
  102MOL    C7222494   2.244   4.468   6.370 -0.2867 -0.5294 -0.1165
  102MOL    H7322495   2.372   4.413   6.555  0.3973 -1.2571  0.1732
  102MOL    H7422496   2.241   4.091   6.580 -1.3297  2.2669 -1.4284
  102MOL    H7522497   2.419   4.098   6.563  1.8530  2.4752  3.0637
  102MOL    H7622498   2.327   4.221   6.665 -3.5628  0.0198  0.9772
  102MOL    H7722499   2.235   4.437   6.266  2.2909 -2.5081  0.2114
  102MOL    H7822500   2.275   4.572   6.365 -0.9749 -0.2553  1.0847
  102MOL    C7922501   2.102   4.465   6.447 -0.0185 -0.4382 -0.0585
  102MOL    C8022502   1.999   4.543   6.360  0.3741 -0.5786 -0.4659
  102MOL    O8122503   1.998   4.665   6.357  0.0261  0.1470 -0.2210
  102MOL    C8222504   1.899   4.467   6.277  0.4615  0.2693  0.2894
  102MOL    C8322505   2.109   4.518   6.596  0.6525 -0.4348  0.2186
  102MOL    H8422506   2.069   4.362   6.433  0.5120 -0.6875  0.4796
  102MOL    H8522507   1.867   4.534   6.198 -0.9787 -2.8895 -1.9021
  102MOL    H8622508   1.955   4.381   6.239 -1.2123 -0.6893 -0.0705
  102MOL    H8722509   1.823   4.424   6.342  0.4594 -0.0219  0.0952
  102MOL    H8822510   2.174   4.460   6.662  0.5373 -1.1056 -0.2441
  102MOL    H8922511   2.007   4.502   6.632  0.7154  0.7399  0.9359
  102MOL    C9022512   2.144   4.661   6.629  0.4099  0.1600 -0.0337
  102MOL    C9122513   2.285   4.704   6.598 -0.5177 -0.3571  0.9948
  102MOL    O9222514   2.383   4.657   6.651  0.1399 -0.1783 -0.9076
  102MOL    C9322515   2.295   4.817   6.497  0.7993  0.3051  0.1341
  102MOL    C9422516   2.095   4.695   6.771  0.2512 -0.2996  0.6192
  102MOL    H9522517   2.079   4.725   6.570 -0.7814  0.6018  1.7180
  102MOL    H9622518   2.245   4.791   6.404 -0.6481  2.0058  0.4230
  102MOL    H9722519   2.287   4.912   6.549  0.0122 -0.5097  1.5331
  102MOL    H9822520   2.404   4.814   6.487  0.8032  0.3926  0.1511
  102MOL    H9922521   1.988   4.681   6.783 -0.6510  6.1059  1.7094
  102MOL   H10022522   2.090   4.803   6.772 -2.7531 -0.4129  2.7099
  102MOL   C10122523   2.182   4.644   6.893 -0.5712 -0.0052 -0.0852
  102MOL   C10222524   2.130   4.511   6.952 -0.0726 -0.5116  0.5240
  102MOL   O10322525   2.010   4.495   6.978 -0.4056 -0.6307  0.0187
  102MOL   C10422526   2.218   4.390   6.968 -0.5516  0.0939 -0.5780
  102MOL   C10522527   2.190   4.737   7.018  0.0591 -0.2278  0.3044
  102MOL   H10622528   2.285   4.638   6.858 -0.7554 -1.8656 -0.3449
  102MOL   H10722529   2.283   4.381   6.881 -1.1899 -0.6090 -0.9909
  102MOL   H10822530   2.269   4.398   7.064  0.6459 -2.1258 -1.0125
  102MOL   H10922531   2.153   4.303   6.973  1.0946 -1.2583 -1.9149
  102MOL   H11022532   2.103   4.725   7.083 -0.6607  0.7503 -0.4681
  102MOL   H11122533   2.187   4.842   6.990  2.0511  0.0325  1.0537
  102MOL   C11222534   2.321   4.729   7.099  0.1571 -0.9869 -0.4326
  102MOL   C11322535   2.316   4.820   7.232 -0.0519 -1.0173 -0.2859
  102MOL   O11422536   2.356   4.934   7.229 -0.4456 -0.3914 -0.2664
  102MOL   C11522537   2.253   4.763   7.354  0.2328  0.2382 -0.5535
  102MOL   C11622538   2.443   4.770   7.011  0.1621  0.4832 -0.3293
  102MOL   H11722539   2.331   4.626   7.132  1.1916 -0.5065  0.8371
  102MOL   H11822540   2.166   4.819   7.387 -0.4393 -1.4491  0.6355
  102MOL   H11922541   2.211   4.663   7.338 -1.0644  0.8071 -0.7261
  102MOL   H12022542   2.320   4.751   7.439 -0.3981 -0.0924 -0.0953
  102MOL   H12122543   2.447   4.879   7.001  0.5284  0.4636 -0.3957
  102MOL   H12222544   2.452   4.740   6.906  0.0362  3.6113 -1.2967
  102MOL   C12322545   2.587   4.745   7.070 -0.0102  0.7666 -0.8006
  102MOL   C12422546   2.697   4.833   7.005 -0.1955  0.2094  0.4698
  102MOL   O12522547   2.773   4.897   7.069 -0.0292  0.0663  0.5172
  102MOL   C12622548   2.703   4.843   6.859 -0.0693  0.0086  0.0377
  102MOL   C12722549   2.623   4.592   7.073 -0.8522 -0.3742  0.4235
  102MOL   H12822550   2.587   4.773   7.175  2.7630 -0.5747 -0.3855
  102MOL   H12922551   2.785   4.781   6.822  0.6860  1.6128 -1.0727
  102MOL   H13022552   2.606   4.825   6.811 -0.7777 -2.0691  2.1774
  102MOL   H13122553   2.740   4.941   6.827 -0.6609 -0.6304 -2.7645
  102MOL   H13222554   2.708   4.590   7.005 -1.5053  0.5087 -0.4308
  102MOL   H13322555   2.551   4.519   7.036  0.4385  0.3410 -3.6757
  102MOL   C13422556   2.674   4.540   7.209 -0.3637  0.0670 -0.3944
  102MOL   C13522557   2.551   4.508   7.298 -0.8332 -0.0622 -0.5631
  102MOL   O13622558   2.499   4.592   7.376  0.0218  0.8157  1.4829
  102MOL   C13722559   2.500   4.359   7.287 -0.0295  0.1566 -0.1247
  102MOL   C13822560   2.776   4.631   7.280  0.3170  0.1885  0.7320
  102MOL   H13922561   2.732   4.449   7.190 -0.0546  0.1551  0.1159
  102MOL   H14022562   2.523   4.300   7.376 -2.2931 -1.4653 -0.5844
  102MOL   H14122563   2.392   4.370   7.279 -0.4414 -2.7838  1.0349
  102MOL   H14222564   2.543   4.310   7.200 -0.1511  0.5145 -0.3869
  102MOL   H14322565   2.745   4.733   7.302 -0.9309  0.1813 -0.9057
  102MOL   H14422566   2.857   4.649   7.210  1.1305  0.0036  1.6180
  102MOL   C14522567   2.825   4.566   7.414 -0.2060  0.2853  0.1426
  102MOL   C14622568   2.871   4.666   7.521  0.6511 -0.7998  0.2748
  102MOL   O14722569   2.931   4.769   7.486  0.0800  0.1187 -0.5493
  102MOL   C14822570   2.869   4.616   7.657  0.8298 -0.4960 -0.2438
  102MOL   C14922571   2.928   4.447   7.395 -0.2630  0.5149  0.1799
  102MOL   H15022572   2.746   4.524   7.475 -0.2343 -2.2008 -1.5314
  102MOL   H15122573   2.906   4.514   7.663  0.2242 -0.7745 -1.1774
  102MOL   H15222574   2.952   4.664   7.710 -1.1562  1.6878  0.9802
  102MOL   H15322575   2.771   4.637   7.700  2.1521  1.4407  1.9984
  102MOL   H15422576   2.888   4.364   7.337  0.1803 -0.2828  1.0248
  102MOL   H15522577   2.947   4.397   7.489 -1.5487  1.2219  0.8232
  102MOL   C15622578   3.068   4.496   7.335 -0.0377  0.8199  0.0077
  102MOL   C15722579   3.111   4.420   7.208 -0.1060 -0.0060 -0.3316
  102MOL   O15822580   3.175   4.318   7.218 -0.1725  0.7247  0.1596
  102MOL   C15922581   3.055   4.462   7.075 -0.2341  0.4473  0.4400
  102MOL   C16022582   3.176   4.492   7.456 -0.3109  0.1611 -0.0990
  102MOL   H16122583   3.060   4.602   7.310  2.0487  1.2654  1.1288
  102MOL   H16222584   3.051   4.567   7.048  0.8185  0.1863 -0.7740
  102MOL   H16322585   3.113   4.407   7.001 -1.2424  0.9969 -0.7889
  102MOL   H16422586   2.955   4.419   7.063 -0.3718  0.9297 -0.1646
  102MOL   H16522587   3.187   4.386   7.475  1.1068  0.0901 -1.3052
  102MOL   H16622588   3.140   4.543   7.546  0.5131 -1.0879  0.9522
  102MOL   C16722589   3.313   4.545   7.418  1.1133 -0.8025 -0.7409
  102MOL   C16822590   3.419   4.431   7.448 -0.3396 -0.4790  0.8490
  102MOL   O16922591   3.456   4.391   7.558  0.2643 -0.2352 -0.4310
  102MOL   C17022592   3.476   4.369   7.312 -0.4741 -0.5224 -0.2485
  102MOL   C17122593   3.362   4.674   7.488 -0.4647  0.4919 -0.1627
  102MOL   H17222594   3.310   4.566   7.311 -1.1203  2.4911 -0.1135
  102MOL   H17322595   3.457   4.262   7.310 -0.9511 -0.4911  1.6217
  102MOL   H17422596   3.438   4.423   7.225  2.8973  0.7811 -0.9984
  102MOL   H17522597   3.584   4.369   7.307 -0.6006 -0.7815 -3.8517
  102MOL   H17622598   3.467   4.697   7.467  0.4349 -1.4158  2.0571
  102MOL   H17722599   3.369   4.652   7.595 -1.1930  1.0654  0.0092
  102MOL   C17822600   3.273   4.809   7.469  0.1473  0.1937 -0.3735
  102MOL   C17922601   3.245   4.829   7.323 -1.0724 -0.4436 -0.2385
  102MOL   O18022602   3.327   4.804   7.234  0.0378 -0.1468 -0.1362
  102MOL   C18122603   3.112   4.881   7.288 -0.2730 -0.5186 -0.0821
  102MOL   C18222604   3.334   4.946   7.522 -0.6254 -0.7066  0.0364
  102MOL   H18322605   3.175   4.795   7.514 -0.1278 -0.2812 -1.1233
  102MOL   H18422606   3.046   4.795   7.278  0.7551 -1.3215  0.0222
  102MOL   H18522607   3.074   4.949   7.365  0.9647 -1.0752  1.0393
  102MOL   H18622608   3.115   4.931   7.192 -0.3765 -0.5721 -0.1142
  102MOL   H18722609   3.273   5.027   7.484 -1.8110 -0.9985  1.2540
  102MOL   H18822610   3.427   4.963   7.469 -0.4495  3.3918  1.4994
  102MOL   C18922611   3.360   4.950   7.676 -1.4538  0.3039  0.5998
  102MOL   C19022612   3.230   4.931   7.760 -0.9145 -0.2107  0.2818
  102MOL   O19122613   3.121   4.959   7.708 -0.0748 -0.6106 -0.1292
  102MOL   C19222614   3.244   4.869   0.055 -0.4212  0.1863  0.3632
  102MOL   C19322615   3.429   5.083   7.705  0.1165 -0.3573 -0.1996
  102MOL   H19422616   3.420   4.864   7.706 -0.9423  0.2412 -0.5795
  102MOL   H19522617   3.225   4.947   0.129  0.2577  0.1344  0.5951
  102MOL   H19622618   3.183   4.781   0.074 -0.3416  0.1506  0.4523
  102MOL   H19722619   3.345   4.831   0.065 -0.7419 -1.3586 -1.8402
  102MOL   H19822620   3.439   5.076   7.813  0.5361 -3.1844 -0.3745
  102MOL   H19922621   3.348   5.155   7.694 -2.4573 -2.8411  1.6868
  102MOL   C20022622   3.557   5.131   7.641  0.0646  0.3355 -0.1921
  102MOL   C20122623   3.674   5.038   7.675 -0.3688  0.6449  0.2779
  102MOL   O20222624   3.667   4.942   7.753 -0.0305 -0.0135  0.2279
  102MOL   C20322625   3.805   5.080   7.612  0.3834  0.1839  1.2521
  102MOL   C20422626   3.588   5.284   7.661 -0.5467 -0.0595  0.2505
  102MOL   H20522627   3.552   5.129   7.532 -4.6978  1.0587 -0.0772
  102MOL   H20622628   3.883   5.006   7.627 -0.2029 -1.0142 -1.3544
  102MOL   H20722629   3.789   5.079   7.505  0.9787 -1.3086  1.1684
  102MOL   H20822630   3.845   5.175   7.649 -1.0986 -0.1433  3.8766
  102MOL   H20922631   3.503   5.334   7.615  0.9817 -0.2944 -2.9484
  102MOL   H21022632   3.679   5.314   7.611  1.6439 -0.5636  3.7865
  102MOL   C21122633   3.618   5.341   7.804 -0.5955 -0.0954  0.0660
  102MOL   C21222634   3.495   5.355   0.053  0.4822  0.4606  0.4448
  102MOL   O21322635   3.485   5.291   0.158  0.3607 -0.4465  0.5192
  102MOL   C21422636   3.379   5.445   0.006 -0.9732 -0.6177  0.1591
  102MOL   C21522637   3.688   5.481   7.800 -0.1138  0.1192  0.1823
  102MOL   H21622638   3.691   5.273   0.006 -2.4764 -1.4813  1.0820
  102MOL   H21722639   3.400   5.489   7.751 -0.5908 -0.4833  0.3009
  102MOL   H21822640   3.288   5.388   0.023 -2.0912  1.2028  0.5127
  102MOL   H21922641   3.385   5.524   0.081 -4.3239 -0.6548  0.5235
  102MOL   H22022642   3.704   5.530   0.054  1.2432 -1.0707  0.5804
  102MOL   H22122643   3.658   5.542   7.715 -0.8560 -2.0775 -1.1831
  102MOL   H22222644   3.787   5.456   7.762  0.0667  2.4394 -0.9300
  103MOL     C122645   2.016   3.584   7.475 -0.9011  0.0254 -0.3851
  103MOL     C222646   1.985   3.587   7.330  0.2502 -0.4754 -1.1474
  103MOL     O322647   2.058   3.638   7.247  0.1580  0.0584  0.0858
  103MOL     C422648   1.853   3.534   7.279  0.2365 -0.2281  0.7311
  103MOL     C522649   2.152   3.650   7.510 -0.5714  0.7777  0.4350
  103MOL     H622650   1.943   3.635   7.537  0.1326 -0.4409  1.2687
  103MOL     H722651   1.856   3.535   7.170  0.9307  0.1836  0.7568
  103MOL     H822652   1.837   3.427   7.296  1.3786 -0.3984  0.7338
  103MOL     H922653   1.780   3.602   7.323  1.5071  2.1330 -0.7089
  103MOL    H1022654   2.156   3.674   7.616  1.9411 -0.9236  0.7588
  103MOL    H1122655   2.153   3.749   7.464 -0.9630  0.2809 -0.6528
  103MOL    H1222656   2.009   3.479   7.504 -0.3833 -0.2279 -1.1563
  103MOL    C1322657   2.279   3.583   7.453 -0.1927 -0.2188 -0.0587
  103MOL    C1422658   2.286   3.429   7.461 -0.3261  0.5228 -0.4817
  103MOL    O1522659   2.237   3.364   7.555  0.0855 -0.5717  0.2616
  103MOL    C1622660   2.373   3.357   7.358 -0.0831 -0.7693  0.2835
  103MOL    C1722661   2.412   3.632   7.519  0.1542  0.3257 -0.1489
  103MOL    H1822662   2.288   3.603   7.346  2.1976 -0.0690  0.1529
  103MOL    H1922663   2.341   3.385   7.257 -1.5702  1.0586  1.2274
  103MOL    H2022664   2.479   3.379   7.359  0.0760 -1.2502 -1.9146
  103MOL    H2122665   2.363   3.251   7.379  0.9364 -1.1613 -1.1445
  103MOL    H2222666   2.489   3.556   7.521  0.1533  0.3371  1.7758
  103MOL    H2322667   2.390   3.647   7.625 -0.7937  1.3060 -0.4668
  103MOL    C2422668   2.478   3.765   7.460 -0.4150 -0.2262 -0.7392
  103MOL    C2522669   2.399   3.890   7.488 -0.2885  0.4248 -0.5505
  103MOL    O2622670   2.348   3.959   7.400 -0.0116  0.3855 -0.5328
  103MOL    C2722671   2.376   3.922   7.632  0.8159  0.6301 -0.2753
  103MOL    C2822672   2.499   3.745   7.308 -0.1242  0.2921  0.5932
  103MOL    H2922673   2.569   3.789   7.515 -0.4837  1.0317 -1.1597
  103MOL    H3022674   2.450   3.865   7.689 -0.0007  1.4059  1.5898
  103MOL    H3122675   2.385   4.030   7.639  0.1287  0.6341  0.5723
  103MOL    H3222676   2.279   3.886   7.666  0.3407  1.3839 -0.8239
  103MOL    H3322677   2.405   3.737   7.254  1.1132 -1.9364 -1.3150
  103MOL    H3422678   2.550   3.650   7.295  1.8848  1.2560  1.2042
  103MOL    C3522679   2.580   3.857   7.240  0.5314 -0.2231  0.1168
  103MOL    C3622680   2.538   3.860   7.092 -0.9689  0.6809 -0.3005
  103MOL    O3722681   2.596   3.779   7.015 -0.0241 -0.0727  0.4992
  103MOL    C3822682   2.417   3.955   7.053 -0.2621  0.3499  0.0724
  103MOL    C3922683   2.735   3.833   7.248 -0.1770  0.1742  0.1912
  103MOL    H4022684   2.558   3.956   7.280  1.6971  0.7702 -1.6543
  103MOL    H4122685   2.450   4.051   7.093 -1.0544  0.7376 -0.1925
  103MOL    H4222686   2.411   3.949   6.945  2.5113  0.2628 -0.1106
  103MOL    H4322687   2.318   3.935   7.094  0.0761  0.8164  1.1420
  103MOL    H4422688   2.779   3.889   7.166  0.9856 -1.2777 -0.1953
  103MOL    H4522689   2.757   3.727   7.235  0.0306  0.1699  0.5569
  103MOL    C4622690   2.794   3.875   7.382  0.6024 -0.9831 -0.1253
  103MOL    C4722691   2.759   4.024   7.409  0.8293 -0.0450  0.4508
  103MOL    O4822692   2.779   4.112   7.325 -0.2503 -0.1778 -0.2333
  103MOL    C4922693   2.695   4.065   7.539  0.3690  0.1399 -0.5867
  103MOL    C5022694   2.947   3.846   7.367  0.2007  0.3510 -1.0805
  103MOL    H5122695   2.761   3.821   7.470  2.8630 -2.1382  0.0648
  103MOL    H5222696   2.782   4.075   7.605  0.1390 -0.9548 -0.0950
  103MOL    H5322697   2.651   4.164   7.533  0.5668  0.4371  2.1982
  103MOL    H5422698   2.635   3.988   7.588 -1.6620  1.7862 -0.4165
  103MOL    H5522699   2.988   3.920   7.298  1.3043  0.8918  0.1493
  103MOL    H5622700   2.986   3.751   7.330 -1.8784 -1.1685  0.5122
  103MOL    C5722701   3.036   3.871   7.496  0.1735  0.2009 -0.1079
  103MOL    C5822702   3.168   3.928   7.454  0.0012 -0.4969 -0.1499
  103MOL    O5922703   3.274   3.859   7.462  0.1671  0.2623  0.6873
  103MOL    C6022704   3.179   4.073   7.404  1.1448  0.8501 -0.1053
  103MOL    C6122705   3.050   3.742   7.586 -0.2446 -0.0959  0.3569
  103MOL    H6222706   3.001   3.949   7.564  0.1398 -0.1249  0.2514
  103MOL    H6322707   3.080   4.116   7.385  1.7665  2.0421 -0.6679
  103MOL    H6422708   3.240   4.135   7.470  1.4615  1.3645 -0.8767
  103MOL    H6522709   3.228   4.071   7.307  1.1745  0.8961 -0.0898
  103MOL    H6622710   3.125   3.675   7.542 -2.3748 -0.6607 -2.6140
  103MOL    H6722711   2.961   3.680   7.575 -1.4119  1.4332  1.0733
  103MOL    C6822712   3.083   3.771   7.740  0.2755 -0.4447 -1.1987
  103MOL    C6922713   3.153   3.655   7.810  0.5147 -0.5249 -0.5076
  103MOL    O7022714   3.143   3.540   7.765 -0.4018  0.2497  0.2256
  103MOL    C7122715   3.227   3.686   0.097 -0.5462 -0.3470  0.0276
  103MOL    C7222716   2.973   3.842   7.828 -0.4686 -0.3210  0.1838
  103MOL    H7322717   3.159   3.849   7.742  0.0363 -0.1806 -2.1426
  103MOL    H7422718   3.168   3.736   0.174  1.0621  1.7641 -0.0739
  103MOL    H7522719   3.269   3.599   0.149  0.9437  0.8137  0.8170
  103MOL    H7622720   3.296   3.769   0.084 -2.2190  0.6861 -2.6941
  103MOL    H7722721   2.935   3.931   7.777  2.0798  1.0692  0.6243
  103MOL    H7822722   3.021   3.883   0.075 -0.6987 -1.0651  0.6577
  103MOL    C7922723   2.847   3.767   0.039 -0.4297  0.4100 -0.1864
  103MOL    C8022724   2.775   3.690   7.770 -0.1049  0.0672  0.5545
  103MOL    O8122725   2.702   3.748   7.683 -0.1284 -0.1079  0.0960
  103MOL    C8222726   2.769   3.540   7.774 -0.0276  0.0148  0.0328
  103MOL    C8322727   2.766   3.866   0.119  0.0866  0.0541  0.2302
  103MOL    H8422728   2.879   3.700   0.118 -0.2909 -0.0663 -0.6457
  103MOL    H8522729   2.858   3.507   7.827 -0.3112 -1.3217 -0.2847
  103MOL    H8622730   2.681   3.507   7.829  0.0095  1.2116  0.8191
  103MOL    H8722731   2.776   3.500   7.672 -0.9231 -2.3469  0.8552
  103MOL    H8822732   2.736   3.945   0.050 -0.5328  1.2443  1.8118
  103MOL    H8922733   2.834   3.897   0.198  1.1755 -1.0331 -0.2725
  103MOL    C9022734   2.631   3.820   0.179  0.1398 -0.2214 -0.1774
  103MOL    C9122735   2.582   3.943   0.248 -0.0220  0.4312 -0.2943
  103MOL    O9222736   2.635   3.984   0.352  0.2024  0.8509  0.2852
  103MOL    C9322737   2.458   4.017   0.185 -0.4310 -0.5127 -0.6022
  103MOL    C9422738   2.646   3.688   0.268 -0.4004 -0.6047  0.3982
  103MOL    H9522739   2.557   3.801   0.102 -0.4019  4.1716 -0.8382
  103MOL    H9622740   2.423   3.958   0.100  1.3246 -0.4161 -1.4034
  103MOL    H9722741   2.390   4.043   0.266 -1.3044 -1.4427 -1.0216
  103MOL    H9822742   2.491   4.111   0.142 -2.4139 -0.2346 -1.5841
  103MOL    H9922743   2.735   3.691   0.330 -1.1834 -3.5028  1.7399
  103MOL   H10022744   2.673   3.605   0.202 -0.2994 -0.6463  0.4925
  103MOL   C10122745   2.532   3.646   0.370 -0.2081  0.0786 -0.4192
  103MOL   C10222746   2.568   3.514   0.442  0.3602 -0.4557  0.4380
  103MOL   O10322747   2.633   3.429   0.387  0.4878 -0.0517  0.0384
  103MOL   C10422748   2.525   3.507   0.589 -0.8012  0.0256 -0.2353
  103MOL   C10522749   2.386   3.652   0.331  0.3126  0.7738 -0.2718
  103MOL   H10622750   2.542   3.711   0.457 -1.3727 -1.2476  0.7361
  103MOL   H10722751   2.462   3.595   0.604  0.6061  0.9820  0.1740
  103MOL   H10822752   2.454   3.429   0.618 -1.8555  0.6832 -0.9960
  103MOL   H10922753   2.609   3.520   0.656  0.4017 -0.9876 -1.5316
  103MOL   H11022754   2.369   3.753   0.294 -1.2067  1.0600  1.1093
  103MOL   H11122755   2.329   3.638   0.423  0.5241  2.9875  0.2254
  103MOL   C11222756   2.334   3.529   0.249  0.1503  0.2461  0.0371
  103MOL   C11322757   2.409   3.512   0.119 -0.4289  0.4163  0.8979
  103MOL   O11422758   2.399   3.602   0.033  0.6750  0.0360 -0.3373
  103MOL   C11522759   2.476   3.377   0.091  0.0370  0.8657  0.4980
  103MOL   C11622760   2.178   3.547   0.218 -0.8557  0.8255 -0.3646
  103MOL   H11722761   2.359   3.440   0.307  1.1641  0.1496 -0.5237
  103MOL   H11822762   2.441   3.298   0.157 -1.2314  0.2466 -0.8666
  103MOL   H11922763   2.443   3.332   7.839 -0.0811 -1.9555  1.8388
  103MOL   H12022764   2.584   3.387   0.100 -0.0042  0.5965  1.3131
  103MOL   H12122765   2.164   3.628   0.147  0.2036  0.5753 -0.8610
  103MOL   H12222766   2.140   3.583   0.314 -0.0110  0.6295  0.0437
  103MOL   C12322767   2.102   3.428   0.165 -0.8375 -0.4520  0.2414
  103MOL   C12422768   2.127   3.304   0.238 -0.3657  0.0092 -0.3490
  103MOL   O12522769   2.222   3.226   0.221  0.1144  0.1548 -0.2001
  103MOL   C12622770   2.035   3.284   0.355 -0.2127  0.2196  0.3498
  103MOL   C12722771   2.096   3.411   0.016 -0.0195 -0.3542  0.3069
  103MOL   H12822772   1.998   3.459   0.166 -1.0544 -1.1535  0.0391
  103MOL   H12922773   1.934   3.321   0.336  0.5975  3.6325  2.2848
  103MOL   H13022774   2.026   3.175   0.355 -1.7771  0.3326  0.7462
  103MOL   H13122775   2.086   3.335   0.437 -3.0181  1.7379  1.2393
  103MOL   H13222776   2.181   3.348   7.831 -2.2415 -2.8029 -1.1839
  103MOL   H13322777   2.115   3.504   7.804  1.4485 -0.4716  0.6059
  103MOL   C13422778   1.973   3.343   7.783 -0.3295 -0.0219 -0.3918
  103MOL   C13522779   1.840   3.390   7.833 -0.1850 -0.2547 -0.3011
  103MOL   O13622780   1.783   3.332   0.081 -0.3268  0.1870  0.0855
  103MOL   C13722781   1.771   3.503   7.749  0.1632 -0.2029 -0.3392
  103MOL   C13822782   1.984   3.192   7.772 -0.6464  0.4691 -0.6787
  103MOL   H13922783   1.986   3.378   7.680  1.2599  0.2227 -0.1258
  103MOL   H14022784   1.667   3.521   7.776 -0.7119 -1.5668 -2.6849
  103MOL   H14122785   1.822   3.600   7.753 -0.6811  0.2056  1.0525
  103MOL   H14222786   1.761   3.465   7.647  1.2178 -0.2615 -0.4249
  103MOL   H14322787   1.888   3.142   7.782  0.6646 -2.6149 -2.5079
  103MOL   H14422788   2.049   3.154   0.008 -1.8853  2.2381  1.2538
  103MOL   C14522789   2.030   3.132   7.637 -0.4649  0.3089 -0.1897
  103MOL   C14622790   1.953   3.193   7.522  0.5882 -1.0815 -0.2516
  103MOL   O14722791   1.839   3.243   7.527 -0.3971  0.0697  0.1782
  103MOL   C14822792   2.022   3.184   7.387 -0.5412  0.0410 -0.5792
  103MOL   C14922793   2.026   2.975   7.628 -0.2734 -0.4494 -0.3504
  103MOL   H15022794   2.133   3.165   7.622  0.7103 -2.6107  1.1922
  103MOL   H15122795   2.121   3.136   7.385 -1.3552 -1.9829  2.6657
  103MOL   H15222796   1.954   3.129   7.322 -1.0548  1.4470 -1.2444
  103MOL   H15322797   2.031   3.286   7.351 -0.1452 -0.0813 -0.8365
  103MOL   H15422798   2.021   2.934   7.527  1.3297 -0.4921 -0.4211
  103MOL   H15522799   1.939   2.936   7.680 -0.0726  1.7253  1.6801
  103MOL   C15622800   2.152   2.913   7.688 -0.9375 -0.2411  0.2716
  103MOL   C15722801   2.283   2.965   7.623 -0.0419 -0.0609  0.0692
  103MOL   O15822802   2.328   2.912   7.520 -0.6928  0.3011 -0.3317
  103MOL   C15922803   2.356   3.077   7.696  0.2699  0.4505  0.2026
  103MOL   C16022804   2.133   2.765   7.699 -0.3938 -0.3291 -0.4007
  103MOL   H16122805   2.155   2.950   7.791  0.4356 -0.7510  0.4166
  103MOL   H16222806   2.304   3.108   7.787  0.0798 -1.8447  0.9032
  103MOL   H16322807   2.459   3.046   7.713  0.4408  0.6433 -0.4569
  103MOL   H16422808   2.365   3.162   7.628  0.0089  0.1740 -0.1883
  103MOL   H16522809   2.138   2.722   7.599 -1.6488 -0.0269 -0.5988
  103MOL   H16622810   2.039   2.733   7.742  0.5677 -0.3892  1.7322
  103MOL   C16722811   2.233   2.699   7.785  0.0515  0.5845 -0.1922
  103MOL   C16822812   2.302   2.574   7.721  0.7856  0.2491  0.0244
  103MOL   O16922813   2.292   2.459   7.770  0.3594  0.3355  0.1210
  103MOL   C17022814   2.393   2.584   7.595 -0.2489 -0.1324 -0.0765
  103MOL   C17122815   2.169   2.652   0.087  0.0830  0.2790 -0.4430
  103MOL   H17222816   2.316   2.759   7.821 -2.9465  4.0060  1.2833
  103MOL   H17322817   2.383   2.497   7.531 -1.4926  0.4017 -0.6225
  103MOL   H17422818   2.374   2.676   7.539 -1.3594 -0.2393  0.1138
  103MOL   H17522819   2.496   2.584   7.630  0.3015 -0.3211 -1.6919
  103MOL   H17622820   2.246   2.589   0.130  0.4693 -0.0079 -1.5229
  103MOL   H17722821   2.078   2.592   0.082  0.7492 -0.9519  1.9881
  103MOL   C17822822   2.145   2.771   0.185 -0.5964  0.4245  0.4369
  103MOL   C17922823   2.273   2.817   0.258  0.0118 -0.5499 -0.1769
  103MOL   O18022824   2.320   2.764   0.359 -0.1237  0.0053 -0.1939
  103MOL   C18122825   2.343   2.927   0.197  0.1274 -0.7564  0.6524
  103MOL   C18222826   2.038   2.724   0.292 -0.5580  0.0549  0.0597
  103MOL   H18322827   2.102   2.852   0.127  1.2395  1.3455  0.3238
  103MOL   H18422828   2.379   2.910   0.096  1.7661  1.9587  0.7144
  103MOL   H18522829   2.270   3.006   0.184  1.3701  0.7703  2.5899
  103MOL   H18622830   2.433   2.958   0.251  1.1783 -2.9155  0.2010
  103MOL   H18722831   2.037   2.792   0.377 -0.8292 -0.9683  0.8909
  103MOL   H18822832   2.078   2.629   0.329  0.2275  0.8491  1.2907
  103MOL   C18922833   1.899   2.702   0.235 -0.4096  0.5097 -0.7009
  103MOL   C19022834   1.838   2.838   0.202 -0.1028  0.1815 -0.1026
  103MOL   O19122835   1.850   2.934   0.276 -0.0044 -0.1002  0.2876
  103MOL   C19222836   1.770   2.844   0.067  0.2378 -0.2035  0.4287
  103MOL   C19322837   1.818   2.617   0.335  0.6468  0.0912 -0.3684
  103MOL   H19422838   1.900   2.637   0.147  0.5186 -1.3792  0.6860
  103MOL   H19522839   1.669   2.805   0.080  0.0234  0.2221  0.0505
  103MOL   H19622840   1.772   2.943   0.022  0.8091  0.2848  1.5258
  103MOL   H19722841   1.819   2.773   0.001 -1.1988 -3.0002  2.2651
  103MOL   H19822842   1.871   2.523   0.351  2.2981  1.0826  0.2274
  103MOL   H19922843   1.726   2.591   0.284  0.3928 -3.6230  1.8196
  103MOL   C20022844   1.784   2.681   0.472  0.6526  0.1695 -0.2300
  103MOL   C20122845   1.871   2.630   0.589 -0.3289  0.4173 -0.2157
  103MOL   O20222846   1.929   2.520   0.583  0.1401 -0.1659  0.2945
  103MOL   C20322847   1.875   2.707   0.725 -0.1535 -0.6762 -0.2453
  103MOL   C20422848   1.633   2.672   0.495  0.9384 -1.2785  0.0893
  103MOL   H20522849   1.800   2.788   0.485  1.3532 -0.0791  0.9761
  103MOL   H20622850   1.783   2.685   0.780 -1.3791  2.4624 -0.9261
  103MOL   H20722851   1.953   2.667   0.789 -0.9806 -0.5777  0.8395
  103MOL   H20822852   1.878   2.816   0.713 -3.2101 -0.5815 -0.5634
  103MOL   H20922853   1.608   2.698   0.598  0.3998 -0.8890 -0.1419
  103MOL   H21022854   1.578   2.579   0.481 -0.6296 -0.3689  0.1109
  103MOL   C21122855   1.539   2.784   0.427 -0.4819  0.2773  0.7632
  103MOL   C21222856   1.585   2.930   0.455  0.1341  0.5613 -0.4726
  103MOL   O21322857   1.648   2.966   0.552  0.3865  0.0655  0.1687
  103MOL   C21422858   1.534   3.032   0.354  1.3822  0.9031 -0.4602
  103MOL   C21522859   1.391   2.770   0.464  0.0665  0.3032 -0.0793
  103MOL   H21622860   1.542   2.780   0.318 -0.1811 -0.2712  0.7899
  103MOL   H21722861   1.620   3.072   0.300  2.4807  0.6758  1.0626
  103MOL   H21822862   1.481   2.971   0.281 -0.7302  3.1288 -0.8469
  103MOL   H21922863   1.468   3.106   0.399 -0.5634 -1.5462  0.8785
  103MOL   H22022864   1.338   2.849   0.411 -0.2413 -0.0653 -0.3327
  103MOL   H22122865   1.367   2.780   0.570 -0.8372  1.9547 -0.4392
  103MOL   H22222866   1.352   2.671   0.438 -1.8992  1.1361 -0.4585
  104MOL     C122867   5.316   1.666   1.468 -0.0903  1.0263 -0.0727
  104MOL     C222868   5.291   1.805   1.529  0.1838  0.8495  0.5379
  104MOL     O322869   5.181   1.844   1.558  0.2970  0.2869 -0.3431
  104MOL     C422870   5.402   1.901   1.556  0.3102  0.2745  0.3224
  104MOL     C522871   5.197   1.607   1.388 -0.0463  0.4262  1.5176
  104MOL     H622872   5.405   1.675   1.406  0.9287  0.2010  1.2401
  104MOL     H722873   5.421   1.953   1.463 -0.7917 -0.7039 -0.4679
  104MOL     H822874   5.360   1.962   1.637  2.3419  1.8508  0.2117
  104MOL     H922875   5.492   1.846   1.582 -0.3435 -1.1285 -0.3331
  104MOL    H1022876   5.142   1.696   1.355  0.0864  0.6397  1.8739
  104MOL    H1122877   5.121   1.549   1.440 -0.4051 -1.7105 -1.2687
  104MOL    H1222878   5.330   1.595   1.549  0.6269  0.0100 -1.0737
  104MOL    C1322879   5.239   1.522   1.264 -0.1981  0.8446 -0.7415
  104MOL    C1422880   5.140   1.520   1.153  0.8269  0.0560 -0.1835
  104MOL    O1522881   5.020   1.550   1.168 -1.1575 -0.1155  0.2799
  104MOL    C1622882   5.187   1.508   1.009 -0.3859  0.5326  0.1399
  104MOL    C1722883   5.294   1.381   1.308 -0.2105  0.0686  0.0893
  104MOL    H1822884   5.329   1.570   1.224 -0.4620  2.6163  0.7164
  104MOL    H1922885   5.146   1.417   0.965  0.9650 -0.7791  1.5338
  104MOL    H2022886   5.160   1.598   0.954  1.1513  1.3334  0.6699
  104MOL    H2122887   5.294   1.486   1.004 -0.6485 -0.5422 -1.1220
  104MOL    H2222888   5.293   1.308   1.227  0.3120  1.0810 -0.8386
  104MOL    H2322889   5.237   1.344   1.394  1.6510 -0.7014  1.0176
  104MOL    C2422890   5.446   1.374   1.357  0.5584 -0.2418  0.0480
  104MOL    C2522891   5.551   1.436   1.268 -0.4757 -0.3558 -0.0029
  104MOL    O2622892   5.623   1.532   1.306  0.1315  0.4502  0.2606
  104MOL    C2722893   5.559   1.389   1.122 -0.5317 -0.2861 -1.4481
  104MOL    C2822894   5.481   1.231   1.404  0.5598  0.6437  0.4516
  104MOL    H2922895   5.446   1.439   1.444 -0.5607  0.1884 -0.2639
  104MOL    H3022896   5.630   1.306   1.116 -0.5628 -0.4988  0.6863
  104MOL    H3122897   5.470   1.351   1.072 -1.3183 -0.6134  0.1508
  104MOL    H3222898   5.590   1.481   1.074  0.9797  0.6053  1.1461
  104MOL    H3322899   5.590   1.221   1.400  0.6062  1.5143 -0.5110
  104MOL    H3422900   5.442   1.155   1.338  2.0729  0.6773 -0.5135
  104MOL    C3522901   5.429   1.193   1.548 -0.4815 -0.2396 -0.9627
  104MOL    C3622902   5.523   1.236   1.659 -0.7712  0.2374 -0.5894
  104MOL    O3722903   5.646   1.236   1.643 -0.2298  0.5207  0.4351
  104MOL    C3822904   5.461   1.263   1.794  0.7459 -0.1413  0.1647
  104MOL    C3922905   5.393   1.045   1.562 -0.5998 -0.1558  0.8712
  104MOL    H4022906   5.338   1.253   1.558 -0.6918 -0.7796  0.5386
  104MOL    H4122907   5.541   1.247   1.867  1.8862 -1.1431 -1.2887
  104MOL    H4222908   5.421   1.365   1.797  0.1273 -0.3930  0.6777
  104MOL    H4322909   5.379   1.193   1.811  0.8606 -0.1092  0.8623
  104MOL    H4422910   5.403   1.008   1.664  0.6483  0.9969  1.1791
  104MOL    H4522911   5.456   0.979   1.503 -0.8530 -1.2652  1.8379
  104MOL    C4622912   5.249   1.002   1.529  0.4737 -0.3060 -0.5350
  104MOL    C4722913   5.214   1.018   1.380  0.0139  0.2675  0.5893
  104MOL    O4822914   5.147   1.110   1.335 -0.2015  0.0568 -0.3364
  104MOL    C4922915   5.243   0.905   1.287 -0.4059 -0.1737  0.1267
  104MOL    C5022916   5.152   1.071   1.623 -0.1556 -0.9607 -0.0639
  104MOL    H5122917   5.246   0.894   1.547  1.1743 -0.5020 -1.5301
  104MOL    H5222918   5.151   0.860   1.249 -0.3946 -0.6484  0.6499
  104MOL    H5322919   5.316   0.949   1.219 -1.6084  0.2103 -0.9427
  104MOL    H5422920   5.286   0.823   1.345 -1.9017 -2.1801 -1.5199
  104MOL    H5522921   5.128   1.175   1.603  1.3402 -0.6650 -0.4160
  104MOL    H5622922   5.186   1.069   1.727 -1.2025  1.7525  0.3600
  104MOL    C5722923   5.011   1.003   1.620  0.5042  0.0425  0.0394
  104MOL    C5822924   4.917   1.091   1.707  0.2173 -0.0511  0.3537
  104MOL    O5922925   4.814   1.139   1.653 -0.0977  0.1741  0.0725
  104MOL    C6022926   4.946   1.130   1.847 -0.8594 -0.0921  0.2261
  104MOL    C6122927   5.013   0.852   1.673 -0.4626  0.0140 -0.4204
  104MOL    H6222928   4.970   1.000   1.519  0.3962 -1.7662  0.1300
  104MOL    H6322929   4.855   1.131   1.907 -0.2897 -1.8024  1.1499
  104MOL    H6422930   5.010   1.055   1.893 -0.4343 -0.4364 -0.9076
  104MOL    H6522931   5.003   1.224   1.852 -0.2057 -0.4170 -0.9020
  104MOL    H6622932   5.049   0.852   1.776  0.7494 -0.5192 -0.8289
  104MOL    H6722933   5.075   0.782   1.617 -2.2233 -1.0302 -1.1021
  104MOL    C6822934   4.879   0.771   1.673  0.1773 -0.1380  0.8140
  104MOL    C6922935   4.880   0.641   1.745 -0.3916  0.3426 -0.4511
  104MOL    O7022936   4.987   0.580   1.769  0.1483  0.3315  0.6373
  104MOL    C7122937   4.750   0.592   1.809 -0.2003  0.6047 -0.6528
  104MOL    C7222938   4.826   0.751   1.528  0.3716 -0.2456  0.0342
  104MOL    H7322939   4.807   0.832   1.729  1.1620  0.5287  1.3652
  104MOL    H7422940   4.673   0.586   1.732 -1.8077 -0.5189  0.9800
  104MOL    H7522941   4.747   0.498   1.865 -0.5271  0.5115 -0.8214
  104MOL    H7622942   4.720   0.662   1.886  1.2440 -0.5838  1.0321
  104MOL    H7722943   4.805   0.649   1.495 -1.2912  0.6528 -1.7852
  104MOL    H7822944   4.910   0.782   1.466 -0.1631  0.4566 -0.3524
  104MOL    C7922945   4.701   0.844   1.502  0.8935  0.1238  0.1644
  104MOL    C8022946   4.570   0.767   1.546 -0.3851  0.0674 -0.7995
  104MOL    O8122947   4.538   0.662   1.495  0.0569 -0.4243 -0.1749
  104MOL    C8222948   4.479   0.843   1.651 -0.0574  0.1723  1.1459
  104MOL    C8322949   4.690   0.893   1.356  0.2226 -0.4277 -0.1027
  104MOL    H8422950   4.722   0.935   1.558 -0.9641  0.6283  0.0929
  104MOL    H8522951   4.438   0.935   1.610  0.2572 -1.5169 -3.2707
  104MOL    H8622952   4.401   0.770   1.675  0.8370 -1.3012 -0.3176
  104MOL    H8722953   4.533   0.871   1.741  1.0518  1.3227  0.1441
  104MOL    H8822954   4.672   0.810   1.288  0.4174 -0.0835 -0.5858
  104MOL    H8922955   4.792   0.921   1.328  0.2291 -1.0368 -0.6880
  104MOL    C9022956   4.593   1.011   1.336  0.3953  0.5536  0.1429
  104MOL    C9122957   4.449   0.976   1.315 -0.2313  0.4770  0.2478
  104MOL    O9222958   4.363   1.021   1.389  0.4979 -0.1939 -0.6062
  104MOL    C9322959   4.426   0.872   1.206  0.4219 -0.1991  0.2268
  104MOL    C9422960   4.626   1.110   1.219  0.2157 -0.1972  0.5539
  104MOL    H9522961   4.600   1.054   1.436  3.1191 -1.3330  0.8355
  104MOL    H9622962   4.512   0.850   1.143 -0.1851 -1.0928 -0.3106
  104MOL    H9722963   4.389   0.784   1.258  0.9264  0.4593  1.7105
  104MOL    H9822964   4.344   0.913   1.147  0.3074 -1.0274 -0.1980
  104MOL    H9922965   4.543   1.181   1.212 -0.0424 -0.5280  0.2204
  104MOL   H10022966   4.626   1.047   1.130  1.9968 -0.9505  1.0811
  104MOL   C10122967   4.755   1.191   1.229 -0.5052 -0.5311 -0.0129
  104MOL   C10222968   4.739   1.316   1.316 -0.2573 -0.1402  0.4069
  104MOL   O10322969   4.641   1.386   1.305 -0.1346 -0.2780  0.4294
  104MOL   C10422970   4.850   1.340   1.421 -0.0455 -0.2348  0.0210
  104MOL   C10522971   4.814   1.241   1.090  0.0361 -0.1948 -0.2916
  104MOL   H10622972   4.835   1.130   1.271  0.7422 -0.7051 -2.5682
  104MOL   H10722973   4.792   1.385   1.501 -1.8842 -2.7603  0.1616
  104MOL   H10822974   4.887   1.241   1.446 -2.4037 -1.3272 -0.6514
  104MOL   H10922975   4.931   1.410   1.400  0.1920 -0.5476 -0.1141
  104MOL   H11022976   4.890   1.318   1.105 -1.8821  1.5305  0.7030
  104MOL   H11122977   4.725   1.285   1.046  0.6248  0.5285 -0.7540
  104MOL   C11222978   4.856   1.126   0.998  0.6836 -0.6779 -0.0972
  104MOL   C11322979   4.997   1.146   0.932  0.4412  1.1104 -0.4671
  104MOL   O11422980   5.005   1.159   0.808 -0.7449 -0.2916 -0.2375
  104MOL   C11522981   5.118   1.163   1.012 -0.7891 -0.5037 -0.7555
  104MOL   C11622982   4.744   1.103   0.887 -0.0322  0.1641  0.4894
  104MOL   H11722983   4.874   1.040   1.062 -2.4360 -0.9189  0.5228
  104MOL   H11822984   5.134   1.078   1.080 -0.4398  1.0266  1.1154
  104MOL   H11922985   5.214   1.162   0.961 -0.1932 -1.9948  0.3249
  104MOL   H12022986   5.108   1.255   1.069 -1.0018 -1.7352  1.2528
  104MOL   H12122987   4.758   1.184   0.815  3.1755  1.3603  2.3710
  104MOL   H12222988   4.639   1.112   0.915 -0.3375  1.8126 -1.0843
  104MOL   C12322989   4.759   0.967   0.816  0.0361 -0.0542  0.7773
  104MOL   C12422990   4.675   0.983   0.692 -0.1422 -1.2752 -0.8907
  104MOL   O12522991   4.575   1.058   0.692 -0.4806 -0.4801 -0.1424
  104MOL   C12622992   4.703   0.895   0.573  0.1941  0.2648  0.0687
  104MOL   C12722993   4.723   0.857   0.905  0.2891 -0.2618  0.3635
  104MOL   H12822994   4.862   0.951   0.785 -0.6802 -1.1305 -1.1169
  104MOL   H12922995   4.640   0.808   0.594  1.0392 -0.0568  1.3046
  104MOL   H13022996   4.676   0.947   0.481  0.7582  0.0025 -0.2523
  104MOL   H13122997   4.804   0.857   0.560 -0.8179 -1.7597 -2.5023
  104MOL   H13222998   4.621   0.865   0.942 -0.1272  0.0029 -0.8430
  104MOL   H13322999   4.781   0.869   0.997  1.6102 -0.5729 -0.4194
  104MOL   C13423000   4.736   0.712   0.847 -0.0195  0.3382  0.3351
  104MOL   C13523001   4.663   0.608   0.931 -1.1451 -0.1105 -0.2873
  104MOL   O13623002   4.633   0.638   1.046  0.4430  0.0693 -0.1265
  104MOL   C13723003   4.636   0.466   0.884  0.2615  1.1993  0.1707
  104MOL   C13823004   4.882   0.663   0.808 -0.6630 -0.4256  0.0386
  104MOL   H13923005   4.677   0.716   0.756 -1.1471 -2.9362  0.8647
  104MOL   H14023006   4.724   0.405   0.865  0.4125  0.7397  2.3017
  104MOL   H14123007   4.583   0.407   0.959  0.6847 -0.4648 -0.7928
  104MOL   H14223008   4.571   0.454   0.797 -1.7268 -0.0743  1.7811
  104MOL   H14323009   4.942   0.743   0.765 -1.8135  0.8868  0.8117
  104MOL   H14423010   4.881   0.606   0.715  2.1894 -0.7256  0.1598
  104MOL   C14523011   4.975   0.597   0.915 -0.3930  0.1431  0.0214
  104MOL   C14623012   4.997   0.689   1.028  0.0487  0.1548  1.0582
  104MOL   O14723013   5.039   0.806   1.015  0.2285  0.3412 -0.1109
  104MOL   C14823014   4.954   0.643   1.163  0.1364  0.2298 -0.4349
  104MOL   C14923015   5.108   0.550   0.855  0.2322 -0.7114  0.2186
  104MOL   H15023016   4.930   0.503   0.946  1.6339 -0.9968 -0.4035
  104MOL   H15123017   4.859   0.682   1.199  0.3544 -0.4652  0.9238
  104MOL   H15223018   4.957   0.534   1.171  0.9363  0.2470 -0.4509
  104MOL   H15323019   5.035   0.678   1.227  0.2820  2.0271 -1.5747
  104MOL   H15423020   5.175   0.636   0.846 -0.2224  0.2506  4.9414
  104MOL   H15523021   5.092   0.517   0.752 -0.7631 -0.1477  0.1916
  104MOL   C15623022   5.177   0.440   0.940 -0.4549  0.0276 -0.3830
  104MOL   C15723023   5.320   0.485   0.984 -0.2062  0.7507  0.2126
  104MOL   O15823024   5.390   0.564   0.918  0.0928 -0.0763  0.3295
  104MOL   C15923025   5.379   0.426   1.111  0.4847 -0.0701  0.3793
  104MOL   C16023026   5.187   0.301   0.872 -0.3773 -0.2694  0.7768
  104MOL   H16123027   5.124   0.431   1.035 -3.5474  3.5303 -1.6332
  104MOL   H16223028   5.320   0.336   1.130  0.3323 -0.3100 -1.1419
  104MOL   H16323029   5.480   0.400   1.079  1.3076  2.7588  0.5463
  104MOL   H16423030   5.378   0.497   1.193 -2.0364 -0.4441  0.7133
  104MOL   H16523031   5.257   0.240   0.929 -1.3864 -1.6350  0.5808
  104MOL   H16623032   5.229   0.305   0.772 -1.2700 -2.7385  0.2623
  104MOL   C16723033   5.049   0.234   0.863  0.2252 -0.4010 -0.0866
  104MOL   C16823034   5.001   0.177   0.999 -0.3872 -0.0971  0.6243
  104MOL   O16923035   5.074   0.149   1.092  0.4095  0.4178  0.7098
  104MOL   C17023036   4.853   0.151   1.011  0.1751  1.0614  0.1545
  104MOL   C17123037   5.034   0.142   0.736 -0.6952  0.0324  0.4754
  104MOL   H17223038   4.983   0.320   0.856 -2.2054 -2.2837 -0.7741
  104MOL   H17323039   4.816   0.175   1.111 -0.9212 -1.1978  0.3251
  104MOL   H17423040   4.804   0.225   0.947 -0.0632  0.6767 -0.1040
  104MOL   H17523041   4.828   0.050   0.979 -0.5394  1.1725  0.3626
  104MOL   H17623042   4.985   0.050   0.766  1.3393 -0.8132  1.2597
  104MOL   H17723043   5.135   0.108   0.716 -1.1037 -0.8102 -0.1317
  104MOL   C17823044   4.966   0.191   0.606  0.1967  0.8155 -0.8033
  104MOL   C17923045   5.062   0.270   0.524 -0.0116 -0.5330 -0.2612
  104MOL   O18023046   5.077   0.390   0.546  0.7390  0.0931  0.0725
  104MOL   C18123047   5.147   0.206   0.422 -0.1207 -0.2076  0.6332
  104MOL   C18223048   4.833   0.266   0.635  0.0048  1.1679  0.1845
  104MOL   H18323049   4.942   0.095   0.560 -3.5184  0.8064  1.0016
  104MOL   H18423050   5.239   0.264   0.421  0.6191 -1.3085  2.5886
  104MOL   H18523051   5.168   0.100   0.434 -0.1422 -0.3083 -0.1944
  104MOL   H18623052   5.090   0.227   0.331 -1.8121 -3.8406  0.7434
  104MOL   H18723053   4.852   0.363   0.682 -0.5189  1.6764 -0.6316
  104MOL   H18823054   4.783   0.208   0.712 -0.6669 -1.1212 -1.9348
  104MOL   C18923055   4.745   0.286   0.505  0.5078  0.8823 -0.3492
  104MOL   C19023056   4.734   0.434   0.463 -0.6664 -0.5522 -0.9664
  104MOL   O19123057   4.691   0.522   0.537 -0.1377  0.5700  0.0665
  104MOL   C19223058   4.763   0.472   0.318  0.1298  0.5910 -0.3705
  104MOL   C19323059   4.608   0.220   0.512  0.0532  0.3949 -0.0410
  104MOL   H19423060   4.793   0.235   0.421  1.8589  0.2485  0.7859
  104MOL   H19523061   4.776   0.380   0.260  0.9959 -0.8986  2.1125
  104MOL   H19623062   4.672   0.523   0.285 -0.4358  0.2650  0.6691
  104MOL   H19723063   4.845   0.542   0.305 -0.0355  1.1638  1.5503
  104MOL   H19823064   4.527   0.272   0.461  1.3160  1.4992 -0.9478
  104MOL   H19923065   4.567   0.224   0.613  1.4891 -0.2257  0.5862
  104MOL   C20023066   4.610   0.072   0.461 -0.6256 -0.7772  0.7961
  104MOL   C20123067   4.618   0.067   0.309  0.2940  0.1513 -0.7633
  104MOL   O20223068   4.651   0.163   0.236  0.5048  0.0591  0.1444
  104MOL   C20323069   4.584   7.778   0.241  0.3037 -0.0772 -0.1667
  104MOL   C20423070   4.488   7.841   0.523 -0.6308  0.1622 -0.0642
  104MOL   H20523071   4.707   0.029   0.487 -0.0799  0.4519  0.8364
  104MOL   H20623072   4.483   7.768   0.202  0.3858 -0.9274 -0.1622
  104MOL   H20723073   4.655   7.785   0.160  0.9444 -1.6415  0.2426
  104MOL   H20823074   4.619   7.696   0.304  0.0235  1.0535  1.5057
  104MOL   H20923075   4.436   7.779   0.450  2.9219 -1.5268 -1.3006
  104MOL   H21023076   4.413   0.074   0.547  1.2204  1.9282  0.3871
  104MOL   C21123077   4.520   7.742   0.637  0.1987 -0.2024 -0.6298
  104MOL   C21223078   4.596   7.809   0.746 -0.2239 -0.1040 -0.0435
  104MOL   O21323079   4.721   7.811   0.760 -0.0203  0.2512  0.2233
  104MOL   C21423080   4.505   0.043   0.845  0.4228 -0.0496 -0.0907
  104MOL   C21523081   4.592   7.614   0.578 -0.2883 -0.4423 -0.6697
  104MOL   H21623082   4.424   7.711   0.676  1.3691  0.1808  2.6872
  104MOL   H21723083   4.448   7.820   0.911 -1.4458 -0.4865 -2.0728
  104MOL   H21823084   4.567   0.105   0.910 -1.0529  1.1684  0.1812
  104MOL   H21923085   4.434   0.107   0.793 -1.0499  0.9922  3.1022
  104MOL   H22023086   4.536   7.539   0.522  1.7145 -2.3796 -0.1480
  104MOL   H22123087   4.631   7.563   0.666  1.4333 -0.9058 -1.6807
  104MOL   H22223088   4.680   7.641   0.520  1.0293 -1.1418  0.9349
  105MOL     C123089   2.702   7.682   2.641 -0.6368  0.0934  0.1453
  105MOL     C223090   2.628   7.812   2.672  0.2738  0.5754  0.0976
  105MOL     O323091   2.508   7.818   2.653 -0.3383  1.0026 -0.1907
  105MOL     C423092   2.699   0.090   2.740  0.0309 -0.0891  0.3813
  105MOL     C523093   2.610   7.560   2.624 -0.6322  0.0946  0.5288
  105MOL     H623094   2.750   7.710   2.547  0.8856  2.0557  1.4569
  105MOL     H723095   2.667   0.123   2.838  0.2042  0.6635  0.1906
  105MOL     H823096   2.804   0.060   2.745  0.4428  1.2835  0.2125
  105MOL     H923097   2.691   0.180   2.678  0.6208  0.9585  1.8080
  105MOL    H1023098   2.656   7.477   2.571 -1.3136 -1.7463  2.7536
  105MOL    H1123099   2.537   7.592   2.550 -0.1153 -1.3129 -0.5983
  105MOL    H1223100   2.776   7.662   2.718  1.3762  2.0751 -1.2192
  105MOL    C1323101   2.535   7.530   2.749  0.3570  0.1223  0.4605
  105MOL    C1423102   2.622   7.469   2.853  0.2990  0.2030 -0.6131
  105MOL    O1523103   2.652   7.526   2.956  0.6031  0.0240  0.4308
  105MOL    C1623104   2.685   7.334   2.824  0.6838 -0.0504  0.0077
  105MOL    C1723105   2.393   7.459   2.737  1.1310  0.4619 -0.0022
  105MOL    H1823106   2.505   7.617   2.806 -1.1688  0.0746 -0.2477
  105MOL    H1923107   2.628   7.282   2.747 -2.1647 -0.7581  2.4829
  105MOL    H2023108   2.787   7.349   2.789  0.2722  0.7626 -0.8734
  105MOL    H2123109   2.674   7.273   2.914 -1.6097  0.2347 -0.0609
  105MOL    H2223110   2.424   7.356   2.718 -0.4305 -0.3296  1.6053
  105MOL    H2323111   2.339   7.490   2.647 -0.1604 -0.1180  0.5548
  105MOL    C2423112   2.298   7.479   2.858  0.5351  0.4958 -0.4186
  105MOL    C2523113   2.259   7.344   2.919  0.0479 -0.1899  0.3140
  105MOL    O2623114   2.245   7.242   2.857  0.0118 -0.3377 -0.2479
  105MOL    C2723115   2.232   7.343   3.066 -0.2326  0.9058 -0.2131
  105MOL    C2823116   2.163   7.560   2.822  0.0525 -0.2785 -0.1268
  105MOL    H2923117   2.354   7.540   2.928 -0.3955  1.0544 -0.1544
  105MOL    H3023118   2.326   7.298   3.096 -1.3909 -1.0900  0.5098
  105MOL    H3123119   2.220   7.447   3.095 -2.0338  0.7850 -0.4416
  105MOL    H3223120   2.148   7.288   3.108  0.0990  1.2609  0.9217
  105MOL    H3323121   2.103   7.556   2.913  0.6434  1.0340  0.3350
  105MOL    H3423122   2.104   7.523   2.739 -1.7033  0.1765  0.8901
  105MOL    C3523123   2.180   7.704   2.777  0.0279 -0.3811 -0.2205
  105MOL    C3623124   2.181   7.801   2.897  0.1880 -0.4129 -0.7836
  105MOL    O3723125   2.102   7.795   2.989 -0.0043  0.0637  0.0414
  105MOL    C3823126   2.291   0.062   2.895 -0.1027  0.6345  0.3084
  105MOL    C3923127   2.085   7.747   2.660 -0.2075 -0.1721 -0.0031
  105MOL    H4023128   2.277   7.701   2.727  1.5076 -1.5225  2.5871
  105MOL    H4123129   2.271   0.137   2.819  2.3882  0.8224 -0.1757
  105MOL    H4223130   2.294   0.117   2.989  1.9166  2.1316 -0.6102
  105MOL    H4323131   2.391   0.024   2.878 -0.7874 -0.5230 -1.2649
  105MOL    H4423132   2.085   7.671   2.582  1.4809 -1.2600  1.0110
  105MOL    H4523133   2.133   7.840   2.629  0.7667 -0.6202  0.1385
  105MOL    C4623134   1.932   7.779   2.691  0.1731 -0.3692  0.4120
  105MOL    C4723135   1.857   7.662   2.754  0.4089  0.4810  0.2895
  105MOL    O4823136   1.843   7.557   2.689 -0.4728 -0.5184 -0.2352
  105MOL    C4923137   1.825   7.672   2.900  0.1820 -0.9091  0.2334
  105MOL    C5023138   1.855   7.838   2.563  0.8215 -0.3591  0.0711
  105MOL    H5123139   1.944   0.009   2.772  3.3747  0.8649 -1.0846
  105MOL    H5223140   1.721   7.678   2.932 -0.2974  0.8115 -1.5614
  105MOL    H5323141   1.867   7.591   2.960  0.9401 -1.4953 -1.0670
  105MOL    H5423142   1.864   7.770   2.929  0.6505 -0.7723 -0.8224
  105MOL    H5523143   1.751   0.018   2.588  1.4207  3.4805 -0.3923
  105MOL    H5623144   1.862   7.761   2.486  1.1194 -0.0961 -0.1660
  105MOL    C5723145   1.909   0.128   2.503  0.0737 -0.1561  0.3798
  105MOL    C5823146   1.822   0.255   2.536 -0.2839 -0.2764 -1.4635
  105MOL    O5923147   1.730   0.290   2.463 -0.0870 -0.1673  0.1073
  105MOL    C6023148   1.871   0.339   2.653 -0.3653  0.3981  0.1759
  105MOL    C6123149   1.943   0.112   2.352 -0.0399  0.2857 -0.5912
  105MOL    H6223150   2.007   0.146   2.547  1.1962 -2.5190 -1.0998
  105MOL    H6323151   1.968   0.384   2.632  0.4551 -1.3725  0.1224
  105MOL    H6423152   1.800   0.421   2.670 -0.0735  0.0505  3.1830
  105MOL    H6523153   1.863   0.277   2.742  0.2625  1.6627  1.1164
  105MOL    H6623154   1.957   0.211   2.309 -0.7619  0.5569 -0.2028
  105MOL    H6723155   1.860   0.066   2.299 -0.0980  0.7898 -0.9436
  105MOL    C6823156   2.065   0.029   2.321  0.8286 -0.1320  0.1319
  105MOL    C6923157   2.196   0.078   2.375  0.6073  0.2080 -0.0649
  105MOL    O7023158   2.217   0.195   2.413 -0.2829 -0.0108  0.4910
  105MOL    C7123159   2.310   7.816   2.366 -0.6242 -0.0346  0.7704
  105MOL    C7223160   2.085   0.016   2.165 -0.1859  0.5468 -0.7807
  105MOL    H7323161   2.046   7.775   2.369 -0.0196 -0.2336 -0.4020
  105MOL    H7423162   2.401   0.021   2.330 -0.2960 -1.1669  0.1059
  105MOL    H7523163   2.340   7.784   2.466 -0.3223 -2.2006  0.0151
  105MOL    H7623164   2.286   7.738   2.293 -0.3973  1.4775 -0.9534
  105MOL    H7723165   1.989   7.808   2.148  0.3559 -1.0388  0.6749
  105MOL    H7823166   2.152   7.777   2.139 -0.9601 -0.3702  0.0233
  105MOL    C7923167   2.112   0.137   2.077 -0.2262 -0.4498  0.2146
  105MOL    C8023168   2.014   0.163   1.970 -0.3906 -0.2621  0.0188
  105MOL    O8123169   2.044   0.149   1.849 -0.9641  0.3044  0.3464
  105MOL    C8223170   1.879   0.210   2.008  1.1821  0.0053 -0.8298
  105MOL    C8323171   2.258   0.140   2.024 -0.0611  0.2312  0.0938
  105MOL    H8423172   2.104   0.221   2.146  4.9215  1.3543 -1.2022
  105MOL    H8523173   1.805   0.177   1.935 -0.9929  2.3031  0.2501
  105MOL    H8623174   1.850   0.173   2.106 -1.3920  0.6696 -1.3097
  105MOL    H8723175   1.870   0.318   2.018  0.0915  0.0981 -2.6382
  105MOL    H8823176   2.262   0.060   1.950 -2.0222  0.2441 -0.0570
  105MOL    H8923177   2.334   0.097   2.089 -0.3285 -1.7035 -0.8584
  105MOL    C9023178   2.310   0.269   1.962  0.5164 -0.1053 -0.4357
  105MOL    C9123179   2.445   0.244   1.891 -0.3626  0.2428 -0.7965
  105MOL    O9223180   2.529   0.164   1.937 -0.5537  0.1267  0.2601
  105MOL    C9323181   2.467   0.328   1.771  0.1128  0.2420 -0.5446
  105MOL    C9423182   2.334   0.385   2.073  0.0066  0.4497 -0.5781
  105MOL    H9523183   2.244   0.303   1.882 -0.0692  1.6530  0.7672
  105MOL    H9623184   2.465   0.436   1.790 -0.7166 -0.0988  1.4112
  105MOL    H9723185   2.562   0.309   1.722  0.2359 -1.9595  0.5165
  105MOL    H9823186   2.386   0.315   1.700 -0.8767  2.9959  0.0027
  105MOL    H9923187   2.440   0.410   2.071  0.0154  0.2887 -2.5432
  105MOL   H10023188   2.307   0.344   2.171  0.2135 -0.8283 -1.0477
  105MOL   C10123189   2.249   0.515   2.071 -0.6489  0.3773 -0.4049
  105MOL   C10223190   2.251   0.579   1.929 -0.1645  0.4246  0.1322
  105MOL   O10323191   2.356   0.619   1.886  0.0995  0.0695  0.1201
  105MOL   C10423192   2.132   0.554   1.841  1.0350 -0.1272 -0.4611
  105MOL   C10523193   2.272   0.614   2.192  0.3013  0.0289  0.2660
  105MOL   H10623194   2.149   0.471   2.072 -0.5984  0.2765  1.2732
  105MOL   H10723195   2.052   0.537   1.912 -0.7975 -0.3110 -2.4951
  105MOL   H10823196   2.116   0.637   1.772 -2.3157 -2.0392 -2.1553
  105MOL   H10923197   2.151   0.464   1.781  3.4522  0.0879 -0.0682
  105MOL   H11023198   2.354   0.683   2.172 -0.0679 -0.1355 -1.9412
  105MOL   H11123199   2.301   0.562   2.284 -1.2398 -2.0352 -0.3713
  105MOL   C11223200   2.149   0.705   2.227 -0.4066 -0.1445  0.5050
  105MOL   C11323201   2.031   0.609   2.243 -0.1063  0.0632 -1.0917
  105MOL   O11423202   1.947   0.599   2.148  0.4936  0.0400  0.2081
  105MOL   C11523203   2.023   0.533   2.375  0.6424  0.2784 -0.4311
  105MOL   C11623204   2.130   0.819   2.125  0.0187  1.2041  0.7001
  105MOL   H11723205   2.181   0.755   2.319  0.6458  2.5839 -1.2490
  105MOL   H11823206   2.088   0.446   2.363  2.4396  1.5212  0.0976
  105MOL   H11923207   2.038   0.593   2.464 -3.0238  1.3031 -0.4320
  105MOL   H12023208   1.917   0.509   2.390  0.7190 -0.7029 -1.3648
  105MOL   H12123209   2.053   0.789   2.054  0.8932  0.1906  0.1649
  105MOL   H12223210   2.226   0.821   2.073  0.0690  0.7524  0.7725
  105MOL   C12323211   2.106   0.957   2.188  0.1609 -0.5884 -0.6434
  105MOL   C12423212   2.239   1.025   2.237 -0.2347  0.5444  0.6620
  105MOL   O12523213   2.283   0.999   2.346  0.2229 -0.3777 -0.5369
  105MOL   C12623214   2.303   1.135   2.153  0.1201 -0.7710  0.5302
  105MOL   C12723215   1.991   0.972   2.287  0.2855 -0.1821 -0.0529
  105MOL   H12823216   2.076   1.028   2.111 -0.2083 -0.1224 -0.0781
  105MOL   H12923217   2.404   1.101   2.131  0.3263  0.4096 -0.3945
  105MOL   H13023218   2.256   1.155   2.057  3.8886  2.4380 -0.7916
  105MOL   H13123219   2.304   1.219   2.223  1.8931  1.4388 -2.0537
  105MOL   H13223220   1.974   1.074   2.322 -0.5768  0.2588 -1.6968
  105MOL   H13323221   2.017   0.910   2.372  1.7794 -0.4765 -0.6990
  105MOL   C13423222   1.853   0.925   2.231  0.5488  0.6704 -0.5756
  105MOL   C13523223   1.811   0.993   2.105  0.0595  0.5035  0.3214
  105MOL   O13623224   1.833   1.113   2.087 -0.1097 -0.7415 -0.0872
  105MOL   C13723225   1.740   0.912   2.002  0.2448  0.2038 -0.3906
  105MOL   C13823226   1.731   0.944   2.331 -0.5445 -0.4175  0.2469
  105MOL   H13923227   1.858   0.819   2.203 -1.1022  0.2177  0.7603
  105MOL   H14023228   1.789   0.815   1.997 -0.1911 -0.2149  2.3135
  105MOL   H14123229   1.634   0.898   2.024  0.1271  1.8919  0.1967
  105MOL   H14223230   1.742   0.961   1.905 -1.1591  0.3402 -0.3675
  105MOL   H14323231   1.638   0.917   2.281  0.1836  1.3899 -2.1969
  105MOL   H14423232   1.722   1.050   2.357  1.5928 -0.1909  0.2132
  105MOL   C14523233   1.746   0.856   2.455 -0.4244 -0.0505 -0.0932
  105MOL   C14623234   1.626   0.757   2.478 -0.8827 -0.2163  0.5305
  105MOL   O14723235   1.527   0.772   2.552 -0.0144 -0.0449  0.2374
  105MOL   C14823236   1.642   0.629   2.400  0.0985 -0.4913  0.0912
  105MOL   C14923237   1.765   0.941   2.588  0.6779 -0.6519  0.3332
  105MOL   H15023238   1.841   0.801   2.454  0.2699  1.1338 -0.3945
  105MOL   H15123239   1.746   0.599   2.388 -0.1982 -0.5127 -2.9548
  105MOL   H15223240   1.605   0.552   2.467 -0.4457 -1.3321 -1.1485
  105MOL   H15323241   1.580   0.638   2.311 -1.2451 -1.5110  0.9150
  105MOL   H15423242   1.667   0.964   2.632  0.5685 -0.1799 -0.1514
  105MOL   H15523243   1.815   1.035   2.565 -0.9824 -0.1543 -1.4172
  105MOL   C15623244   1.837   0.881   2.717 -0.9715  0.6590  0.1580
  105MOL   C15723245   1.988   0.898   2.700  0.2096 -0.7916 -0.7782
  105MOL   O15823246   2.049   0.816   2.634  0.2029 -0.1131 -0.1816
  105MOL   C15923247   2.055   1.029   2.752  0.5394  0.0206 -0.3723
  105MOL   C16023248   1.789   0.749   2.773  0.2421  0.0747 -0.2401
  105MOL   H16123249   1.816   0.950   2.798  2.9278  2.0408  0.0939
  105MOL   H16223250   2.011   1.119   2.711  2.2436 -0.2298 -2.8279
  105MOL   H16323251   2.057   1.033   2.861 -1.4054 -2.3789 -0.2096
  105MOL   H16423252   2.161   1.032   2.727 -0.0356  1.0845 -2.7672
  105MOL   H16523253   1.810   0.665   2.706 -0.3168 -1.1500  1.0948
  105MOL   H16623254   1.681   0.754   2.784  0.3570  1.3757  0.4458
  105MOL   C16723255   1.837   0.709   2.925 -0.1474 -0.1223 -0.3083
  105MOL   C16823256   1.862   0.557   2.929 -0.6010  0.3267 -0.2149
  105MOL   O16923257   1.769   0.478   2.924 -0.2276 -0.0680  0.0610
  105MOL   C17023258   2.005   0.509   2.938 -0.3743  0.1906  1.5076
  105MOL   C17123259   1.729   0.749   3.032 -0.5763 -0.1694  0.5642
  105MOL   H17223260   1.928   0.761   2.954 -0.5332  0.6766 -0.4998
  105MOL   H17323261   2.027   0.487   2.834 -3.7377  0.9831  0.5565
  105MOL   H17423262   2.088   0.574   2.965  0.4540 -0.5036  0.6732
  105MOL   H17523263   2.022   0.410   2.980 -0.9869 -0.9804 -0.9108
  105MOL   H17623264   1.636   0.696   3.012 -1.1619  0.4364  1.6207
  105MOL   H17723265   1.689   0.850   3.025 -1.3688 -0.4667  0.8203
  105MOL   C17823266   1.768   0.738   3.182 -0.1887  0.0393  0.0189
  105MOL   C17923267   1.907   0.809   3.222  0.9765 -0.0186 -0.1985
  105MOL   O18023268   2.016   0.746   3.221  0.1196 -0.0131  0.0233
  105MOL   C18123269   1.895   0.954   3.257 -0.0107  0.0440 -0.3189
  105MOL   C18223270   1.763   0.599   3.238 -1.0571  0.1979  0.2083
  105MOL   H18323271   1.696   0.793   3.244 -0.3732 -1.6667  1.3623
  105MOL   H18423272   1.939   1.008   3.173  1.8077  0.1186  0.6425
  105MOL   H18523273   1.791   0.985   3.257  0.5871  2.1177 -0.4965
  105MOL   H18623274   1.956   0.987   3.342 -0.3056 -0.4623  0.0921
  105MOL   H18723275   1.835   0.540   3.181 -0.3079  0.7690  0.5502
  105MOL   H18823276   1.665   0.556   3.218 -0.2829 -2.2979  1.5364
  105MOL   C18923277   1.794   0.577   3.390  0.7635 -1.0978 -0.1813
  105MOL   C19023278   1.886   0.464   3.429  0.4661 -0.4275  0.0820
  105MOL   O19123279   1.849   0.368   3.490  0.0281 -0.5276 -0.5443
  105MOL   C19223280   2.035   0.487   3.399  0.5933 -0.0513  0.0344
  105MOL   C19323281   1.668   0.567   3.480  0.5826  0.4114  0.6702
  105MOL   H19423282   1.841   0.665   3.434 -0.5469 -0.0417 -0.8490
  105MOL   H19523283   2.092   0.411   3.453 -0.2219 -1.3990 -0.9601
  105MOL   H19623284   2.051   0.461   3.295  0.0973  0.2592 -0.1192
  105MOL   H19723285   2.073   0.585   3.429 -0.9244  0.4650  0.3098
  105MOL   H19823286   1.696   0.557   3.585  1.6849  2.3552  0.5809
  105MOL   H19923287   1.605   0.484   3.449  1.2079  0.3763 -0.5407
  105MOL   C20023288   1.572   0.688   3.473 -0.5159 -0.2629 -0.2412
  105MOL   C20123289   1.646   0.813   3.534  0.6251  0.4201 -0.3445
  105MOL   O20223290   1.673   0.916   3.465  0.3537  0.2208  0.4583
  105MOL   C20323291   1.672   0.808   3.678  0.7579  0.7400  0.3878
  105MOL   C20423292   1.438   0.664   3.538  0.3468  0.0891  0.4352
  105MOL   H20523293   1.541   0.711   3.371 -1.7216 -2.1046 -0.2989
  105MOL   H20623294   1.673   0.908   3.721 -1.8787  0.4095  1.3075
  105MOL   H20723295   1.602   0.753   3.741  0.1628 -1.0695 -1.7989
  105MOL   H20823296   1.766   0.756   3.692  0.5904  0.1274 -0.6705
  105MOL   H20923297   1.458   0.602   3.625  0.0863  0.8624  1.0428
  105MOL   H21023298   1.385   0.589   3.477 -1.7209 -0.1973  2.5098
  105MOL   C21123299   1.349   0.793   3.564  0.1898 -0.7671  0.0240
  105MOL   C21223300   1.223   0.748   3.638  0.3138 -0.0244  0.8554
  105MOL   O21323301   1.112   0.744   3.582  0.7900 -0.7789  0.4676
  105MOL   C21423302   1.248   0.714   3.779 -0.0004 -0.4723 -0.7887
  105MOL   C21523303   1.320   0.877   3.437  0.2543 -0.0634  0.3921
  105MOL   H21623304   1.402   0.854   3.637  1.5854 -0.2784 -1.3601
  105MOL   H21723305   1.159   0.739   3.838 -0.0531 -0.8882 -0.6913
  105MOL   H21823306   1.240   0.607   3.799  0.3319 -0.6767 -1.7482
  105MOL   H21923307   1.343   0.747   3.819 -1.8161  1.3365  2.2035
  105MOL   H22023308   1.322   0.812   3.349 -0.3187  0.4351  0.0064
  105MOL   H22123309   1.402   0.949   3.425  0.7360 -0.4995  1.0374
  105MOL   H22223310   1.219   0.917   3.443 -0.9954 -3.2235  1.1779
  106MOL     C123311   1.903   3.747   4.032 -0.1142 -0.2060  0.1599
  106MOL     C223312   1.779   3.677   4.068  0.1202 -0.2770 -0.2271
  106MOL     O323313   1.760   3.632   4.182  0.5225 -0.0934 -0.5529
  106MOL     C423314   1.676   3.661   3.959 -0.5756  0.3684 -0.2994
  106MOL     C523315   2.039   3.677   4.082  0.1716  0.9174 -0.2436
  106MOL     H623316   1.900   3.732   3.924  0.6477  1.9267 -0.1752
  106MOL     H723317   1.628   3.565   3.978 -0.0411 -0.3173 -2.1989
  106MOL     H823318   1.606   3.743   3.947 -1.5150 -0.7964 -3.3075
  106MOL     H923319   1.729   3.646   3.865 -0.1859  0.4302 -0.0914
  106MOL    H1023320   2.085   3.598   4.023  0.3987  0.2386  0.8263
  106MOL    H1123321   2.017   3.642   4.183  1.6016 -1.5998 -0.7403
  106MOL    H1223322   1.897   3.853   4.055 -2.3840 -0.7068  2.0233
  106MOL    C1323323   2.157   3.778   4.103  0.3631  1.2414 -0.7129
  106MOL    C1423324   2.213   3.813   3.965 -0.6201  0.0792  0.4265
  106MOL    O1523325   2.191   3.928   3.921  0.1443  0.0672 -0.3187
  106MOL    C1623326   2.271   3.707   3.868 -0.6569 -0.4110  0.1155
  106MOL    C1723327   2.276   3.720   4.187  0.5823 -0.0025  0.1335
  106MOL    H1823328   2.111   3.868   4.145  1.5430  1.4107  0.2478
  106MOL    H1923329   2.202   3.686   3.786  0.6251 -1.6282 -0.6652
  106MOL    H2023330   2.361   3.749   3.823 -1.2105 -0.2664 -0.8741
  106MOL    H2123331   2.294   3.611   3.914 -1.5187 -0.9244 -0.5059
  106MOL    H2223332   2.358   3.790   4.174 -1.1258  2.0626  0.1700
  106MOL    H2323333   2.312   3.629   4.138  0.0333 -0.4508  0.5511
  106MOL    C2423334   2.260   3.696   4.338 -0.0102  0.5997 -0.5286
  106MOL    C2523335   2.232   3.826   4.410 -0.8559  0.6855 -0.8509
  106MOL    O2623336   2.268   3.940   4.378  0.0143  0.2072 -0.6851
  106MOL    C2723337   2.176   3.799   4.550  0.2337  0.3995  0.5005
  106MOL    C2823338   2.381   3.621   4.401  0.5291  0.1542  0.3118
  106MOL    H2923339   2.168   3.640   4.353 -0.9673  2.3578  0.2242
  106MOL    H3023340   2.174   3.892   4.607 -1.3272  0.9663 -0.4606
  106MOL    H3123341   2.084   3.742   4.558  0.4816 -0.2940 -1.3645
  106MOL    H3223342   2.242   3.741   4.615 -0.0548  0.7443  1.1110
  106MOL    H3323343   2.378   3.611   4.510  2.5363  1.0617  0.4654
  106MOL    H3423344   2.472   3.676   4.376  0.6885 -0.5500 -0.6714
  106MOL    C3523345   2.408   3.482   4.352  0.9424 -0.1561  0.1509
  106MOL    C3623346   2.291   3.380   4.348 -0.2983  0.4404 -0.0160
  106MOL    O3723347   2.270   3.299   4.439 -0.1783 -0.2386  0.3683
  106MOL    C3823348   2.226   3.367   4.211  0.0379  0.2857  0.3594
  106MOL    C3923349   2.541   3.424   4.411  0.6715 -0.3458 -0.1220
  106MOL    H4023350   2.430   3.499   4.246 -2.1588 -0.5010 -0.5940
  106MOL    H4123351   2.261   3.273   4.168  2.2714  1.7146 -1.1339
  106MOL    H4223352   2.121   3.388   4.196  0.0841  0.8699  0.8288
  106MOL    H4323353   2.277   3.434   4.141 -0.9350  0.6294 -0.0204
  106MOL    H4423354   2.510   3.381   4.506 -0.9662  1.9378  0.4259
  106MOL    H4523355   2.607   3.500   4.452  0.1341 -0.7630  1.5328
  106MOL    C4623356   2.615   3.317   4.324 -0.5516  0.6075 -0.8066
  106MOL    C4723357   2.663   3.203   4.409 -0.1343  0.2369  0.2530
  106MOL    O4823358   2.668   3.088   4.362 -0.0092 -0.2448  0.0297
  106MOL    C4923359   2.744   3.237   4.533  0.1366  0.5349  0.9596
  106MOL    C5023360   2.730   3.374   4.234 -0.2441 -0.6948  0.2187
  106MOL    H5123361   2.536   3.269   4.266  0.8265 -2.3028 -0.3695
  106MOL    H5223362   2.729   3.170   4.617 -2.5649  0.5205  0.5121
  106MOL    H5323363   2.849   3.228   4.505  0.2799  0.2664  1.5815
  106MOL    H5423364   2.710   3.333   4.572 -0.2994  0.1122  1.6197
  106MOL    H5523365   2.802   3.296   4.209  0.3353  0.0170 -0.3920
  106MOL    H5623366   2.780   3.451   4.294 -3.3200  1.0407  0.6425
  106MOL    C5723367   2.689   3.449   4.103 -0.3581 -0.1017 -0.7829
  106MOL    C5823368   2.582   3.373   4.020 -0.1614 -0.8160 -0.1242
  106MOL    O5923369   2.478   3.433   3.997  0.3629  0.2256  0.2031
  106MOL    C6023370   2.610   3.237   3.957 -0.5024  0.0547 -0.5024
  106MOL    C6123371   2.810   3.495   4.018 -0.5717  0.8859 -0.0602
  106MOL    H6223372   2.620   3.523   4.141  1.2967  0.6129  0.9125
  106MOL    H6323373   2.536   3.182   3.898  0.4647 -1.2879 -0.4676
  106MOL    H6423374   2.694   3.260   3.891  0.4324 -0.6836  0.4091
  106MOL    H6523375   2.641   3.177   4.042 -0.2431  0.7151 -0.1325
  106MOL    H6623376   2.860   3.417   3.961  1.1187  2.3243 -0.6077
  106MOL    H6723377   2.895   3.526   4.079  0.0142 -0.8468  0.0049
  106MOL    C6823378   2.784   3.615   3.917  0.7329 -0.0349 -0.3789
  106MOL    C6923379   2.732   3.574   3.782  0.3089  0.2179 -0.6579
  106MOL    O7023380   2.767   3.474   3.716  0.2215  1.0761 -0.7094
  106MOL    C7123381   2.631   3.663   3.713 -0.1439  0.1388  0.2420
  106MOL    C7223382   2.894   3.717   3.908  0.3086 -0.3720  0.1306
  106MOL    H7323383   2.704   3.681   3.951  0.6245  0.2812 -1.2280
  106MOL    H7423384   2.585   3.623   3.622  0.1520 -0.9192  0.5435
  106MOL    H7523385   2.557   3.702   3.782 -2.0930 -0.8540 -1.2535
  106MOL    H7623386   2.690   3.753   3.693  0.2931  0.0138  0.9269
  106MOL    H7723387   2.882   3.775   3.816 -0.1658 -2.1916 -0.9796
  106MOL    H7823388   2.991   3.668   3.901  1.6069  2.1058  0.0851
  106MOL    C7923389   2.883   3.809   4.036 -0.0809  1.6578  0.6479
  106MOL    C8023390   2.767   3.906   4.026 -0.6813  0.0999 -0.6334
  106MOL    O8123391   2.766   3.982   3.929 -0.1693  0.1090 -0.0308
  106MOL    C8223392   2.652   3.898   4.124 -0.0825 -0.5442  0.0584
  106MOL    C8323393   3.018   3.881   4.056 -0.4287 -0.2504 -0.4176
  106MOL    H8423394   2.863   3.744   4.121  1.0766 -0.8821 -0.9618
  106MOL    H8523395   2.558   3.849   4.100  0.5155 -1.1018 -1.2215
  106MOL    H8623396   2.687   3.866   4.222  0.2060  1.1859  0.5431
  106MOL    H8723397   2.618   3.996   4.156  0.6951  0.0574 -0.8993
  106MOL    H8823398   3.032   3.947   3.970 -1.1620 -1.2282 -1.2947
  106MOL    H8923399   3.101   3.814   4.036  0.2694  0.3760  0.3301
  106MOL    C9023400   3.055   3.948   4.186 -0.4156 -0.2637  0.1363
  106MOL    C9123401   3.026   3.857   4.303  0.6114  0.0109 -0.2315
  106MOL    O9223402   2.927   3.863   4.377 -0.7307  0.3102 -0.7521
  106MOL    C9323403   3.137   3.766   4.338  0.0107  0.2012 -0.4135
  106MOL    C9423404   2.990   4.084   4.198 -0.1678 -0.4517  0.1023
  106MOL    H9523405   3.163   3.966   4.187 -0.6174  0.9644  0.2865
  106MOL    H9623406   3.104   3.664   4.317  0.0557  0.1125 -0.0510
  106MOL    H9723407   3.219   3.792   4.272  0.0616 -2.2049 -1.3433
  106MOL    H9823408   3.178   3.775   4.438  2.2714 -1.8674 -1.1182
  106MOL    H9923409   2.886   4.063   4.223 -0.6702 -1.5316 -2.7141
  106MOL   H10023410   2.987   4.127   4.098  1.1036  2.7430  1.3835
  106MOL   C10123411   3.061   4.168   4.307 -0.3408 -0.1276 -0.5115
  106MOL   C10223412   2.977   4.290   4.359  0.1442 -0.1916  1.1441
  106MOL   O10323413   2.999   4.407   4.327  0.4422 -0.0804 -0.0477
  106MOL   C10423414   2.843   4.249   4.436  0.4732 -0.2146  0.2684
  106MOL   C10523415   3.208   4.201   4.265  0.1046  0.9167  0.1388
  106MOL   H10623416   3.076   4.102   4.393 -1.6051 -0.1376 -0.2933
  106MOL   H10723417   2.807   4.147   4.428 -0.1810  0.1229 -1.3507
  106MOL   H10823418   2.869   4.271   4.539 -1.9393 -2.0538  1.3040
  106MOL   H10923419   2.766   4.319   4.405  0.6369 -0.0143  0.3090
  106MOL   H11023420   3.228   4.308   4.268 -1.3918  1.2108  0.3722
  106MOL   H11123421   3.211   4.182   4.157 -0.1128 -0.6782  0.3976
  106MOL   C11223422   3.316   4.121   4.346  0.1607 -0.0811 -0.0394
  106MOL   C11323423   3.338   4.169   4.488  0.0688  0.1104 -0.1284
  106MOL   O11423424   3.316   4.106   4.589 -0.2897  0.6646  0.2269
  106MOL   C11523425   3.387   4.309   4.510 -1.0518 -0.2097 -0.2566
  106MOL   C11623426   3.453   4.129   4.267 -0.4750 -0.6241 -0.4053
  106MOL   H11723427   3.277   4.020   4.356 -2.5460  0.9648  0.4823
  106MOL   H11823428   3.330   4.363   4.586 -0.0631 -0.1744  0.4681
  106MOL   H11923429   3.490   4.303   4.546 -1.2680 -1.2754  0.2121
  106MOL   H12023430   3.380   4.358   4.413 -0.8394  1.5660  0.6047
  106MOL   H12123431   3.531   4.190   4.313 -0.1779 -0.2700 -1.3531
  106MOL   H12223432   3.443   4.191   4.178 -0.5485  0.2414  0.2033
  106MOL   C12323433   3.541   4.001   4.229 -0.0571 -0.7917 -0.6656
  106MOL   C12423434   3.476   3.935   4.108  0.0284 -0.6598 -0.2003
  106MOL   O12523435   3.390   3.853   4.121  0.9143  0.5665 -0.0782
  106MOL   C12623436   3.521   3.993   3.970  0.0885  0.0083  0.3223
  106MOL   C12723437   3.543   3.903   4.348  0.0177  0.0080 -0.2732
  106MOL   H12823438   3.646   4.029   4.214  0.5864 -2.4614  0.5858
  106MOL   H12923439   3.460   4.079   3.944  2.1194  0.9912 -1.2746
  106MOL   H13023440   3.626   4.021   3.964  0.5253 -1.4874  0.7491
  106MOL   H13123441   3.510   3.911   3.900 -2.6635 -0.0773  0.7665
  106MOL   H13223442   3.449   3.913   4.401  1.3067 -1.1592  2.3176
  106MOL   H13323443   3.618   3.942   4.417 -0.9095  2.0610 -0.4095
  106MOL   C13423444   3.587   3.758   4.325 -0.0069 -0.0943 -0.0533
  106MOL   C13523445   3.560   3.671   4.449  0.5104  1.1151  0.3615
  106MOL   O13623446   3.622   3.700   4.553 -0.4852 -0.1276  0.4600
  106MOL   C13723447   3.458   3.557   4.446 -0.2512  0.2049  0.8505
  106MOL   C13823448   3.741   3.751   4.293  0.5214 -0.0530  0.4579
  106MOL   H13923449   3.538   3.702   4.246  2.3642 -2.2661 -0.0611
  106MOL   H14023450   3.364   3.601   4.414  1.6140  2.7799 -1.3996
  106MOL   H14123451   3.485   3.483   4.371 -1.0890 -1.4210  2.1173
  106MOL   H14223452   3.442   3.507   4.542 -0.7863  0.2412  0.7774
  106MOL   H14323453   3.792   3.665   4.336 -0.5767 -0.9934 -0.0968
  106MOL   H14423454   3.781   3.844   4.335  0.8406 -1.0223  2.3363
  106MOL   C14523455   3.777   3.740   4.140 -0.4039  0.4595 -0.5239
  106MOL   C14623456   3.724   3.614   4.075  0.1760 -0.1319 -0.0553
  106MOL   O14723457   3.671   3.529   4.145 -0.0866  0.3551 -0.0579
  106MOL   C14823458   3.727   3.604   3.926 -0.4596  0.2477  0.8794
  106MOL   C14923459   3.932   3.748   4.113  0.6476 -0.3250  0.6707
  106MOL   H15023460   3.725   3.821   4.088 -2.2425 -0.3224  0.0373
  106MOL   H15123461   3.641   3.552   3.885 -0.5351  2.5277 -2.0040
  106MOL   H15223462   3.747   3.700   3.878 -1.7279  0.7849  1.4076
  106MOL   H15323463   3.814   3.539   3.915 -2.3386 -2.1349 -0.3977
  106MOL   H15423464   3.964   3.715   4.013  0.3056  2.0147 -0.2317
  106MOL   H15523465   3.963   3.672   4.185  1.8146  0.0732  0.5898
  106MOL   C15623466   4.009   3.865   4.156  0.0548  0.0097  0.2291
  106MOL   C15723467   3.962   3.995   4.093  0.5052  0.0054 -0.1437
  106MOL   O15823468   3.931   4.013   3.976 -0.3019 -0.3612 -0.0001
  106MOL   C15923469   3.952   4.116   4.180  0.5553  0.0651  0.7167
  106MOL   C16023470   4.164   3.854   4.134  1.4809  0.5426  0.0912
  106MOL   H16123471   3.993   3.887   4.261 -2.1734 -0.4312 -0.0004
  106MOL   H16223472   4.044   4.174   4.182  1.9475 -2.0645 -0.1894
  106MOL   H16323473   3.892   4.190   4.126  0.2389  0.7782  2.0369
  106MOL   H16423474   3.919   4.089   4.280 -0.7732  0.7409  0.4850
  106MOL   H16523475   4.200   3.941   4.080 -0.9432  0.7900 -1.2183
  106MOL   H16623476   4.189   3.783   4.054  0.1060  0.0296  0.0992
  106MOL   C16723477   4.246   3.820   4.263 -0.6703  0.3234 -0.1038
  106MOL   C16823478   4.260   3.940   4.365 -0.4431 -0.6725  0.3760
  106MOL   O16923479   4.232   4.054   4.331 -1.1135 -0.0642 -0.4283
  106MOL   C17023480   4.303   3.907   4.507 -0.5159  0.4514  0.8500
  106MOL   C17123481   4.391   3.771   4.221 -0.6955 -0.4262 -0.2146
  106MOL   H17223482   4.193   3.744   4.320  0.4951 -0.1384  0.3857
  106MOL   H17323483   4.297   3.800   4.528  3.0956  0.2322  1.0632
  106MOL   H17423484   4.410   3.924   4.494 -0.8697  2.9791  0.9692
  106MOL   H17523485   4.262   3.971   4.585 -1.0532  0.8592  0.2327
  106MOL   H17623486   4.459   3.832   4.279 -1.6163  0.0800  0.3408
  106MOL   H17723487   4.406   3.818   4.123  1.7892 -0.8975 -0.0776
  106MOL   C17823488   4.418   3.617   4.233  0.0879 -0.5915 -0.1271
  106MOL   C17923489   4.398   3.568   4.372  0.0882 -0.0544  0.1847
  106MOL   O18023490   4.474   3.618   4.456 -0.4658  0.5244 -0.0895
  106MOL   C18123491   4.290   3.462   4.413  0.4214 -0.0732  0.0248
  106MOL   C18223492   4.559   3.583   4.182  0.4917 -0.7160 -0.1696
  106MOL   H18323493   4.341   3.578   4.166 -1.4749  1.2887  0.5219
  106MOL   H18423494   4.249   3.477   4.513  1.7742 -0.1016  0.5802
  106MOL   H18523495   4.207   3.470   4.342  0.7734  1.1316 -0.2718
  106MOL   H18623496   4.328   3.360   4.409  0.8489  0.1250 -1.2120
  106MOL   H18723497   4.632   3.649   4.227 -0.3688  0.0569  0.1131
  106MOL   H18823498   4.554   3.617   4.078 -3.8775  2.2626  0.8675
  106MOL   C18923499   4.602   3.432   4.192 -0.4790 -0.5982  0.3997
  106MOL   C19023500   4.751   3.418   4.201 -0.1580  0.7669 -0.2945
  106MOL   O19123501   4.822   3.486   4.127  0.1572  0.0257  0.5921
  106MOL   C19223502   4.816   3.333   4.315  0.8195 -0.4121 -0.0033
  106MOL   C19323503   4.538   3.348   4.078 -0.1041 -0.3152 -0.5063
  106MOL   H19423504   4.565   3.392   4.287 -2.6302  0.0198 -0.1593
  106MOL   H19523505   4.898   3.270   4.281  1.8953  0.5273  0.7851
  106MOL   H19623506   4.851   3.402   4.393 -1.3308  1.7906 -0.9279
  106MOL   H19723507   4.757   3.256   4.366  0.5455 -0.0485  0.2301
  106MOL   H19823508   4.606   3.288   4.017 -0.6630 -1.9529  0.4745
  106MOL   H19923509   4.484   3.417   4.012 -0.2943  0.1986  0.1870
  106MOL   C20023510   4.433   3.235   4.131  0.5565 -0.1756  0.8373
  106MOL   C20123511   4.500   3.139   4.231  0.0675  0.1613 -0.9402
  106MOL   O20223512   4.615   3.105   4.220 -0.6223  0.0047 -0.0513
  106MOL   C20323513   4.412   3.073   4.335  0.1770 -0.1825 -0.3225
  106MOL   C20423514   4.363   3.162   4.013 -0.1624  0.1683  0.1768
  106MOL   H20523515   4.353   3.290   4.182 -0.2422 -1.1204  0.6330
  106MOL   H20623516   4.313   3.117   4.346  0.9736  1.8511 -1.0069
  106MOL   H20723517   4.396   2.974   4.294  0.3987 -0.5254  0.3996
  106MOL   H20823518   4.454   3.065   4.436 -0.1010 -0.7346 -0.2492
  106MOL   H20923519   4.352   3.058   4.043 -0.0573  0.0366 -0.2410
  106MOL   H21023520   4.426   3.155   3.924 -1.1830  3.5956 -0.8969
  106MOL   C21123521   4.228   3.222   3.958 -0.5565 -0.6839  0.2154
  106MOL   C21223522   4.126   3.250   4.065  1.0226  0.6343  0.3106
  106MOL   O21323523   4.121   3.200   4.175  0.3945 -0.3917  0.4939
  106MOL   C21423524   4.001   3.315   4.018 -0.4515 -0.3989  0.0283
  106MOL   C21523525   4.182   3.148   3.831 -0.0168 -0.4296 -0.0873
  106MOL   H21623526   4.260   3.322   3.929  0.9230 -1.3438 -0.4765
  106MOL   H21723527   3.924   3.248   3.978 -0.7305  0.2655 -0.5648
  106MOL   H21823528   3.963   3.384   4.093 -2.0514 -1.4514  0.2100
  106MOL   H21923529   4.018   3.386   3.937  1.8749 -0.9949 -0.0211
  106MOL   H22023530   4.119   3.212   3.769 -0.1787  0.5949  1.1279
  106MOL   H22123531   4.100   3.077   3.845  0.1258 -0.5672  0.0527
  106MOL   H22223532   4.266   3.105   3.777  1.0265  0.7471  0.5792
  107MOL     C123533   6.602   7.261   6.849 -0.8192  0.3730 -0.0648
  107MOL     C223534   6.581   7.117   6.792 -0.5770  0.1722 -0.2325
  107MOL     O323535   6.476   7.055   6.821 -0.0272 -0.5836  0.2002
  107MOL     C423536   6.683   7.061   6.695  0.0430  0.2657 -0.2925
  107MOL     C523537   6.475   7.347   6.837  0.6438 -0.4426  1.1786
  107MOL     H623538   6.639   7.249   6.951 -0.8634  1.5747  0.1014
  107MOL     H723539   6.730   7.134   6.629 -1.9287  2.3363  0.5312
  107MOL     H823540   6.758   7.008   6.754 -1.5467 -1.2651  0.4019
  107MOL     H923541   6.627   6.991   6.633 -1.1287  0.2604  0.7523
  107MOL    H1023542   6.384   7.301   6.873 -2.0553  2.0435 -2.1647
  107MOL    H1123543   6.445   7.344   6.732 -0.1526  1.5771  1.3426
  107MOL    H1223544   6.687   7.312   6.804 -0.2162 -1.3312 -0.9302
  107MOL    C1323545   6.496   7.485   6.893  0.0977  0.5322 -0.0227
  107MOL    C1423546   6.380   7.527   6.984  0.4481 -0.4591 -0.9302
  107MOL    O1523547   6.402   7.570   7.099 -0.1458  0.5282  0.0710
  107MOL    C1623548   6.238   7.512   6.937 -0.4396 -0.4914 -0.3310
  107MOL    C1723549   6.514   7.586   6.778 -0.5866  0.2339 -0.0579
  107MOL    H1823550   6.568   7.473   6.974  1.9789 -0.1068 -1.7620
  107MOL    H1923551   6.203   7.565   6.849  2.7586  1.6599 -0.3565
  107MOL    H2023552   6.216   7.405   6.928  1.7529 -0.9867  0.0823
  107MOL    H2123553   6.186   7.551   7.024 -0.9172 -0.2738 -0.7096
  107MOL    H2223554   6.423   7.580   6.718 -1.3807 -0.4663  1.1859
  107MOL    H2323555   6.596   7.556   6.713  0.0019 -2.3387  1.7942
  107MOL    C2423556   6.532   7.734   6.827  0.5115 -0.3752  0.1866
  107MOL    C2523557   6.487   7.833   6.713 -0.9644 -0.6862  0.2818
  107MOL    O2623558   6.524   7.815   6.599 -0.2471 -0.5313  0.4867
  107MOL    C2723559   6.379   0.097   6.739 -0.1463 -0.9920 -0.3123
  107MOL    C2823560   6.675   7.764   6.871  0.2293 -0.4461  0.0338
  107MOL    H2923561   6.460   7.757   6.905 -0.8968 -2.0307 -0.5998
  107MOL    H3023562   6.282   0.056   6.712 -0.6278  0.1613 -0.3560
  107MOL    H3123563   6.382   0.121   6.846  1.2559 -0.0210 -0.5459
  107MOL    H3223564   6.396   0.190   6.685  2.2826 -0.5158  1.1637
  107MOL    H3323565   6.707   0.024   6.850 -0.7600 -0.1621 -0.1185
  107MOL    H3423566   6.739   7.701   6.810  2.2720  2.9341 -1.4638
  107MOL    C3523567   6.712   7.734   7.020 -0.4278 -0.3766  0.6191
  107MOL    C3623568   6.637   7.817   7.115  0.6127 -0.2622 -0.0105
  107MOL    O3723569   6.573   0.077   7.083  0.1728  0.4231  0.7574
  107MOL    C3823570   6.634   7.760   7.255 -0.6567  0.3048 -0.0069
  107MOL    C3923571   6.868   7.756   7.043  0.4622 -0.6360  0.4001
  107MOL    H4023572   6.674   7.634   7.042 -1.7496 -0.2109 -0.8078
  107MOL    H4123573   6.580   7.666   7.255  0.0691 -0.1117 -0.6583
  107MOL    H4223574   6.737   7.752   7.290 -0.0385  0.1260 -1.8027
  107MOL    H4323575   6.592   7.830   7.328 -0.1272  1.9611 -1.2731
  107MOL    H4423576   6.883   7.732   7.149 -2.5879 -0.2903  0.9668
  107MOL    H4523577   6.893   0.016   7.014 -1.4044 -0.2925 -0.0882
  107MOL    C4623578   6.964   7.656   6.976  0.0109 -0.2090  0.7110
  107MOL    C4723579   6.944   7.511   7.025 -0.1574  1.2031  0.7837
  107MOL    O4823580   6.871   7.434   6.964  1.0515  0.6187 -0.6507
  107MOL    C4923581   7.021   7.466   7.146  0.2843  0.2078  0.0256
  107MOL    C5023582   7.106   7.716   6.986 -0.2886  0.5109  0.2954
  107MOL    H5123583   6.945   7.665   6.869  2.1032  2.3665  0.5115
  107MOL    H5223584   7.129   7.451   7.140 -0.1060 -2.2954 -1.6100
  107MOL    H5323585   6.998   7.539   7.224  0.2470 -0.0257  0.2348
  107MOL    H5423586   6.983   7.370   7.182 -0.1816 -0.0230 -1.0647
  107MOL    H5523587   7.145   7.686   7.083  0.7965 -2.7951 -1.0820
  107MOL    H5623588   7.102   7.825   6.984 -1.4199  0.6030  3.9213
  107MOL    C5723589   7.212   7.671   6.882 -0.1956 -0.3750 -0.0301
  107MOL    C5823590   7.351   7.700   6.941 -0.4978  0.5093 -0.5698
  107MOL    O5923591   7.412   7.805   6.915  0.1528 -0.2526  0.5815
  107MOL    C6023592   7.423   7.596   7.029 -0.0440 -0.3303  0.3246
  107MOL    C6123593   7.199   7.724   6.737  0.7214  0.0104  0.6209
  107MOL    H6223594   7.203   7.562   6.872 -1.2172 -0.4524  1.5439
  107MOL    H6323595   7.454   7.623   7.130 -1.3356 -0.6971  0.8348
  107MOL    H6423596   7.359   7.508   7.037  2.3419 -2.1272  0.0923
  107MOL    H6523597   7.509   7.557   6.975 -0.3926  0.3232 -0.7241
  107MOL    H6623598   7.218   7.831   6.749  0.2264  0.0811  0.7983
  107MOL    H6723599   7.094   7.716   6.708  0.7073 -1.9120  1.1208
  107MOL    C6823600   7.295   7.681   6.622 -0.0767  0.1635  0.4698
  107MOL    C6923601   7.271   7.768   6.504  0.0527 -0.1929 -0.2742
  107MOL    O7023602   7.221   7.717   6.406  0.0447  0.3315 -0.3752
  107MOL    C7123603   7.318   0.067   6.504 -0.2971  1.2179  0.1449
  107MOL    C7223604   7.290   7.528   6.598  0.0286  0.0047  0.0676
  107MOL    H7323605   7.396   7.706   6.657  0.1964 -0.0023 -0.1953
  107MOL    H7423606   7.395   0.070   6.581  0.8075 -1.0402 -0.8210
  107MOL    H7523607   7.358   0.083   6.404 -0.1727 -0.0321 -0.0228
  107MOL    H7623608   7.242   0.141   6.526  0.3546  1.0182  3.2738
  107MOL    H7723609   7.194   7.484   6.572  0.9117 -3.3544  2.1871
  107MOL    H7823610   7.321   7.492   6.697 -0.2052 -0.2394  0.0517
  107MOL    C7923611   7.406   7.478   6.500 -0.4899  0.7283 -0.2749
  107MOL    C8023612   7.362   7.362   6.414 -0.0860  0.1393  0.4131
  107MOL    O8123613   7.353   7.250   6.461  0.0353 -0.3721 -0.6905
  107MOL    C8223614   7.314   7.391   6.278  0.5492 -0.6538  0.6787
  107MOL    C8323615   7.543   7.458   6.572  0.4989  0.3564 -0.3992
  107MOL    H8423616   7.409   7.559   6.427  0.2853  0.2823 -0.7428
  107MOL    H8523617   7.288   7.497   6.272 -0.0476 -0.9323 -3.0671
  107MOL    H8623618   7.403   7.361   6.222  1.4649 -1.3717  2.4712
  107MOL    H8723619   7.233   7.326   6.246  1.1416 -0.7235 -0.7262
  107MOL    H8823620   7.541   7.361   6.621 -1.0547  0.5769 -0.0047
  107MOL    H8923621   7.544   7.529   6.655 -0.0037  1.4191 -1.2839
  107MOL    C9023622   7.672   7.475   6.485 -0.0835  0.5876  0.3125
  107MOL    C9123623   7.699   7.617   6.450 -0.9623  0.0198 -0.2730
  107MOL    O9223624   7.614   7.700   6.427 -0.0400 -0.0677  0.1044
  107MOL    C9323625   7.841   7.660   6.449 -0.1802 -0.2606 -0.6999
  107MOL    C9423626   7.698   7.381   6.365  0.3741  0.4972  0.0599
  107MOL    H9523627   7.747   7.448   6.559 -0.5885  2.3906  1.5094
  107MOL    H9623628   0.060   7.597   6.383  0.0215 -1.0430  0.2160
  107MOL    H9723629   0.006   7.767   6.430  0.3641 -0.4315 -1.4741
  107MOL    H9823630   0.044   7.643   6.547  0.8412 -1.8374 -1.4134
  107MOL    H9923631   7.801   7.389   6.330  0.1226 -2.3418 -1.4980
  107MOL   H10023632   7.649   7.414   6.273 -0.1279  0.5646  0.3502
  107MOL   C10123633   7.674   7.224   6.386 -0.6513  0.6153  0.0910
  107MOL   C10223634   7.744   7.166   6.510 -0.1681  0.0892 -0.4126
  107MOL   O10323635   0.007   7.218   6.541 -0.3178 -0.3749  0.2412
  107MOL   C10423636   7.687   7.051   6.595  0.4753 -0.1532  0.1849
  107MOL   C10523637   7.687   7.134   6.260 -0.8391 -0.2216  0.1754
  107MOL   H10623638   7.570   7.196   6.405 -0.2675 -1.8386 -1.3449
  107MOL   H10723639   7.689   7.076   6.701 -0.4103  2.8722 -0.4474
  107MOL   H10823640   7.581   7.046   6.571  0.2303 -1.3839  1.4792
  107MOL   H10923641   7.728   6.951   6.582 -0.4126 -0.4361 -0.5205
  107MOL   H11023642   7.624   7.177   6.182  0.1491  0.9878  0.0314
  107MOL   H11123643   7.630   7.043   6.281  0.7148 -0.9877  1.1609
  107MOL   C11223644   7.826   7.109   6.213 -0.8890  0.7279  0.1775
  107MOL   C11323645   7.835   7.128   6.061  0.4007 -0.1240  0.5346
  107MOL   O11423646   7.767   7.052   5.989 -0.1213  0.0589 -0.2971
  107MOL   C11523647   0.080   7.227   5.996 -0.5434 -0.3523 -0.3539
  107MOL   C11623648   0.030   6.971   6.256 -0.1553  0.4249 -0.1735
  107MOL   H11723649   0.049   7.191   6.244 -1.8368  0.9669  1.6075
  107MOL   H11823650   0.018   7.317   5.987 -1.8359 -0.9207  2.3335
  107MOL   H11923651   0.168   7.256   6.053  0.2199 -2.4101 -0.4588
  107MOL   H12023652   0.117   7.189   5.900 -2.7095  0.1087 -1.4204
  107MOL   H12123653   7.831   6.899   6.185 -3.0778  1.5318  0.3094
  107MOL   H12223654   7.826   6.952   6.353  1.2828  1.7954  0.8065
  107MOL   C12323655   0.189   6.961   6.283  0.9109  0.0756 -0.0929
  107MOL   C12423656   0.273   7.020   6.172  0.0983 -0.1990 -0.4937
  107MOL   O12523657   0.327   7.132   6.193  0.0641  0.3273  0.2538
  107MOL   C12623658   0.284   6.940   6.046  0.4554 -0.5532 -0.4242
  107MOL   C12723659   0.223   6.840   6.351 -0.0762  0.0096  0.2730
  107MOL   H12823660   0.190   7.038   6.361  1.2649 -2.2801  2.2724
  107MOL   H12923661   0.366   6.981   5.986 -1.6348  1.9992 -1.6809
  107MOL   H13023662   0.301   6.835   6.067 -3.4373 -0.9677  1.1263
  107MOL   H13123663   0.192   6.957   5.989  0.0469 -0.4381  0.2665
  107MOL   H13223664   0.228   6.763   6.273 -0.2585  0.6029 -0.3311
  107MOL   H13323665   0.134   6.815   6.408 -0.2317  1.2596  0.5807
  107MOL   C13423666   0.355   6.847   6.441 -0.4739  0.1255 -0.0893
  107MOL   C13523667   0.479   6.866   6.358  0.0409 -0.4798 -1.4139
  107MOL   O13623668   0.496   6.792   6.261 -0.3074  0.0877 -0.0600
  107MOL   C13723669   0.581   6.961   6.400 -0.5649  0.6868  0.3085
  107MOL   C13823670   0.366   6.720   6.522  0.2270 -0.2773 -0.1474
  107MOL   H13923671   0.348   6.940   6.498 -2.3525 -0.4353  0.6485
  107MOL   H14023672   0.599   6.947   6.506  0.1625 -0.6684  0.0060
  107MOL   H14123673   0.671   6.927   6.349  0.0459 -0.4593  2.0989
  107MOL   H14223674   0.566   7.062   6.361 -0.0624  0.3458 -0.7697
  107MOL   H14323675   0.465   6.700   6.563 -0.8008 -3.6215  0.9216
  107MOL   H14423676   0.346   6.641   6.450 -1.8591  1.5489 -1.6164
  107MOL   C14523677   0.269   6.703   6.646  0.2601 -0.0330 -0.2689
  107MOL   C14623678   0.334   6.745   6.776  0.5819  0.0769  0.7894
  107MOL   O14723679   0.447   6.705   6.803  0.4277  0.3388  0.4466
  107MOL   C14823680   0.263   6.847   6.860 -0.6324  0.1323 -0.3357
  107MOL   C14923681   0.220   6.559   6.659 -0.8554  0.3452 -0.1451
  107MOL   H15023682   0.181   6.767   6.636  0.7553  0.6018 -0.5048
  107MOL   H15123683   0.295   6.832   6.963 -0.6211  0.6726 -0.2595
  107MOL   H15223684   0.287   6.946   6.821 -0.2914  0.7530  1.4221
  107MOL   H15323685   0.155   6.833   6.849 -0.8772  0.9842  0.9512
  107MOL   H15423686   0.299   6.490   6.685 -0.0661  1.7362  1.2054
  107MOL   H15523687   0.181   6.524   6.563 -1.8026 -0.2315  0.4469
  107MOL   C15623688   0.099   6.534   6.760 -0.6773 -0.3226 -0.2252
  107MOL   C15723689   0.112   6.397   6.812 -0.1412  0.4917  0.1117
  107MOL   O15823690   0.045   6.301   6.762  0.1878 -0.2897  0.2004
  107MOL   C15923691   0.226   6.367   6.922  0.5229  0.6614 -0.4537
  107MOL   C16023692   7.800   6.577   6.700  0.6787  0.0298 -0.6874
  107MOL   H16123693   0.132   6.596   6.843 -0.7247  0.0141 -0.4550
  107MOL   H16223694   0.209   6.428   7.011  0.5890 -0.2408  0.1827
  107MOL   H16323695   0.235   6.265   6.959 -1.7776  0.8532  0.7437
  107MOL   H16423696   0.319   6.406   6.881 -0.2075  0.8598 -1.9494
  107MOL   H16523697   7.768   6.491   6.642 -0.0966  1.6822 -2.7765
  107MOL   H16623698   7.832   6.662   6.639  2.6467 -0.3384 -0.2109
  107MOL   C16723699   7.682   6.617   6.797  0.2337 -0.1338 -0.1542
  107MOL   C16823700   7.742   6.713   6.903  0.2702 -0.1994  0.1343
  107MOL   O16923701   7.802   6.672   7.003 -0.0220  0.2283  0.2910
  107MOL   C17023702   7.718   6.862   6.876 -0.1558 -0.2498 -0.8212
  107MOL   C17123703   7.628   6.488   6.867 -0.4263 -0.3848 -0.1425
  107MOL   H17223704   7.612   6.676   6.737 -0.3606 -1.0373 -0.3615
  107MOL   H17323705   7.787   6.909   6.806 -1.5542 -0.8213 -2.6281
  107MOL   H17423706   7.620   6.866   6.828 -0.0432 -3.2537 -1.3995
  107MOL   H17523707   7.702   6.916   6.970  0.9198 -0.0689 -0.7425
  107MOL   H17623708   7.704   6.445   6.932  2.1746  0.1141 -2.7574
  107MOL   H17723709   7.607   6.413   6.791  0.0477 -0.0803 -0.5783
  107MOL   C17823710   7.507   6.496   6.959 -0.2606 -0.5157  0.0700
  107MOL   C17923711   7.492   6.369   7.050  1.0513  0.2052  0.1185
  107MOL   O18023712   7.423   6.274   7.011 -0.1092 -0.0671 -0.0316
  107MOL   C18123713   7.562   6.362   7.179 -0.4112  0.6939 -0.7899
  107MOL   C18223714   7.369   6.544   6.895 -0.1421  0.6685  0.4075
  107MOL   H18323715   7.530   6.578   7.026  1.4555 -0.4856 -0.5409
  107MOL   H18423716   7.563   6.463   7.219  0.9689  0.3417  0.0878
  107MOL   H18523717   7.504   6.294   7.241 -0.3584 -0.9026 -2.4461
  107MOL   H18623718   7.664   6.326   7.167 -0.3009 -0.2852  2.6486
  107MOL   H18723719   7.290   6.485   6.941  0.1835  0.8763  1.2524
  107MOL   H18823720   7.370   6.510   6.792  3.3946  0.7243  0.3460
  107MOL   C18923721   7.332   6.694   6.920 -0.2212  0.7130  0.0537
  107MOL   C19023722   7.330   6.736   7.072  0.1681 -0.2959  0.2828
  107MOL   O19123723   7.254   6.688   7.157  0.5048  0.3618  0.7947
  107MOL   C19223724   7.438   6.830   7.117 -0.3055  0.0811  0.1413
  107MOL   C19323725   7.203   6.726   6.843  0.2179  0.8282 -0.1970
  107MOL   H19423726   7.408   6.755   6.872 -2.2765  0.6472 -3.4027
  107MOL   H19523727   7.494   6.867   7.031 -2.5704 -1.7654 -2.2341
  107MOL   H19623728   7.398   6.919   7.166  0.5289 -0.4752  1.8432
  107MOL   H19723729   7.509   6.788   7.188  0.5825 -1.8190 -1.8158
  107MOL   H19823730   7.117   6.721   6.910  0.4057 -0.4078 -0.0275
  107MOL   H19923731   7.183   6.656   6.761  2.3531 -3.3536  2.6430
  107MOL   C20023732   7.204   6.864   6.768 -0.1677 -0.0625 -0.2128
  107MOL   C20123733   7.310   6.863   6.651 -0.3019 -0.7708 -0.3327
  107MOL   O20223734   7.428   6.869   6.674  0.3749 -0.3591 -0.1431
  107MOL   C20323735   7.257   6.830   6.511 -0.8122  0.0923  0.1243
  107MOL   C20423736   7.201   6.988   6.867  0.2604  0.0995  0.2741
  107MOL   H20523737   7.108   6.863   6.716 -1.3247  0.6715  1.8907
  107MOL   H20623738   7.156   6.863   6.488 -0.6365  0.6774  0.1901
  107MOL   H20723739   7.321   6.851   6.425  0.0226 -1.0210  0.4519
  107MOL   H20823740   7.249   6.722   6.501 -0.8299  0.1042  0.0191
  107MOL   H20923741   7.297   7.001   6.918 -0.0709 -1.9333  1.4363
  107MOL   H21023742   7.136   6.971   6.952  1.1910  0.4071  1.0641
  107MOL   C21123743   7.159   7.120   6.797 -0.2229  1.0294 -0.1870
  107MOL   C21223744   7.245   7.239   6.853 -0.6305 -0.3256 -0.1714
  107MOL   O21323745   7.197   7.338   6.917  0.2300  0.0295  0.2399
  107MOL   C21423746   7.388   7.226   6.834  0.3326 -0.5786 -1.0979
  107MOL   C21523747   7.008   7.149   6.790  0.1092 -0.4121 -0.3115
  107MOL   H21623748   7.199   7.112   6.695 -2.7353  1.1479 -1.2158
  107MOL   H21723749   7.436   7.166   6.912 -0.7137  1.1185  0.9162
  107MOL   H21823750   7.411   7.177   6.740 -0.8107  0.4257 -1.9010
  107MOL   H21923751   7.434   7.325   6.833 -3.6758  1.3707 -0.7041
  107MOL   H22023752   6.987   7.237   6.730  0.4859  0.7445  1.1961
  107MOL   H22123753   6.970   7.172   6.890  0.5375 -0.8044 -0.0520
  107MOL   H22223754   6.962   7.059   6.748 -1.3608  0.3329 -0.3123
  108MOL     C123755   4.610   5.873   2.971  0.5040 -0.2265 -0.1386
  108MOL     C223756   4.748   5.808   2.928  0.3633 -0.2488  0.1970
  108MOL     O323757   4.824   5.853   2.845 -0.3491  0.0014  0.1225
  108MOL     C423758   4.772   5.674   2.986  0.7249 -0.1425  0.3201
  108MOL     C523759   4.520   5.874   2.845 -0.0241 -0.7489  0.3996
  108MOL     H623760   4.550   5.829   3.050 -0.0497  1.6821  0.5201
  108MOL     H723761   4.816   5.683   3.085  2.0950 -2.2938 -0.0633
  108MOL     H823762   4.680   5.618   3.002  2.5658 -2.9025  1.5498
  108MOL     H923763   4.846   5.625   2.922  0.3835  0.7382 -0.7620
  108MOL    H1023764   4.582   5.885   2.756 -1.2073 -0.3198 -0.3672
  108MOL    H1123765   4.441   5.948   2.840  0.4606 -0.2805 -0.3484
  108MOL    H1223766   4.618   5.980   2.993  2.0908  0.0557 -1.8981
  108MOL    C1323767   4.437   5.746   2.812  0.5103  0.5528 -0.3376
  108MOL    C1423768   4.372   5.774   2.673  0.0659  0.4660  0.0721
  108MOL    O1523769   4.251   5.793   2.656 -0.2035 -0.4241 -0.1348
  108MOL    C1623770   4.461   5.777   2.545  0.0222 -0.3636 -0.2660
  108MOL    C1723771   4.343   5.695   2.921 -1.4436 -0.6088 -0.6235
  108MOL    H1823772   4.511   5.670   2.785 -0.9668 -1.2304  0.5706
  108MOL    H1923773   4.499   5.878   2.541 -0.7015 -0.1267 -1.9764
  108MOL    H2023774   4.546   5.709   2.551  0.7508  0.4837 -0.8427
  108MOL    H2123775   4.399   5.756   2.457 -0.5308 -2.1148  0.5100
  108MOL    H2223776   4.266   5.770   2.942 -0.4750 -0.2878  2.0571
  108MOL    H2323777   4.410   5.696   3.007  1.4874 -3.5637 -2.7567
  108MOL    C2423778   4.277   5.554   2.899 -0.1742 -0.5976  0.5792
  108MOL    C2523779   4.134   5.546   2.945  0.0627  0.0454  0.9809
  108MOL    O2623780   4.097   5.498   3.054 -0.3162  0.4454 -0.1540
  108MOL    C2723781   4.033   5.596   2.842 -0.1341 -0.2673 -0.0741
  108MOL    C2823782   4.364   5.442   2.958  0.0637 -0.4433 -0.3460
  108MOL    H2923783   4.275   5.548   2.791  0.0537 -1.5139  0.6291
  108MOL    H3023784   3.941   5.539   2.842  0.3509 -1.0918 -1.9555
  108MOL    H3123785   4.011   5.701   2.863 -1.5904 -0.6646  0.4341
  108MOL    H3223786   4.073   5.579   2.741  0.9013  1.4134  0.0215
  108MOL    H3323787   4.367   5.470   3.064  0.6439  0.5609 -0.6266
  108MOL    H3423788   4.465   5.456   2.920 -0.5032  2.1201 -1.0468
  108MOL    C3523789   4.317   5.296   2.944 -0.6014 -0.3742  0.1225
  108MOL    C3623790   4.374   5.204   3.058 -0.4685 -0.1732  0.4258
  108MOL    O3723791   4.475   5.134   3.037 -0.4179 -0.1809 -0.5722
  108MOL    C3823792   4.295   5.189   3.187 -0.8596 -0.0614 -0.3287
  108MOL    C3923793   4.362   5.246   2.808  0.2829 -0.1288 -0.5279
  108MOL    H4023794   4.209   5.285   2.944 -0.6420  0.0291  0.2965
  108MOL    H4123795   4.362   5.196   3.273 -1.5948 -2.1070  0.4425
  108MOL    H4223796   4.215   5.261   3.206  0.2476  1.3908 -1.1402
  108MOL    H4323797   4.238   5.096   3.189 -1.2138  0.1435 -0.7940
  108MOL    H4423798   4.469   5.263   2.794  0.0980  0.4895 -1.2191
  108MOL    H4523799   4.320   5.315   2.735  0.1377  0.0493 -0.2751
  108MOL    C4623800   4.330   5.095   2.772  0.5083 -0.9032  0.1955
  108MOL    C4723801   4.443   5.027   2.694 -0.4103 -0.2520 -0.4498
  108MOL    O4823802   4.448   5.036   2.573  0.1115  0.0233  0.0182
  108MOL    C4923803   4.546   4.961   2.785  0.6006 -0.3526  0.1786
  108MOL    C5023804   4.193   5.085   2.696 -0.7597 -0.5946  0.4975
  108MOL    H5123805   4.314   5.038   2.864 -1.4650 -3.3450 -1.5701
  108MOL    H5223806   4.530   4.855   2.764 -2.6112  0.4098 -1.4455
  108MOL    H5323807   4.648   4.997   2.774 -0.0472  0.9062 -1.8857
  108MOL    H5423808   4.522   4.965   2.891  1.8958 -1.2712  0.5169
  108MOL    H5523809   4.201   5.152   2.610 -0.5757  0.3742  1.2609
  108MOL    H5623810   4.112   5.130   2.754 -1.2427 -2.3365  1.2140
  108MOL    C5723811   4.165   4.940   2.643 -0.1621 -0.8702  0.6099
  108MOL    C5823812   4.028   4.941   2.578 -0.5701 -0.0219  0.3167
  108MOL    O5923813   3.923   4.934   2.651 -0.4608 -0.0263  0.3017
  108MOL    C6023814   4.013   4.980   2.433  0.7098  0.1332  1.0655
  108MOL    C6123815   4.177   4.823   2.752 -0.8115  0.8617  0.5630
  108MOL    H6223816   4.237   4.928   2.562 -1.0663  1.7466 -0.6306
  108MOL    H6323817   4.016   4.889   2.373 -2.6454  1.0101 -0.5285
  108MOL    H6423818   3.920   5.033   2.415 -0.4442 -1.7973  1.2274
  108MOL    H6523819   4.106   5.030   2.405  0.5705 -0.4890 -0.5493
  108MOL    H6623820   4.101   4.848   2.826 -0.3889 -0.7775  1.5832
  108MOL    H6723821   4.269   4.832   2.810 -0.7181 -0.0916  0.5623
  108MOL    C6823822   4.167   4.677   2.705 -0.1862 -0.8877 -0.4362
  108MOL    C6923823   4.252   4.665   2.579  0.5646  0.4735  0.1723
  108MOL    O7023824   4.205   4.645   2.469 -0.0812 -0.1361  0.2389
  108MOL    C7123825   4.408   4.678   2.598 -0.1936 -0.1647  0.1374
  108MOL    C7223826   4.019   4.627   2.678 -0.0526 -0.8098  0.1961
  108MOL    H7323827   4.220   4.615   2.777  0.1233 -0.3417 -0.1882
  108MOL    H7423828   4.452   4.618   2.678  0.0126  1.6374  1.4068
  108MOL    H7523829   4.441   4.644   2.500  0.7886 -0.3522  0.5218
  108MOL    H7623830   4.427   4.785   2.611 -0.8163  0.1754 -1.5528
  108MOL    H7723831   3.977   4.685   2.596  1.8938  1.0176  0.4416
  108MOL    H7823832   3.957   4.653   2.764 -1.0068  2.5037 -1.4285
  108MOL    C7923833   4.004   4.484   2.634 -0.0040 -0.1112  0.6702
  108MOL    C8023834   3.860   4.458   2.587 -0.5958  0.5836  0.1631
  108MOL    O8123835   3.772   4.421   2.670  0.0532  0.0060  0.4024
  108MOL    C8223836   3.811   4.497   2.443 -0.5625  0.2100  0.1201
  108MOL    C8323837   4.053   4.383   2.750  0.2909 -0.9066 -0.7527
  108MOL    H8423838   4.064   4.475   2.543  0.1900 -2.6946  1.0383
  108MOL    H8523839   3.729   4.569   2.448  0.5147  1.4037  0.7761
  108MOL    H8623840   3.903   4.541   2.406  0.5012  0.0108  2.4404
  108MOL    H8723841   3.783   4.411   2.382 -2.1445  0.0178  1.0785
  108MOL    H8823842   3.979   4.386   2.830 -1.5234 -1.3705 -2.3895
  108MOL    H8923843   4.148   4.412   2.794 -0.6625 -2.2931  2.4048
  108MOL    C9023844   4.053   4.236   2.705  0.5740  0.3974  0.4183
  108MOL    C9123845   4.055   4.139   2.829 -0.6657 -0.4039  0.1559
  108MOL    O9223846   4.141   4.155   2.912  0.2929 -0.1149  0.0882
  108MOL    C9323847   3.977   4.012   2.818 -0.1173 -0.0663 -0.5553
  108MOL    C9423848   4.175   4.205   2.625  0.6091 -0.1363  0.4844
  108MOL    H9523849   3.963   4.206   2.651  0.8069 -1.2711  0.9325
  108MOL    H9623850   3.893   4.028   2.751  0.5452  1.5239 -1.0357
  108MOL    H9723851   4.040   3.926   2.793 -0.0156 -0.2891  0.4480
  108MOL    H9823852   3.944   3.998   2.921 -0.4928 -0.7448 -0.7658
  108MOL    H9923853   4.210   4.104   2.643 -0.1992 -0.3865  0.6501
  108MOL   H10023854   4.256   4.262   2.669  0.7071  0.1982 -0.1190
  108MOL   C10123855   4.174   4.222   2.470 -0.2869  0.2147  1.2753
  108MOL   C10223856   4.053   4.160   2.397 -0.0855  0.7365  0.5217
  108MOL   O10323857   3.986   4.222   2.318  0.1545 -0.1574  0.6275
  108MOL   C10423858   4.018   4.011   2.425  0.1810 -0.2919  0.2633
  108MOL   C10523859   4.303   4.149   2.410  0.2601 -0.2740 -0.5155
  108MOL   H10623860   4.176   4.329   2.447  1.3752 -0.3868 -1.6955
  108MOL   H10723861   3.986   3.957   2.336 -0.6061 -0.2235  0.5030
  108MOL   H10823862   4.100   3.968   2.482  1.3125  2.0443  0.4665
  108MOL   H10923863   3.933   4.004   2.492 -0.0020 -0.5963  0.0028
  108MOL   H11023864   4.277   4.062   2.349 -1.3291  1.3615 -2.2077
  108MOL   H11123865   4.374   4.133   2.492  0.6104 -1.6416 -1.0675
  108MOL   C11223866   4.398   4.227   2.318 -0.0871  0.6130  0.4014
  108MOL   C11323867   4.484   4.329   2.391  0.0677  0.4509  0.1361
  108MOL   O11423868   4.447   4.388   2.489 -0.4389 -0.3913  0.0154
  108MOL   C11523869   4.613   4.377   2.328 -0.1371  0.4468 -0.5857
  108MOL   C11623870   4.333   4.289   2.198 -0.0387  0.6689 -0.0542
  108MOL   H11723871   4.456   4.143   2.282  0.0473  0.7639  0.2624
  108MOL   H11823872   4.678   4.426   2.401  0.4627  0.6280 -1.2430
  108MOL   H11923873   4.667   4.294   2.283 -0.0201 -1.4818  2.9068
  108MOL   H12023874   4.585   4.465   2.270  0.9658  1.2905  0.1286
  108MOL   H12123875   4.291   4.388   2.214  1.2352  1.3920 -1.0209
  108MOL   H12223876   4.248   4.227   2.171 -1.5158  3.1646 -1.2429
  108MOL   C12323877   4.425   4.299   2.072  0.0294  0.2687  0.4099
  108MOL   C12423878   4.378   4.421   1.982 -0.1149 -0.2745  0.4984
  108MOL   O12523879   4.260   4.435   1.951 -0.9938 -0.3786 -0.1240
  108MOL   C12623880   4.476   4.514   1.925 -0.5268 -0.4576  0.3639
  108MOL   C12723881   4.406   4.161   2.002 -0.2864  0.0691 -0.7467
  108MOL   H12823882   4.532   4.305   2.095  0.1951 -0.2462 -0.1946
  108MOL   H12923883   4.478   4.512   1.816  1.1345  1.1710  0.3545
  108MOL   H13023884   4.455   4.615   1.959  1.2335  0.4088 -1.0645
  108MOL   H13123885   4.570   4.482   1.968 -0.3456  2.1177  1.9268
  108MOL   H13223886   4.312   4.157   1.948 -0.4874  0.6630 -0.4436
  108MOL   H13323887   4.393   4.085   2.079 -0.7060 -0.2401 -1.1230
  108MOL   C13423888   4.508   4.094   1.907 -0.0721 -0.6958 -0.4906
  108MOL   C13523889   4.649   4.106   1.968  0.7689 -0.2813  0.4963
  108MOL   O13623890   4.726   4.206   1.942 -0.0241  0.1900 -0.1748
  108MOL   C13723891   4.692   4.006   2.065  0.5594  0.4026 -0.6372
  108MOL   C13823892   4.487   4.159   1.764 -0.9894  0.0937 -0.1941
  108MOL   H13923893   4.484   3.989   1.894  0.4116 -1.0068  1.0436
  108MOL   H14023894   4.617   3.966   2.134  0.2317 -0.8443 -1.6888
  108MOL   H14123895   4.721   3.918   2.007  0.6200  0.3471 -0.5217
  108MOL   H14223896   4.779   4.033   2.125  0.4268  1.6963 -1.0111
  108MOL   H14323897   4.518   4.264   1.769 -3.8609  0.9950 -0.4260
  108MOL   H14423898   4.381   4.150   1.740 -0.6348 -2.6171 -0.8271
  108MOL   C14523899   4.570   4.082   1.660 -0.1029 -0.6892 -0.1556
  108MOL   C14623900   4.632   4.179   1.550  0.6277  0.2103  0.7899
  108MOL   O14723901   4.609   4.174   1.430  0.3976  0.6253 -0.5150
  108MOL   C14823902   4.746   4.269   1.595 -0.6584 -1.0639 -0.3509
  108MOL   C14923903   4.487   3.966   1.603  0.2599  0.1681  0.4486
  108MOL   H15023904   4.653   4.035   1.712 -0.8392 -2.2135 -0.3428
  108MOL   H15123905   4.787   4.322   1.509 -2.1686 -1.4416 -1.3296
  108MOL   H15223906   4.707   4.340   1.668 -0.6488 -2.0721  0.6442
  108MOL   H15323907   4.827   4.208   1.635 -0.3940 -0.5366 -0.0753
  108MOL   H15423908   4.402   4.014   1.554 -0.4179 -0.2718  1.1729
  108MOL   H15523909   4.449   3.912   1.690 -1.8068  2.2248  0.8680
  108MOL   C15623910   4.555   3.861   1.511 -0.1230  0.4409  0.4527
  108MOL   C15723911   4.459   3.799   1.413  0.0120  0.6363  0.3125
  108MOL   O15823912   4.426   3.678   1.421  0.1074 -0.2490  0.1971
  108MOL   C15923913   4.399   3.892   1.307 -0.5453 -0.9220  0.4933
  108MOL   C16023914   4.643   3.763   1.593 -0.2220  0.3170  0.7427
  108MOL   H16123915   4.623   3.923   1.452 -1.9899 -0.5964 -2.9224
  108MOL   H16223916   4.307   3.940   1.341 -0.8025 -1.3771  0.4519
  108MOL   H16323917   4.453   3.975   1.262 -2.3926 -0.3195 -0.6838
  108MOL   H16423918   4.392   3.827   1.220  0.7618  0.8151 -0.9450
  108MOL   H16523919   4.577   3.704   1.656  0.6987 -0.0559  1.3631
  108MOL   H16623920   4.709   3.817   1.661  0.0665 -1.2691  1.7338
  108MOL   C16723921   4.736   3.667   1.501  0.1894  0.1616 -1.3939
  108MOL   C16823922   4.693   3.518   1.503 -0.4627  0.2780  0.4343
  108MOL   O16923923   4.611   3.475   1.582  0.4665 -0.7557  0.0632
  108MOL   C17023924   4.765   3.422   1.410 -0.1322  0.3693  0.8070
  108MOL   C17123925   4.890   3.671   1.547  0.4301  0.6031 -0.2956
  108MOL   H17223926   4.733   3.685   1.394  2.0269  0.3284 -1.4327
  108MOL   H17323927   4.694   3.392   1.334  0.7003  0.9416 -0.2093
  108MOL   H17423928   4.842   3.473   1.351  0.8122 -0.5316  1.2322
  108MOL   H17523929   4.804   3.330   1.456 -0.0646  0.5437  1.1035
  108MOL   H17623930   4.948   3.582   1.524 -2.3293 -0.9793 -1.3968
  108MOL   H17723931   4.886   3.678   1.655 -0.8760  0.8596 -0.3457
  108MOL   C17823932   4.973   3.788   1.491  0.1104  0.2571 -0.7965
  108MOL   C17923933   4.991   3.773   1.344  0.0434  0.8400  0.5023
  108MOL   O18023934   5.076   3.696   1.290  0.0133 -0.0852  0.0786
  108MOL   C18123935   4.905   3.856   1.254  0.1836 -0.5499  0.1961
  108MOL   C18223936   5.105   3.802   1.564 -0.3764  0.2148 -0.6465
  108MOL   H18323937   4.931   3.887   1.510  1.4076  0.3361  1.9292
  108MOL   H18423938   4.816   3.902   1.297  0.0189 -0.3036 -0.4031
  108MOL   H18523939   4.965   3.940   1.221 -1.1859  1.3089  2.3235
  108MOL   H18623940   4.880   3.798   1.164 -1.6854  2.1599 -1.0928
  108MOL   H18723941   5.184   3.812   1.490  0.1571 -1.7031 -0.3505
  108MOL   H18823942   5.129   3.705   1.607  0.1434  0.2343 -0.8921
  108MOL   C18923943   5.130   3.902   1.677 -0.0421 -0.5354 -0.0573
  108MOL   C19023944   5.007   3.889   1.771  0.0297 -0.4432  0.2452
  108MOL   O19123945   4.909   3.963   1.758  0.3571 -0.0600  0.6080
  108MOL   C19223946   5.018   3.782   1.886  0.3806 -1.1069 -0.4384
  108MOL   C19323947   5.154   4.047   1.625  0.2993 -0.2228 -0.2455
  108MOL   H19423948   5.218   3.883   1.737 -0.5401  2.3652  1.7019
  108MOL   H19523949   5.116   3.735   1.889  1.6522  1.4670 -0.4416
  108MOL   H19623950   4.990   3.814   1.987  1.4259 -3.7509  0.7408
  108MOL   H19723951   4.955   3.700   1.853 -1.0502 -0.7051  1.2530
  108MOL   H19823952   5.051   4.069   1.597  0.4079  2.8101  1.5878
  108MOL   H19923953   5.209   4.049   1.531 -0.0110 -0.3796 -0.4329
  108MOL   C20023954   5.183   4.153   1.734 -0.1572  0.1496  0.4372
  108MOL   C20123955   5.102   4.277   1.709 -0.4912  0.5731 -0.1220
  108MOL   O20223956   5.098   4.322   1.599 -0.7205 -0.8829 -0.0146
  108MOL   C20323957   5.027   4.348   1.828  0.1928  0.0402  0.0374
  108MOL   C20423958   5.339   4.181   1.728  0.3694 -0.1991 -0.1866
  108MOL   H20523959   5.155   4.118   1.834  1.1768  1.0081  1.1310
  108MOL   H20623960   5.066   4.344   1.930  3.3212 -0.0728 -1.0894
  108MOL   H20723961   5.012   4.454   1.808  1.6038  0.3012  0.2992
  108MOL   H20823962   4.933   4.294   1.820  0.3689 -0.5447  1.6704
  108MOL   H20923963   5.362   4.200   1.624 -1.6546  0.9231 -0.4604
  108MOL   H21023964   5.382   4.083   1.748 -1.3699 -1.0317 -0.4529
  108MOL   C21123965   5.397   4.289   1.827  0.0135 -0.1935 -0.5993
  108MOL   C21223966   5.380   4.237   1.969  0.0293  0.1771 -0.2990
  108MOL   O21323967   5.304   4.288   2.049 -0.1397  0.4415 -0.4078
  108MOL   C21423968   5.476   4.130   2.015  0.2969  0.0920 -0.2734
  108MOL   C21523969   5.353   4.431   1.815  0.6284  0.4521  0.6407
  108MOL   H21623970   5.504   4.297   1.812 -0.0598  1.9973 -0.0529
  108MOL   H21723971   5.493   4.136   2.122 -1.0545 -2.1431  0.0931
  108MOL   H21823972   5.430   4.032   2.004 -0.3247 -0.0621  3.2275
  108MOL   H21923973   5.578   4.123   1.979  1.0107 -2.0738  2.0810
  108MOL   H22023974   5.271   4.458   1.880 -1.0357 -0.3853 -1.0398
  108MOL   H22123975   5.321   4.452   1.712 -0.8631 -0.7944  0.8312
  108MOL   H22223976   5.427   4.507   1.839 -0.5441  2.2388 -1.2957
  109MOL     C123977   4.238   7.676   4.595  0.6401 -0.6443  0.8761
  109MOL     C223978   4.211   7.817   4.526  0.2465 -0.6823 -0.0979
  109MOL     O323979   4.304   0.062   4.508  0.8767 -0.1203  0.3099
  109MOL     C423980   4.066   0.009   4.485 -0.3269 -0.2757  0.1829
  109MOL     C523981   4.391   7.644   4.631 -0.4903  0.6207  0.0695
  109MOL     H623982   4.173   7.662   4.681  1.2178 -1.2632  1.2092
  109MOL     H723983   4.063   0.098   4.422 -0.7491  0.3045  1.0223
  109MOL     H823984   4.014   7.761   4.452  0.5908 -0.1915 -1.5663
  109MOL     H923985   4.019   0.054   4.572  1.7243 -0.0384  1.2008
  109MOL    H1023986   4.401   7.559   4.698 -0.2281  1.2503  0.8414
  109MOL    H1123987   4.440   7.725   4.686  1.0032  0.3213 -0.7893
  109MOL    H1223988   4.205   7.594   4.532  1.0422 -0.4210  0.3697
  109MOL    C1323989   4.473   7.635   4.499 -0.1458  0.4873 -0.4976
  109MOL    C1423990   4.445   7.498   4.429  0.1014  0.3716 -0.1194
  109MOL    O1523991   4.384   7.407   4.482 -0.0157  0.0050 -0.0128
  109MOL    C1623992   4.525   7.465   4.300  0.5815  0.3652 -0.2399
  109MOL    C1723993   4.622   7.664   4.525  1.0092 -0.5070  0.1313
  109MOL    H1823994   4.437   7.714   4.434 -0.5874  1.0809  0.4462
  109MOL    H1923995   4.483   7.376   4.253  1.8846  0.9142 -2.4999
  109MOL    H2023996   4.518   7.542   4.223  1.3026  1.3722  0.6803
  109MOL    H2123997   4.626   7.437   4.329 -0.1732 -2.8944 -0.5076
  109MOL    H2223998   4.684   7.621   4.445 -0.6022  2.3350 -2.7639
  109MOL    H2323999   4.661   7.596   4.601  4.3485 -0.2005 -1.2251
  109MOL    C2424000   4.681   7.808   4.557 -0.1455  0.0450  0.4197
  109MOL    C2524001   4.692   0.053   4.427  0.3313 -0.1955  0.2437
  109MOL    O2624002   4.772   0.017   4.338  0.0482  0.0583 -0.1343
  109MOL    C2724003   4.612   0.177   4.412 -0.2470 -0.3401  0.4294
  109MOL    C2824004   4.818   7.796   4.634  0.2186  0.2784  0.0543
  109MOL    H2924005   4.606   0.012   4.623 -1.1167 -1.9253  0.7280
  109MOL    H3024006   4.669   0.270   4.415  0.5023 -0.8076  0.7784
  109MOL    H3124007   4.548   0.183   4.324  0.7306 -2.6334 -0.4732
  109MOL    H3224008   4.548   0.181   4.500  0.9862 -0.4523  1.3555
  109MOL    H3324009   4.897   7.771   4.563 -0.2665  1.8388 -1.0751
  109MOL    H3424010   4.815   7.708   4.697 -1.0473 -0.7067 -1.3408
  109MOL    C3524011   4.861   0.091   4.699  0.0763 -0.7474  0.4010
  109MOL    C3624012   4.996   0.145   4.653  0.4259  0.0694 -0.0351
  109MOL    O3724013   5.092   0.145   4.734  0.9174  0.3253  0.1770
  109MOL    C3824014   5.019   0.190   4.505  0.0123 -0.1138  0.1707
  109MOL    C3924015   4.852   0.090   4.856  0.5706  0.5993 -0.0617
  109MOL    H4024016   4.791   0.170   4.671 -0.1616 -0.9427  0.4346
  109MOL    H4124017   4.968   0.115   4.444 -0.8994  0.8602 -0.2846
  109MOL    H4224018   4.984   0.291   4.482 -0.7671 -0.8962 -2.2273
  109MOL    H4324019   5.124   0.181   4.480  0.0245 -0.3793  0.3170
  109MOL    H4424020   4.919   0.012   4.893 -1.2081 -0.5267  0.8309
  109MOL    H4524021   4.756   0.045   4.880 -0.4883  2.2295 -1.1861
  109MOL    C4624022   4.848   0.233   4.928 -0.6120 -0.2817  0.0298
  109MOL    C4724023   4.948   0.220   5.048 -0.4911 -0.3681 -0.3962
  109MOL    O4824024   4.917   0.171   5.157  0.2676  0.4762  0.0372
  109MOL    C4924025   5.092   0.267   5.031  0.1522  0.6851 -0.3798
  109MOL    C5024026   4.712   0.295   4.972 -0.1255 -0.4132 -0.5669
  109MOL    H5124027   4.890   0.306   4.859 -0.5604 -1.0967 -0.8065
  109MOL    H5224028   5.161   0.185   5.008 -2.9210 -1.8512 -0.8527
  109MOL    H5324029   5.102   0.325   4.939  2.9470 -1.9243 -1.8218
  109MOL    H5424030   5.117   0.334   5.113  0.4831 -0.1817  0.2342
  109MOL    H5524031   4.703   0.294   5.081  2.9338  0.5614 -0.2599
  109MOL    H5624032   4.630   0.231   4.942  0.3858 -1.4474  0.2204
  109MOL    C5724033   4.683   0.441   4.925  0.3263  0.4434 -0.1577
  109MOL    C5824034   4.726   0.464   4.775  0.2665  0.1143 -0.5074
  109MOL    O5924035   4.846   0.490   4.741  0.1497 -0.1301  0.0439
  109MOL    C6024036   4.631   0.422   4.672 -0.7087 -0.0155  0.0028
  109MOL    C6124037   4.758   0.540   5.021 -0.0727 -0.5374 -0.0838
  109MOL    H6224038   4.576   0.461   4.935  0.1564  0.3953 -1.7355
  109MOL    H6324039   4.592   0.323   4.694  0.6336 -0.9203 -1.5621
  109MOL    H6424040   4.551   0.495   4.664 -0.3760  0.4798  1.0888
  109MOL    H6524041   4.677   0.412   4.574 -2.0023 -2.0969 -0.4219
  109MOL    H6624042   4.842   0.590   4.973 -1.0628  0.7829 -0.4563
  109MOL    H6724043   4.812   0.493   5.103 -0.9352  0.4054  1.0304
  109MOL    C6824044   4.655   0.638   5.089  0.3525 -0.8994 -0.5192
  109MOL    C6924045   4.717   0.774   5.108 -0.5061  0.1319 -0.2549
  109MOL    O7024046   4.736   0.827   5.222 -0.4310  0.5352 -0.0208
  109MOL    C7124047   4.782   0.842   4.986  0.0705  0.6361 -0.6757
  109MOL    C7224048   4.569   0.582   5.210  0.5773 -0.2647  0.6238
  109MOL    H7324049   4.575   0.672   5.022 -0.9184 -0.9599  0.9270
  109MOL    H7424050   4.889   0.849   5.006  0.2971  0.5241 -1.8159
  109MOL    H7524051   4.772   0.784   4.894  1.6627 -0.7585 -0.0067
  109MOL    H7624052   4.740   0.942   4.975 -0.6127  0.4144 -0.0423
  109MOL    H7724053   4.576   0.631   5.306  1.6903  1.3027 -0.2362
  109MOL    H7824054   4.608   0.482   5.232 -3.0735 -2.2986 -1.5836
  109MOL    C7924055   4.415   0.565   5.187 -0.9913 -0.6401  0.6778
  109MOL    C8024056   4.329   0.690   5.183  0.8032 -0.9219 -0.1546
  109MOL    O8124057   4.246   0.703   5.095  0.1169  0.1811 -0.1001
  109MOL    C8224058   4.374   0.803   5.270 -0.0150 -0.8433 -0.8893
  109MOL    C8324059   4.370   0.476   5.305 -0.6134  0.9358  0.1666
  109MOL    H8424060   4.405   0.516   5.091 -1.8090 -0.7520  0.8241
  109MOL    H8524061   4.436   0.762   5.351 -1.8759 -2.5678 -0.2958
  109MOL    H8624062   4.430   0.880   5.217  0.7658 -0.5196  0.3607
  109MOL    H8724063   4.283   0.846   5.309  0.1133  0.2314 -1.7717
  109MOL    H8824064   4.262   0.481   5.321 -0.6036 -1.8337  1.4105
  109MOL    H8924065   4.406   0.516   5.399 -1.3466 -1.8512  1.6858
  109MOL    C9024066   4.400   0.321   5.295  0.2063 -0.2917  0.0667
  109MOL    C9124067   4.300   0.247   5.202  0.0565  0.3516  0.3135
  109MOL    O9224068   4.179   0.241   5.223 -0.3854 -0.2933  0.0061
  109MOL    C9324069   4.356   0.191   5.069 -0.8183  0.1889  0.1973
  109MOL    C9424070   4.380   0.269   5.445 -0.4314  0.0400  0.0740
  109MOL    H9524071   4.505   0.318   5.265  0.4253  0.5077  0.7142
  109MOL    H9624072   4.388   0.087   5.057 -1.8169  0.2583 -3.4945
  109MOL    H9724073   4.284   0.219   4.993 -0.7486  0.6225  0.2916
  109MOL    H9824074   4.436   0.258   5.036  1.0077 -1.1575  1.7559
  109MOL    H9924075   4.373   0.161   5.441 -1.3468 -0.0771  3.3720
  109MOL   H10024076   4.279   0.288   5.483 -1.9279 -5.4677 -0.6601
  109MOL   C10124077   4.495   0.294   5.544 -0.6793 -0.0544  0.0901
  109MOL   C10224078   4.635   0.265   5.493  0.4644 -0.4912 -0.0712
  109MOL   O10324079   4.691   0.360   5.433  0.7581  0.5466 -0.2921
  109MOL   C10424080   4.683   0.121   5.489 -0.8006  0.6252  0.3943
  109MOL   C10524081   4.482   0.237   5.690 -0.0689  0.7798  0.3722
  109MOL   H10624082   4.502   0.402   5.550 -1.1847 -0.0778  1.2109
  109MOL   H10724083   4.611   0.058   5.438 -0.9386  0.9277  0.2120
  109MOL   H10824084   4.770   0.117   5.423  0.0626  1.8425  1.4325
  109MOL   H10924085   4.715   0.079   5.584 -0.7273 -3.7082 -1.4310
  109MOL   H11024086   4.581   0.246   5.735  0.7959  0.6152 -1.4483
  109MOL   H11124087   4.453   0.132   5.686 -0.4666  0.9006  0.0365
  109MOL   C11224088   4.374   0.308   5.772 -0.1861 -0.5543  0.2256
  109MOL   C11324089   4.416   0.451   5.795 -0.0179  0.2377  0.5962
  109MOL   O11424090   4.504   0.482   5.878 -0.4476 -0.4315  0.3078
  109MOL   C11524091   4.336   0.552   5.717 -0.6339  0.4610 -0.4156
  109MOL   C11624092   4.345   0.239   5.911 -0.8695 -0.1647 -0.6760
  109MOL   H11724093   4.282   0.315   5.715 -0.0129 -1.2276 -0.1466
  109MOL   H11824094   4.402   0.635   5.691  1.8752 -1.2135  0.4286
  109MOL   H11924095   4.290   0.519   5.624  1.0731 -0.8522 -0.8257
  109MOL   H12024096   4.256   0.579   5.785  0.1381  0.4388  0.5146
  109MOL   H12124097   4.432   0.247   5.976  0.8468 -0.2264 -2.8789
  109MOL   H12224098   4.337   0.131   5.901 -0.6737 -0.2684  0.2362
  109MOL   C12324099   4.199   0.274   5.972 -0.2135 -0.7665  0.8118
  109MOL   C12424100   4.210   0.319   6.118  0.0898  0.5209  0.3532
  109MOL   O12524101   4.159   0.254   6.207 -0.9411  0.1355 -0.1795
  109MOL   C12624102   4.293   0.445   6.140  0.3287 -0.3183 -0.0981
  109MOL   C12724103   4.105   0.157   5.952  0.1055  0.4488  0.1005
  109MOL   H12824104   4.146   0.355   5.923  0.0622 -2.1662 -1.8769
  109MOL   H12924105   4.388   0.445   6.086  0.0164 -0.0304 -0.6580
  109MOL   H13024106   4.241   0.530   6.096  0.8396 -0.8588 -1.7862
  109MOL   H13124107   4.317   0.463   6.244  0.3567 -2.6014  0.3226
  109MOL   H13224108   4.014   0.167   6.010  0.0517  0.2359  0.0540
  109MOL   H13324109   4.145   0.076   6.014 -0.0807 -0.2056 -0.6208
  109MOL   C13424110   4.088   0.093   5.809  0.0851  0.1383 -0.3335
  109MOL   C13524111   4.023   0.187   5.703 -0.4764  0.7988 -0.6338
  109MOL   O13624112   4.085   0.207   5.599 -0.3494 -0.4190 -0.0954
  109MOL   C13724113   3.886   0.248   5.726 -0.1595 -0.0268  0.5204
  109MOL   C13824114   4.001   7.809   5.817 -0.2812  0.9040 -0.0132
  109MOL   H13924115   4.188   0.071   5.770  0.8804  0.1259  1.6544
  109MOL   H14024116   3.877   0.239   5.834  0.6666 -1.5005  0.4821
  109MOL   H14124117   3.889   0.348   5.681  2.2566 -0.4012 -0.2374
  109MOL   H14224118   3.809   0.183   5.685 -0.1492  0.4191 -0.2263
  109MOL   H14324119   3.894   7.830   5.814 -0.4165  0.3363  0.6728
  109MOL   H14424120   4.014   7.758   5.913 -0.4945 -0.9821 -0.9492
  109MOL   C14524121   4.023   7.709   5.699  0.1075  0.8188 -0.2372
  109MOL   C14624122   3.910   7.602   5.696  0.5049 -0.7637  0.1377
  109MOL   O14724123   3.897   7.511   5.778  0.0508 -0.1967  0.3751
  109MOL   C14824124   3.808   7.613   5.591 -0.4296 -0.0507  0.3738
  109MOL   C14924125   4.155   7.637   5.711  0.2125 -0.7742 -0.1379
  109MOL   H15024126   4.030   7.781   5.617  2.1495  0.9527  0.0349
  109MOL   H15124127   3.794   7.719   5.571 -1.1869 -0.5954 -2.1388
  109MOL   H15224128   3.852   7.563   5.505 -0.4928  0.6049 -0.0432
  109MOL   H15324129   3.706   7.576   5.604 -1.1930  2.2051  0.9807
  109MOL   H15424130   4.152   7.556   5.784  4.4102 -1.3302 -0.4461
  109MOL   H15524131   4.221   7.718   5.743  0.6822 -1.9347  1.9676
  109MOL   C15624132   4.208   7.587   5.583  0.6658 -0.1883 -0.4906
  109MOL   C15724133   4.317   7.477   5.604 -0.3476 -0.4689  0.0954
  109MOL   O15824134   4.316   7.363   5.552 -0.5036  0.2141  0.5439
  109MOL   C15924135   4.427   7.517   5.702  0.2129  0.1019 -0.6722
  109MOL   C16024136   4.260   7.698   5.486 -0.0123 -0.1883  0.2192
  109MOL   H16124137   4.126   7.541   5.528  0.5060 -0.5679  0.0689
  109MOL   H16224138   4.390   7.561   5.795 -0.3481  0.5278 -1.0919
  109MOL   H16324139   4.477   7.425   5.732  3.3346  1.2761 -2.1333
  109MOL   H16424140   4.494   7.588   5.654 -1.4764  1.7976 -0.6121
  109MOL   H16524141   4.361   7.720   5.519  0.8244 -1.3287 -1.5443
  109MOL   H16624142   4.205   7.792   5.494 -0.4712 -0.3003 -1.3763
  109MOL   C16724143   4.260   7.652   5.333  0.2142  0.1518  0.2861
  109MOL   C16824144   4.384   7.699   5.253 -0.4939 -0.0920 -0.6832
  109MOL   O16924145   4.440   7.808   5.275  0.0719  0.3304  0.5194
  109MOL   C17024146   4.449   7.609   5.153 -0.1081 -0.0830 -0.4360
  109MOL   C17124147   4.124   7.708   5.272 -0.0556 -0.0395  0.4278
  109MOL   H17224148   4.252   7.543   5.332  0.3624  0.1389 -1.6745
  109MOL   H17324149   4.402   7.607   5.055 -3.5521 -1.0848  1.1819
  109MOL   H17424150   4.556   7.632   5.144  0.3175 -1.6397  0.4640
  109MOL   H17524151   4.453   7.507   5.190  0.4250  0.0949  0.0115
  109MOL   H17624152   4.123   7.816   5.261 -0.7820  0.1134  1.8511
  109MOL   H17724153   4.032   7.696   5.329 -0.8873  1.9203 -0.4803
  109MOL   C17824154   4.089   7.649   5.131  0.0171 -0.1512  0.5779
  109MOL   C17924155   3.985   7.735   5.059  0.3637  0.4464  0.1718
  109MOL   O18024156   3.867   7.726   5.071  0.1809 -0.2835 -0.5917
  109MOL   C18124157   4.050   7.834   4.958  0.0229  0.3611  0.2834
  109MOL   C18224158   4.036   7.504   5.145 -0.4170 -0.3937  0.0677
  109MOL   H18324159   4.181   7.636   5.074  1.0479 -0.8055  2.3732
  109MOL   H18424160   4.142   7.790   4.918  1.0955  0.1374  2.8615
  109MOL   H18524161   3.980   7.839   4.875  0.3394  0.1078 -0.0003
  109MOL   H18624162   4.076   0.092   4.993  0.5818 -0.0142  0.9614
  109MOL   H18724163   3.936   7.504   5.190 -0.1228 -0.6263  0.7110
  109MOL   H18824164   4.106   7.456   5.213  0.8536  0.7409 -0.4185
  109MOL   C18924165   4.037   7.418   5.012  0.0353  0.0849  0.4731
  109MOL   C19024166   4.185   7.400   4.959  0.0552 -0.2021  0.6146
  109MOL   O19124167   4.233   7.489   4.887 -0.0570 -0.2787 -0.5782
  109MOL   C19224168   4.257   7.268   4.985  0.4637 -0.4383 -0.4320
  109MOL   C19324169   3.923   7.445   4.918 -0.2735  0.4019  0.3094
  109MOL   H19424170   4.017   7.320   5.055 -0.4820  0.1467  0.3777
  109MOL   H19524171   4.366   7.265   4.985  0.5581  0.8312  2.8934
  109MOL   H19624172   4.234   7.240   5.088 -1.9986  1.0603 -0.5406
  109MOL   H19724173   4.205   7.195   4.923 -0.5734 -0.9376  1.0027
  109MOL   H19824174   3.953   7.518   4.842  2.7347 -0.8340  0.2185
  109MOL   H19924175   3.846   7.494   4.977 -1.7709 -0.3437 -0.9716
  109MOL   C20024176   3.850   7.317   4.869 -0.0325  0.0981  0.4867
  109MOL   C20124177   3.903   7.259   4.735 -0.9119  1.2657 -0.5064
  109MOL   O20224178   3.949   7.326   4.646  0.6144  0.1411 -0.0552
  109MOL   C20324179   3.880   7.103   4.716  0.0446 -1.1971 -0.3382
  109MOL   C20424180   3.696   7.321   4.858  0.0716 -0.0282 -0.1898
  109MOL   H20524181   3.861   7.232   4.936 -1.5836 -0.8234 -0.4054
  109MOL   H20624182   3.929   7.050   4.798 -0.7790 -1.8644 -0.2644
  109MOL   H20724183   3.775   7.075   4.707 -0.5175  0.1906  1.4642
  109MOL   H20824184   3.934   7.085   4.623 -1.9339  0.6366 -1.9092
  109MOL   H20924185   3.655   7.246   4.791  0.6096 -1.5487  1.1353
  109MOL   H21024186   3.672   7.422   4.826  1.5419 -0.1861 -1.8512
  109MOL   C21124187   3.622   7.313   4.988 -0.2153 -0.0481  0.2177
  109MOL   C21224188   3.645   7.183   5.069  0.2990 -0.2385 -0.2956
  109MOL   O21324189   3.688   7.080   5.014 -0.3270 -0.1761 -0.0671
  109MOL   C21424190   3.585   7.182   5.211  0.1465  0.0703  0.1339
  109MOL   C21524191   3.473   7.317   4.965  1.0635 -0.8804 -0.1512
  109MOL   H21624192   3.662   7.390   5.053 -1.2916 -0.5876  1.5578
  109MOL   H21724193   3.569   7.077   5.234  0.0341 -0.1296 -0.8211
  109MOL   H21824194   3.656   7.218   5.285 -0.6321  1.7745  0.0723
  109MOL   H21924195   3.490   7.233   5.227 -1.5899 -2.7716 -0.7167
  109MOL   H22024196   3.409   7.326   5.053 -0.5789 -0.2660 -1.3852
  109MOL   H22124197   3.445   7.225   4.915  3.5324 -0.9464 -1.4539
  109MOL   H22224198   3.441   7.398   4.899 -0.1295  0.2780  1.7798
  110MOL     C124199   2.044   4.110   3.021 -0.5163 -0.2348 -0.2836
  110MOL     C224200   2.175   4.186   3.031  0.1055 -0.1074 -0.0809
  110MOL     O324201   2.198   4.270   3.116  0.1060 -0.5825 -0.2626
  110MOL     C424202   2.286   4.153   2.932 -0.1779 -0.4168 -0.2587
  110MOL     C524203   1.970   4.132   3.157 -0.9067  0.0191  0.4618
  110MOL     H624204   1.975   4.138   2.942 -1.0483 -0.3693  0.1300
  110MOL     H724205   2.265   4.190   2.832 -1.1836 -1.5099 -0.4707
  110MOL     H824206   2.381   4.181   2.977 -0.1173 -1.7282  0.4812
  110MOL     H924207   2.290   4.044   2.922 -1.9101 -0.6225  1.1079
  110MOL    H1024208   1.955   4.238   3.177 -1.1879  0.0031  0.3312
  110MOL    H1124209   2.022   4.105   3.249  0.0685 -0.3798 -0.2031
  110MOL    H1224210   2.074   4.011   2.988  2.5632  0.5877 -0.1106
  110MOL    C1324211   1.830   4.072   3.157 -0.8525 -0.3661 -0.1639
  110MOL    C1424212   1.730   4.133   3.058 -1.0948 -0.0110  1.3038
  110MOL    O1524213   1.722   4.254   3.040 -0.7264  0.0742  0.1381
  110MOL    C1624214   1.616   4.041   3.004  0.5666  0.1910  0.2372
  110MOL    C1724215   1.763   4.086   3.292 -0.5968 -0.0778  0.3651
  110MOL    H1824216   1.838   3.968   3.122  0.4451  0.3923 -2.2353
  110MOL    H1924217   1.652   3.939   2.992  2.7324  1.2101 -2.2937
  110MOL    H2024218   1.532   4.045   3.073  1.1380  2.1858  0.8560
  110MOL    H2124219   1.597   4.083   2.905 -1.0133 -0.8301  0.0860
  110MOL    H2224220   1.656   4.102   3.294 -0.4631  1.1860 -1.1335
  110MOL    H2324221   1.807   4.173   3.342 -0.9108 -0.7983  1.9062
  110MOL    C2424222   1.784   3.956   3.381  0.0007  0.1081 -0.0465
  110MOL    C2524223   1.700   3.838   3.324 -0.2627  0.3836  0.2446
  110MOL    O2624224   1.593   3.863   3.271  0.4787 -0.4439  0.2184
  110MOL    C2724225   1.754   3.696   3.336 -0.3434 -0.3163  0.5994
  110MOL    C2824226   1.770   3.984   3.528  0.1291 -0.6676 -0.0515
  110MOL    H2924227   1.885   3.917   3.370 -0.3038 -1.0196  0.9598
  110MOL    H3024228   1.846   3.693   3.393  1.6555  3.2547 -2.2383
  110MOL    H3124229   1.685   3.622   3.377 -2.1745  1.4526  0.7793
  110MOL    H3224230   1.781   3.666   3.235  2.9839 -0.4641  1.5049
  110MOL    H3324231   1.740   3.892   3.578  0.5281  0.1185  1.6371
  110MOL    H3424232   1.683   4.047   3.546  1.5382  1.3259 -0.1446
  110MOL    C3524233   1.898   4.045   3.594 -0.4504  0.2056 -0.0132
  110MOL    C3624234   2.005   3.928   3.612 -1.1069  0.5067 -0.2057
  110MOL    O3724235   1.971   3.820   3.665  0.5858  0.0916  0.1432
  110MOL    C3824236   2.156   3.953   3.576  0.0690  0.1962  0.4425
  110MOL    C3924237   1.889   4.118   3.731 -0.2328 -0.2161 -0.0427
  110MOL    H4024238   1.939   4.114   3.521  2.1556  0.4814  1.6361
  110MOL    H4124239   2.167   4.029   3.499 -0.3132 -0.0190  0.1732
  110MOL    H4224240   2.212   3.985   3.663  0.2116  1.0428  0.0531
  110MOL    H4324241   2.201   3.865   3.530  0.8303  1.2325 -0.8469
  110MOL    H4424242   1.920   4.047   3.807 -1.5882  0.1522  0.8582
  110MOL    H4524243   1.782   4.139   3.736 -0.1352  0.5952 -1.0134
  110MOL    C4624244   1.957   4.251   3.742  0.4463  0.1275 -0.1126
  110MOL    C4724245   1.904   4.353   3.643 -0.2516 -0.1997  0.1196
  110MOL    O4824246   1.958   4.374   3.534 -0.3395  0.2715 -0.1607
  110MOL    C4924247   1.782   4.435   3.687  0.2282  0.0114  0.2745
  110MOL    C5024248   2.113   4.245   3.749 -0.0241 -0.1286  0.1710
  110MOL    H5124249   1.915   4.290   3.835 -2.0986  1.5541 -1.7969
  110MOL    H5224250   1.831   4.515   3.743  0.5844 -0.0632  0.0737
  110MOL    H5324251   1.728   4.476   3.602 -1.5819  0.5313  1.6569
  110MOL    H5424252   1.719   4.374   3.752  0.5028  0.2795  0.7968
  110MOL    H5524253   2.134   4.220   3.645 -0.0076  2.2781 -0.4276
  110MOL    H5624254   2.136   4.157   3.809 -0.7050 -0.4698 -0.0590
  110MOL    C5724255   2.179   4.377   3.792 -0.8304 -0.0092  0.1847
  110MOL    C5824256   2.320   4.391   3.730  0.1149 -0.3720 -0.0361
  110MOL    O5924257   2.416   4.346   3.785 -0.0708 -0.4348 -0.4973
  110MOL    C6024258   2.331   4.445   3.592  0.5132 -0.2290  0.5885
  110MOL    C6124259   2.180   4.395   3.946 -0.1915 -0.7771  0.0586
  110MOL    H6224260   2.118   4.456   3.747  0.6036  1.8210  1.3963
  110MOL    H6324261   2.390   4.374   3.533  0.8303 -0.1784  0.8486
  110MOL    H6424262   2.237   4.437   3.538  1.2594  1.0166 -0.9404
  110MOL    H6524263   2.377   4.543   3.598 -2.6709  1.2865  0.6818
  110MOL    H6624264   2.242   4.317   3.991 -1.4209 -2.4430 -1.0905
  110MOL    H6724265   2.079   4.375   3.980 -0.1454 -0.5581  0.3320
  110MOL    C6824266   2.225   4.544   3.982 -0.4220 -0.4259 -0.0771
  110MOL    C6924267   2.370   4.543   4.042  0.4433 -0.3639  0.3629
  110MOL    O7024268   2.390   4.478   4.144 -0.1552  0.2324 -0.3957
  110MOL    C7124269   2.482   4.610   3.968 -0.3172  0.5114  0.4780
  110MOL    C7224270   2.120   4.609   4.071  0.3041  0.0139  0.6400
  110MOL    H7324271   2.221   4.605   3.892 -0.0586 -1.1206 -0.5671
  110MOL    H7424272   2.485   4.572   3.866 -0.7840 -0.6349  0.8860
  110MOL    H7524273   2.486   4.719   3.967  0.3696  0.4993  1.3140
  110MOL    H7624274   2.574   4.575   4.014 -0.2261 -0.9935 -0.7998
  110MOL    H7724275   2.076   4.538   4.142  0.1731  1.4180  1.9896
  110MOL    H7824276   2.043   4.641   4.000 -0.9454 -1.0125  1.5031
  110MOL    C7924277   2.173   4.733   4.148  0.0756 -0.6224 -0.3266
  110MOL    C8024278   2.072   4.784   4.257 -0.0874 -0.3406  0.0174
  110MOL    O8124279   1.953   4.798   4.236  0.3034 -0.8768  0.0771
  110MOL    C8224280   2.132   4.793   4.397  0.1119 -0.4439 -0.5563
  110MOL    C8324281   2.209   4.848   4.055 -0.6083  0.2177 -0.2300
  110MOL    H8424282   2.260   4.701   4.205 -0.0853  1.5950  1.2107
  110MOL    H8524283   2.152   4.696   4.441  0.2367  0.8176  2.2481
  110MOL    H8624284   2.223   4.852   4.405 -0.3810  0.2531  0.0079
  110MOL    H8724285   2.062   4.847   4.461 -0.1922 -2.7523  1.1020
  110MOL    H8824286   2.124   4.893   4.004 -0.5560 -0.0261 -0.5349
  110MOL    H8924287   2.268   4.808   3.973  1.9710 -0.3353  1.8039
  110MOL    C9024288   2.294   4.964   4.111 -0.0448  0.5687  0.1291
  110MOL    C9124289   2.425   4.914   4.182 -1.0326  0.5502 -0.4536
  110MOL    O9224290   2.430   4.817   4.259 -0.0294  0.2457  0.0501
  110MOL    C9324291   2.552   4.993   4.143 -0.2008 -0.1200 -0.1271
  110MOL    C9424292   2.216   5.069   4.196  0.0139 -0.2727  0.1239
  110MOL    H9524293   2.315   5.016   4.018 -2.0507 -2.3126 -2.0350
  110MOL    H9624294   2.545   5.097   4.174  1.8908  0.4610 -1.4315
  110MOL    H9724295   2.648   4.945   4.162  0.3379  0.6979 -0.7142
  110MOL    H9824296   2.555   5.018   4.037  2.2984 -2.5331 -0.7030
  110MOL    H9924297   2.290   5.144   4.223  1.4477 -1.8015  0.4698
  110MOL   H10024298   2.182   5.026   4.290  0.2452  0.3819  0.5108
  110MOL   C10124299   2.100   5.141   4.132  0.0103 -0.1414 -0.4531
  110MOL   C10224300   2.130   5.229   4.011  0.0769  0.1357  0.5031
  110MOL   O10324301   2.242   5.279   3.993 -0.0553 -0.0520  0.8669
  110MOL   C10424302   2.026   5.242   3.894 -0.1284  0.5738  0.2752
  110MOL   C10524303   2.017   5.216   4.243 -0.3159 -0.0776  0.1053
  110MOL   H10624304   2.032   5.065   4.094  0.0190  0.5103 -1.8095
  110MOL   H10724305   2.060   5.333   3.844  2.4376  0.8976  2.4568
  110MOL   H10824306   2.038   5.149   3.838 -0.9347  1.4287 -1.3256
  110MOL   H10924307   1.922   5.263   3.917 -0.2126  0.3943  0.0537
  110MOL   H11024308   1.988   5.312   4.201  1.5278  0.6754  0.5029
  110MOL   H11124309   2.073   5.222   4.336  0.7746 -4.3807 -0.1671
  110MOL   C11224310   1.890   5.136   4.287 -0.3950 -0.1999 -0.0116
  110MOL   C11324311   1.783   5.156   4.179  0.2604  0.4280  0.0446
  110MOL   O11424312   1.768   5.267   4.123 -0.0123 -0.3039 -0.1625
  110MOL   C11524313   1.692   5.041   4.159  0.2407 -0.3628 -0.5905
  110MOL   C11624314   1.838   5.161   4.433  0.1872 -0.3198  0.1435
  110MOL   H11724315   1.906   5.028   4.288 -1.7728 -0.4117  0.7772
  110MOL   H11824316   1.741   4.947   4.184 -0.3861 -0.6721 -0.5173
  110MOL   H11924317   1.604   5.059   4.221 -1.1636 -1.5424 -2.1913
  110MOL   H12024318   1.658   5.030   4.056 -0.5151  0.9993 -0.5078
  110MOL   H12124319   1.918   5.145   4.504 -1.2772  2.1570  2.4306
  110MOL   H12224320   1.758   5.088   4.446 -0.4177  0.3778  0.4358
  110MOL   C12324321   1.781   5.309   4.463  0.7632  0.1709  0.1595
  110MOL   C12424322   1.881   5.421   4.423  0.4086 -0.2697 -0.4648
  110MOL   O12524323   1.990   5.429   4.478  0.1830 -0.7938  0.0830
  110MOL   C12624324   1.837   5.513   4.317 -0.6658 -0.6933  0.2323
  110MOL   C12724325   1.741   5.318   4.614 -0.5138 -0.0371 -0.1576
  110MOL   H12824326   1.688   5.316   4.405  2.2681  2.4657 -2.0725
  110MOL   H12924327   1.773   5.591   4.359 -1.3713 -2.0391  1.7218
  110MOL   H13024328   1.925   5.550   4.264  0.0487 -2.0345  0.4535
  110MOL   H13124329   1.779   5.459   4.241  0.4668 -2.8136  0.8338
  110MOL   H13224330   1.751   5.422   4.647  1.9229 -0.2332 -0.2278
  110MOL   H13324331   1.813   5.259   4.669 -1.8929 -1.1540  0.4853
  110MOL   C13424332   1.594   5.265   4.638 -0.0466  0.5700  0.1201
  110MOL   C13524333   1.498   5.382   4.655  0.8078  0.2445  0.1568
  110MOL   O13624334   1.423   5.398   4.747 -0.0484  0.2608  0.0243
  110MOL   C13724335   1.479   5.470   4.527  0.0389  0.3208  0.0999
  110MOL   C13824336   1.585   5.170   4.763 -0.5848  0.0919 -0.1802
  110MOL   H13924337   1.559   5.211   4.549  2.3639 -2.4791  0.9313
  110MOL   H14024338   1.374   5.452   4.503 -0.5670  2.2446  1.2336
  110MOL   H14124339   1.501   5.574   4.551  0.6115 -0.2839  2.2128
  110MOL   H14224340   1.525   5.444   4.432 -1.1087  0.1103 -0.4108
  110MOL   H14324341   1.480   5.172   4.792 -0.6058 -2.5711  0.0517
  110MOL   H14424342   1.640   5.225   4.839  0.8496 -0.1740 -1.0147
  110MOL   C14524343   1.641   5.025   4.750  0.8156 -0.4887 -0.4103
  110MOL   C14624344   1.578   4.944   4.637 -0.0743  0.6800 -0.1006
  110MOL   O14724345   1.647   4.888   4.556  0.8176  0.3630 -0.0543
  110MOL   C14824346   1.426   4.946   4.614  0.0514  0.2418 -0.3290
  110MOL   C14924347   1.636   4.951   4.883 -0.3628 -0.2576  0.7394
  110MOL   H15024348   1.745   5.041   4.722  0.2954 -0.1099 -2.2208
  110MOL   H15124349   1.371   5.019   4.673 -2.4087 -1.4709 -0.4074
  110MOL   H15224350   1.394   4.985   4.517 -1.7649  0.4153  0.3318
  110MOL   H15324351   1.390   4.845   4.633 -0.9336 -0.3803 -4.8731
  110MOL   H15424352   1.535   4.936   4.921 -0.7199 -1.8159 -0.7578
  110MOL   H15524353   1.669   5.019   4.961 -1.0189 -0.3305  1.0823
  110MOL   C15624354   1.709   4.816   4.867  0.1901 -0.1350  0.2106
  110MOL   C15724355   1.650   4.735   4.992 -0.0894 -0.0586 -0.1990
  110MOL   O15824356   1.696   4.753   5.110 -0.7439  0.3479 -0.4426
  110MOL   C15924357   1.538   4.636   4.957 -0.0135  0.3192  0.0932
  110MOL   C16024358   1.859   4.826   4.866  0.2662  0.0667 -0.2357
  110MOL   H16124359   1.672   4.772   4.775 -1.4504  1.4400  0.0986
  110MOL   H16224360   1.485   4.638   4.862 -0.6135 -2.7683  0.2955
  110MOL   H16324361   1.596   4.544   4.969 -2.3729 -1.0882  1.1916
  110MOL   H16424362   1.473   4.639   5.045 -0.1006 -0.3936  0.0596
  110MOL   H16524363   1.883   4.898   4.945  1.6161  0.0640 -0.6375
  110MOL   H16624364   1.890   4.869   4.771  0.4816  0.7208  0.1221
  110MOL   C16724365   1.944   4.689   4.882 -0.5638  0.0438  0.1639
  110MOL   C16824366   1.901   4.590   4.774 -0.4033  0.1773  0.4736
  110MOL   O16924367   1.882   4.475   4.804 -0.8077  0.1626 -0.1805
  110MOL   C17024368   1.886   4.634   4.625  0.2373 -0.9976 -0.3993
  110MOL   C17124369   1.968   4.622   5.030 -0.1903  0.5476  1.0076
  110MOL   H17224370   2.039   4.726   4.842 -2.0222  0.6774 -2.9090
  110MOL   H17324371   1.792   4.682   4.596  0.1086 -0.4772  0.8599
  110MOL   H17424372   1.971   4.692   4.591 -0.9907 -1.1227 -3.9780
  110MOL   H17524373   1.880   4.544   4.563 -0.6043 -0.6016 -0.9079
  110MOL   H17624374   1.872   4.575   5.052 -0.1916  0.1655  0.1989
  110MOL   H17724375   1.993   4.694   5.108 -0.8370  1.3892  0.4541
  110MOL   C17824376   2.079   4.514   5.038  0.1401  0.8697  0.0572
  110MOL   C17924377   2.062   4.432   5.168  0.3177  0.0756  0.9213
  110MOL   O18024378   2.112   4.467   5.270  0.1326 -0.1325  0.4475
  110MOL   C18124379   1.981   4.303   5.146 -0.7455 -0.1301 -0.7321
  110MOL   C18224380   2.217   4.572   5.015  0.5996  0.7938 -0.4861
  110MOL   H18324381   2.053   4.450   4.954 -0.0173 -0.1788  0.8938
  110MOL   H18424382   1.998   4.255   5.050 -0.8790  0.1740 -0.9103
  110MOL   H18524383   2.007   4.236   5.227  0.5467 -0.6872 -1.6013
  110MOL   H18624384   1.872   4.313   5.143 -0.6547  0.7327 -1.3489
  110MOL   H18724385   2.242   4.635   5.100 -1.0244 -0.6715  1.1161
  110MOL   H18824386   2.214   4.648   4.937 -0.1638  1.7240  0.4440
  110MOL   C18924387   2.330   4.465   5.000  0.4821  0.1556  0.6403
  110MOL   C19024388   2.470   4.524   5.005  0.0213  0.6049 -0.1442
  110MOL   O19124389   2.510   4.590   4.912  0.5730 -0.0443 -0.2952
  110MOL   C19224390   2.548   4.494   5.130  0.7479 -0.6054  0.3627
  110MOL   C19324391   2.315   4.388   4.874  0.3974  0.3938 -0.1135
  110MOL   H19424392   2.327   4.394   5.082 -1.2891  0.2328  0.6628
  110MOL   H19524393   2.578   4.390   5.135  1.0736 -0.6965 -2.5421
  110MOL   H19624394   2.640   4.549   5.113 -1.0068  2.7843  1.2948
  110MOL   H19724395   2.501   4.525   5.223 -0.0654 -0.0743 -0.2175
  110MOL   H19824396   2.341   4.451   4.788 -1.7981 -0.4816 -1.4508
  110MOL   H19924397   2.212   4.354   4.859  0.2325  0.6761  0.3699
  110MOL   C20024398   2.402   4.251   4.881 -0.5154  1.1344  0.6017
  110MOL   C20124399   2.437   4.202   4.741 -0.5965  0.1602 -0.2259
  110MOL   O20224400   2.371   4.106   4.692  0.0782 -0.1612  0.3571
  110MOL   C20324401   2.552   4.260   4.669  0.3019 -0.4012 -0.1824
  110MOL   C20424402   2.318   4.141   4.965 -0.2322  0.4897 -0.2710
  110MOL   H20524403   2.498   4.264   4.932  1.7156 -2.1011 -2.5846
  110MOL   H20624404   2.529   4.352   4.615  0.3761  0.1111  0.6439
  110MOL   H20724405   2.634   4.279   4.737  1.3360 -4.5610 -0.1511
  110MOL   H20824406   2.590   4.185   4.600 -1.8510 -1.2158 -0.5340
  110MOL   H20924407   2.227   4.108   4.916 -0.7494  1.1073  0.2598
  110MOL   H21024408   2.293   4.171   5.067 -0.0545  0.1937 -0.1399
  110MOL   C21124409   2.398   4.006   4.992  1.2791  0.3244 -0.1172
  110MOL   C21224410   2.294   3.903   5.043 -0.1849  0.6549  0.1285
  110MOL   O21324411   2.219   3.930   5.135 -0.1221 -0.1534  0.0710
  110MOL   C21424412   2.290   3.762   4.978 -0.2752  0.1855 -0.0678
  110MOL   C21524413   2.504   4.022   5.097  0.3566 -0.0082 -0.7578
  110MOL   H21624414   2.451   3.967   4.905  0.4020 -0.5405 -0.2663
  110MOL   H21724415   2.356   3.693   5.031  2.2732  2.9747  0.4854
  110MOL   H21824416   2.190   3.725   5.003 -0.8577  1.3015 -0.7062
  110MOL   H21924417   2.319   3.764   4.873 -0.1771 -0.0075 -0.0455
  110MOL   H22024418   2.568   4.105   5.068  0.6237 -0.0838 -0.3869
  110MOL   H22124419   2.553   3.927   5.120 -0.7782 -0.3241  0.4721
  110MOL   H22224420   2.467   4.045   5.197  0.0668 -3.2882 -0.0342
  111MOL     C124421   5.840   6.490   5.680 -0.0130 -0.1841 -0.2661
  111MOL     C224422   5.756   6.372   5.626  0.8014  0.5418 -0.1575
  111MOL     O324423   5.781   6.316   5.518 -0.4469  0.8292 -0.1476
  111MOL     C424424   5.638   6.328   5.715 -0.0854  0.0826  0.0368
  111MOL     C524425   5.961   6.539   5.593 -0.6043 -0.3425  0.3664
  111MOL     H624426   5.772   6.571   5.707  2.4115  1.5323  0.8962
  111MOL     H724427   5.571   6.414   5.723 -0.5757 -0.3553  0.6771
  111MOL     H824428   5.585   6.248   5.662 -1.4782  0.9910  0.0222
  111MOL     H924429   5.652   6.293   5.817 -1.0354 -3.3614 -0.9510
  111MOL    H1024430   6.013   6.457   5.545 -3.0375 -1.4839 -0.3737
  111MOL    H1124431   6.037   6.577   5.661 -0.1953 -2.0763  0.8945
  111MOL    H1224432   5.864   6.454   5.780  0.7138 -1.2893 -0.8240
  111MOL    C1324433   5.920   6.649   5.488  0.5699 -0.8531 -0.5637
  111MOL    C1424434   6.018   6.650   5.370  0.6381 -0.2351 -0.2811
  111MOL    O1524435   6.129   6.701   5.385 -0.4331 -0.2506  0.7298
  111MOL    C1624436   5.976   6.578   5.245 -0.5734  1.4680 -0.5308
  111MOL    C1724437   5.901   6.787   5.551  0.3871 -0.4852  0.7689
  111MOL    H1824438   5.826   6.616   5.446  1.0725 -1.6526 -1.0636
  111MOL    H1924439   6.007   6.474   5.236  1.7496  2.0928 -0.0641
  111MOL    H2024440   5.868   6.580   5.231 -0.5900 -0.4631 -0.8119
  111MOL    H2124441   6.003   6.636   5.157 -1.0852 -0.5845 -2.0753
  111MOL    H2224442   5.998   6.829   5.576  1.2639 -1.8364 -0.3067
  111MOL    H2324443   5.851   6.794   5.647 -1.5148 -0.7211 -0.1786
  111MOL    C2424444   5.831   6.891   5.461 -0.5805  0.1422 -0.4454
  111MOL    C2524445   5.931   6.982   5.377 -0.5766 -0.2060  0.1438
  111MOL    O2624446   5.921   6.994   5.250 -0.0119  0.2475 -0.7469
  111MOL    C2724447   6.048   7.050   5.451  0.2199  0.2122 -0.4588
  111MOL    C2824448   5.726   6.980   5.542  0.1800 -0.0885 -0.0282
  111MOL    H2924449   5.773   6.831   5.391 -0.3643  0.5364 -0.9686
  111MOL    H3024450   6.014   7.150   5.477  1.4457  0.1907  1.2857
  111MOL    H3124451   6.073   7.015   5.551 -2.6406  0.9050  0.5592
  111MOL    H3224452   6.135   7.051   5.386 -0.0272 -0.9655 -0.8093
  111MOL    H3324453   5.777   7.025   5.627  2.7543  0.2011 -1.6745
  111MOL    H3424454   5.668   6.907   5.598  0.5005 -1.1287 -1.0106
  111MOL    C3524455   5.620   7.068   5.461  0.4245 -0.0899 -1.0532
  111MOL    C3624456   5.542   7.165   5.552 -0.9013  0.7458 -0.0657
  111MOL    O3724457   5.554   7.281   5.537 -0.2570 -0.1071  0.4507
  111MOL    C3824458   5.432   7.110   5.648 -0.4808  0.1828  0.6510
  111MOL    C3924459   5.521   6.979   5.378 -0.2931 -0.2361  0.1102
  111MOL    H4024460   5.670   7.127   5.385 -1.4489  2.4092 -0.4280
  111MOL    H4124461   5.345   7.083   5.589  0.8195 -0.9834 -0.7990
  111MOL    H4224462   5.483   7.024   5.692  0.8972  0.9430  0.5913
  111MOL    H4324463   5.411   7.173   5.734 -1.1346 -0.2289  0.7909
  111MOL    H4424464   5.459   6.935   5.456 -0.8097 -1.0367 -0.7479
  111MOL    H4524465   5.575   6.891   5.345 -1.0910 -0.1998 -1.3384
  111MOL    C4624466   5.439   7.040   5.262  0.8699  0.1909 -0.1693
  111MOL    C4724467   5.298   6.974   5.250 -0.2991 -0.0765  0.3254
  111MOL    O4824468   5.276   6.852   5.258  0.3980 -0.1166 -0.2168
  111MOL    C4924469   5.177   7.061   5.218  0.4083 -0.4384  0.5876
  111MOL    C5024470   5.498   7.022   5.124 -0.1909 -0.6267  0.0023
  111MOL    H5124471   5.428   7.144   5.293  3.5501 -0.2117  2.3731
  111MOL    H5224472   5.095   6.993   5.244  0.2028 -0.7207 -0.7982
  111MOL    H5324473   5.168   7.149   5.282  0.2737  0.0016 -0.0354
  111MOL    H5424474   5.172   7.090   5.113  0.8689 -0.3126  0.5993
  111MOL    H5524475   5.433   7.069   5.051  0.1245 -1.2763 -0.7023
  111MOL    H5624476   5.507   6.917   5.095  1.1720 -0.9247  1.4224
  111MOL    C5724477   5.624   7.095   5.101 -0.3397 -0.1676  0.0727
  111MOL    C5824478   5.624   7.244   5.150  0.2063 -0.3859 -0.6763
  111MOL    O5924479   5.527   7.312   5.116 -0.1457  0.2855 -0.0298
  111MOL    C6024480   5.747   7.315   5.210  0.8792 -0.0511 -0.6484
  111MOL    C6124481   5.671   7.082   4.956 -0.4110  0.0707 -0.6325
  111MOL    H6224482   5.709   7.061   5.161  1.3465  1.4661 -1.3127
  111MOL    H6324483   5.776   7.400   5.149  0.1775 -0.0951 -1.0470
  111MOL    H6424484   5.720   7.363   5.303  0.6648 -0.6639 -0.3904
  111MOL    H6524485   5.832   7.249   5.228  0.0656 -0.8699  0.2633
  111MOL    H6624486   5.670   7.179   4.906  0.9400  0.6278  0.4222
  111MOL    H6724487   5.608   7.008   4.905  0.6096 -0.6582 -0.8352
  111MOL    C6824488   5.812   7.030   4.948  0.0640 -0.1611 -0.7490
  111MOL    C6924489   5.915   7.142   4.973 -0.1292 -0.2479 -0.3622
  111MOL    O7024490   5.881   7.258   4.949  0.3641 -0.5562  0.9363
  111MOL    C7124491   6.056   7.125   5.037 -0.2804  0.1860 -0.0648
  111MOL    C7224492   5.848   6.965   4.805 -0.5793  0.2125 -0.0580
  111MOL    H7324493   5.820   6.949   5.020  3.1221  1.0745  0.3956
  111MOL    H7424494   6.135   7.183   4.989  0.3229  0.1375  0.8446
  111MOL    H7524495   6.058   7.165   5.139  0.6917 -2.1723  0.8824
  111MOL    H7624496   6.092   7.023   5.031 -0.6481  0.1121 -0.9944
  111MOL    H7724497   5.869   7.043   4.733  0.1831 -1.6198 -1.8513
  111MOL    H7824498   5.767   6.902   4.767 -1.7913 -0.2468  3.0659
  111MOL    C7924499   5.972   6.873   4.799 -0.7154 -0.4163 -0.3990
  111MOL    C8024500   6.018   6.845   4.646 -0.1795  0.1815  0.0991
  111MOL    O8124501   5.934   6.851   4.554  0.1055 -0.1425  0.4111
  111MOL    C8224502   6.166   6.822   4.618  0.0033  0.4368  0.0768
  111MOL    C8324503   5.963   6.736   4.879 -0.1563  0.4975 -0.0673
  111MOL    H8424504   6.059   6.925   4.839  0.7895 -3.5973  0.6215
  111MOL    H8524505   6.236   6.887   4.670 -0.5556  0.5916  0.6391
  111MOL    H8624506   6.179   6.719   4.653  3.4662  1.0173  0.6420
  111MOL    H8724507   6.188   6.818   4.512  0.4541 -0.7680  0.1996
  111MOL    H8824508   5.957   6.754   4.987  1.3882  1.6226 -0.1510
  111MOL    H8924509   6.060   6.690   4.862 -0.0872  0.7674 -0.3995
  111MOL    C9024510   5.846   6.631   4.843  0.3218 -0.6838 -0.4780
  111MOL    C9124511   5.711   6.664   4.915 -0.4045  0.5549 -0.0106
  111MOL    O9224512   5.701   6.662   5.038  0.2220  0.0595 -0.3690
  111MOL    C9324513   5.581   6.691   4.838 -0.6433  0.3199 -1.3140
  111MOL    C9424514   5.895   6.482   4.869  0.3499 -0.3734  0.6470
  111MOL    H9524515   5.817   6.647   4.740  1.5493  1.2484 -0.5393
  111MOL    H9624516   5.573   6.664   4.732 -2.1317  3.2594 -2.0076
  111MOL    H9724517   5.498   6.632   4.877  1.0814 -0.9540  0.5107
  111MOL    H9824518   5.544   6.792   4.851  0.2597  0.3111  1.7339
  111MOL    H9924519   5.890   6.458   4.975  1.4827  3.5907  1.6824
  111MOL   H10024520   6.003   6.472   4.858  0.2268  0.9714 -2.3173
  111MOL   C10124521   5.823   6.369   4.789 -0.0409 -0.6745 -0.0247
  111MOL   C10224522   5.818   6.389   4.640 -0.2273 -0.3557  0.1197
  111MOL   O10324523   5.721   6.434   4.578 -0.1762 -0.9309 -0.0295
  111MOL   C10424524   5.942   6.360   4.561 -0.4078  0.3749  0.0724
  111MOL   C10524525   5.683   6.328   4.846  0.2740  0.2571 -0.3728
  111MOL   H10624526   5.881   6.277   4.798 -0.3342 -0.7830  0.7643
  111MOL   H10724527   6.033   6.381   4.617 -1.3791 -0.9542  2.2125
  111MOL   H10824528   5.944   6.257   4.526  0.5520  0.3992  0.0393
  111MOL   H10924529   5.949   6.426   4.475  0.8600 -2.3143 -1.9659
  111MOL   H11024530   5.615   6.409   4.822 -0.1092  0.3355  0.9411
  111MOL   H11124531   5.687   6.336   4.954 -0.7812 -0.9369 -0.2298
  111MOL   C11224532   5.618   6.195   4.789  0.4738  0.6232 -0.3396
  111MOL   C11324533   5.470   6.208   4.731 -1.2856 -1.2831 -0.3052
  111MOL   O11424534   5.434   6.153   4.626 -1.2175 -0.0483 -0.2052
  111MOL   C11524535   5.368   6.288   4.815  0.2802  0.5422 -0.4855
  111MOL   C11624536   5.627   6.083   4.891  0.4839  0.6171  0.0656
  111MOL   H11724537   5.664   6.163   4.696  0.4595 -1.6701  0.4190
  111MOL   H11824538   5.282   6.223   4.795 -0.9233  1.5803  1.2342
  111MOL   H11924539   5.397   6.285   4.920  0.3621 -1.5011 -0.5537
  111MOL   H12024540   5.343   6.386   4.775  0.9652  1.2429  0.7949
  111MOL   H12124541   5.542   6.014   4.887  0.7381 -0.0705  4.1716
  111MOL   H12224542   5.624   6.130   4.989  2.0973 -0.6854  0.7553
  111MOL   C12324543   5.757   5.996   4.885 -0.6189 -0.8431 -0.1571
  111MOL   C12424544   5.741   5.907   4.760 -0.3937 -0.2850 -0.2036
  111MOL   O12524545   5.689   5.793   4.766 -0.2258 -0.2441 -0.1140
  111MOL   C12624546   5.794   5.956   4.627 -0.8118 -0.6290  0.7905
  111MOL   C12724547   5.801   5.925   5.012 -0.1402 -0.8626 -0.0070
  111MOL   H12824548   5.836   6.067   4.861 -0.2454 -0.8813  0.9138
  111MOL   H12924549   5.866   6.038   4.638 -0.9484 -0.6697  2.1222
  111MOL   H13024550   5.847   5.868   4.592  0.4890 -0.4624  2.3190
  111MOL   H13124551   5.708   5.986   4.567  0.5640  0.4130 -0.7135
  111MOL   H13224552   5.727   5.845   5.014 -1.5523  0.3169 -2.8389
  111MOL   H13324553   5.785   5.979   5.106 -2.3851  0.8123 -1.3117
  111MOL   C13424554   5.944   5.860   4.998  0.4803  0.8898 -0.5380
  111MOL   C13524555   5.961   5.750   5.103  0.0078 -0.0504 -0.9999
  111MOL   O13624556   5.918   5.770   5.217 -0.3472  0.0716  0.3515
  111MOL   C13724557   6.006   5.612   5.052  0.0989 -0.2258 -0.0192
  111MOL   C13824558   6.068   5.948   4.975 -0.6366  0.3665  0.4562
  111MOL   H13924559   5.931   5.799   4.909 -0.6180  0.7249 -0.2762
  111MOL   H14024560   5.931   5.554   4.999  0.8110 -0.3348 -0.9176
  111MOL   H14124561   6.087   5.613   4.980 -0.2161  0.5399 -0.3685
  111MOL   H14224562   6.030   5.550   5.139 -0.3067  0.7406  0.8044
  111MOL   H14324563   6.026   5.995   4.886 -1.5135  0.9254  1.1542
  111MOL   H14424564   6.149   5.884   4.942 -0.4080  0.3602  1.0347
  111MOL   C14524565   6.117   6.046   5.082  0.2116 -0.2236 -0.3800
  111MOL   C14624566   6.009   6.146   5.107  0.9217  0.1380  0.6865
  111MOL   O14724567   5.956   6.204   5.011 -0.3919 -0.3936  0.3964
  111MOL   C14824568   5.967   6.175   5.245  0.2611 -0.2633 -0.2088
  111MOL   C14924569   6.251   6.115   5.058  0.4290  0.2723 -0.0731
  111MOL   H15024570   6.133   5.986   5.171 -2.1190 -0.7910 -0.3049
  111MOL   H15124571   6.041   6.234   5.298  0.3984  1.3194 -2.0886
  111MOL   H15224572   5.860   6.199   5.245  0.4224  0.6634  3.1860
  111MOL   H15324573   5.964   6.088   5.310  1.9618 -0.7406 -0.7479
  111MOL   H15424574   6.325   6.037   5.076 -0.1883  0.2415  2.4847
  111MOL   H15524575   6.265   6.189   5.136  1.6345  2.4066 -2.2420
  111MOL   C15624576   6.278   6.194   4.923 -0.4421  0.3494  0.1125
  111MOL   C15724577   6.273   6.106   4.798 -0.8744  0.4190  0.6253
  111MOL   O15824578   6.363   6.032   4.767 -0.1165 -0.2462 -0.1645
  111MOL   C15924579   6.149   6.120   4.710  0.7543  0.3018 -0.2070
  111MOL   C16024580   6.416   6.269   4.938  0.3082  0.2827 -0.3613
  111MOL   H16124581   6.206   6.275   4.908 -0.5018  0.5571  1.3799
  111MOL   H16224582   6.077   6.187   4.758 -0.3976 -1.0240 -0.0698
  111MOL   H16324583   6.168   6.172   4.616 -3.2730  1.2819 -0.5573
  111MOL   H16424584   6.110   6.023   4.680 -1.6455  0.8903  0.9093
  111MOL   H16524585   6.431   6.318   4.842 -0.9988 -0.2795 -0.8657
  111MOL   H16624586   6.498   6.199   4.952 -0.8042 -1.1433 -0.8473
  111MOL   C16724587   6.433   6.373   5.056  0.3689  1.0398  0.4691
  111MOL   C16824588   6.316   6.467   5.086  0.6490 -0.0088  0.6141
  111MOL   O16924589   6.254   6.518   4.987  0.4526  0.0188  0.2214
  111MOL   C17024590   6.301   6.516   5.228 -0.2555  0.7572  0.0949
  111MOL   C17124591   6.543   6.482   5.038 -0.2016  0.2920  0.6226
  111MOL   H17224592   6.452   6.316   5.147 -2.0225  0.5318  0.6606
  111MOL   H17324593   6.291   6.624   5.225 -0.1158  0.7458 -0.7183
  111MOL   H17424594   6.216   6.479   5.287  1.1288 -1.7547  0.6077
  111MOL   H17524595   6.384   6.479   5.289 -1.0819 -1.1501  0.1007
  111MOL   H17624596   6.528   6.568   5.104 -1.1131  0.9438 -0.4112
  111MOL   H17724597   6.524   6.523   4.939 -3.1405 -1.2926  0.4672
  111MOL   C17824598   6.692   6.421   5.040 -0.2246 -0.1084  0.8616
  111MOL   C17924599   6.770   6.482   5.154 -0.3775  0.5826  0.2787
  111MOL   O18024600   6.841   6.582   5.140 -0.3866  0.9524 -0.1184
  111MOL   C18124601   6.729   6.431   5.287 -0.4778  0.6096 -0.5104
  111MOL   C18224602   6.760   6.444   4.898 -0.0538  0.2780 -0.0875
  111MOL   H18324603   6.686   6.312   5.039 -0.2615 -0.1044  0.4237
  111MOL   H18424604   6.761   6.495   5.368  1.2799 -1.0770  0.1627
  111MOL   H18524605   6.620   6.436   5.279 -0.5719 -0.2640  0.1192
  111MOL   H18624606   6.751   6.328   5.317  0.4512  0.8637 -0.3159
  111MOL   H18724607   6.769   6.552   4.886  1.2784  0.2468  0.4893
  111MOL   H18824608   6.684   6.420   4.824  1.5054 -0.5406 -1.4662
  111MOL   C18924609   6.889   6.365   4.878  0.1000  0.0819  0.5281
  111MOL   C19024610   6.977   6.425   4.766 -0.2231  0.0721 -0.4430
  111MOL   O19124611   6.969   6.394   4.648  0.1005 -0.0566 -0.1718
  111MOL   C19224612   7.086   6.524   4.810 -0.0010 -0.4132 -0.1420
  111MOL   C19324613   6.871   6.211   4.858  0.5805 -0.5529 -1.1983
  111MOL   H19424614   6.949   6.382   4.967  1.1102 -3.3810  0.6010
  111MOL   H19524615   7.100   6.526   4.918  1.1397 -0.9277 -0.2702
  111MOL   H19624616   7.186   6.500   4.773  0.4824  2.4805 -0.8548
  111MOL   H19724617   7.070   6.621   4.762  2.0259 -0.7169 -1.5031
  111MOL   H19824618   6.937   6.179   4.777 -0.6788  1.1770 -2.9449
  111MOL   H19924619   6.768   6.186   4.835 -0.0638 -0.3630  1.3614
  111MOL   C20024620   6.904   6.122   4.984 -0.2865 -0.2831  0.3156
  111MOL   C20124621   7.051   6.147   5.032  0.2753 -0.5483  0.3398
  111MOL   O20224622   7.147   6.120   4.970  0.1939 -0.2675 -0.2801
  111MOL   C20324623   7.064   6.209   5.171 -0.6539  0.4214 -0.3277
  111MOL   C20424624   6.887   5.967   4.946 -0.2072  0.3316 -0.0738
  111MOL   H20524625   6.836   6.152   5.064 -0.2000  0.4180  0.1240
  111MOL   H20624626   7.019   6.308   5.173  0.1747  0.7914  0.8047
  111MOL   H20724627   7.008   6.149   5.244  3.7184 -3.2654  0.2458
  111MOL   H20824628   7.169   6.218   5.199 -0.9950 -1.1272  1.6080
  111MOL   H20924629   6.918   5.902   5.028 -0.1375 -0.8713 -1.0450
  111MOL   H21024630   6.956   5.961   4.861 -0.5481  0.7733 -0.3855
  111MOL   C21124631   6.749   5.922   4.900 -0.0053  0.3058 -0.5390
  111MOL   C21224632   6.646   5.916   5.015  0.2202 -0.0176  0.0319
  111MOL   O21324633   6.656   5.994   5.109  0.7644 -0.0120  0.3211
  111MOL   C21424634   6.535   5.810   5.007 -0.0220  0.1430 -0.3445
  111MOL   C21524635   6.762   5.790   4.825  0.1763  0.8218 -0.2915
  111MOL   H21624636   6.699   5.986   4.827 -1.5306  0.2099  0.3903
  111MOL   H21724637   6.571   5.709   4.987 -2.2871 -0.8868  0.6179
  111MOL   H21824638   6.471   5.822   5.095  1.2473  3.0729  0.2382
  111MOL   H21924639   6.475   5.824   4.917  1.4018 -2.5473 -1.7856
  111MOL   H22024640   6.829   5.807   4.741 -1.2035  1.8999 -1.1713
  111MOL   H22124641   6.667   5.748   4.793  1.6977 -1.0823 -2.4874
  111MOL   H22224642   6.811   5.711   4.883 -1.4982 -1.2467 -1.6523
  112MOL     C124643   2.821   1.718   2.381  0.0910  0.3947 -0.4881
  112MOL     C224644   2.720   1.703   2.492  0.3838  0.4458  0.2759
  112MOL     O324645   2.619   1.630   2.483 -0.4727  0.0101 -0.3517
  112MOL     C424646   2.725   1.802   2.609  0.7469 -0.4127  0.5621
  112MOL     C524647   2.782   1.814   2.268 -0.1142  0.9362 -0.8278
  112MOL     H624648   2.917   1.755   2.417  0.0798 -1.3670  1.4015
  112MOL     H724649   2.827   1.842   2.613  1.3246 -1.5702 -1.5679
  112MOL     H824650   2.653   1.883   2.599  1.2079  0.2116  2.1068
  112MOL     H924651   2.730   1.753   2.706  0.1614  2.1766  1.9609
  112MOL    H1024652   2.870   1.855   2.217  2.0224 -1.1425  1.0883
  112MOL    H1124653   2.728   1.891   2.322  1.4785  0.5634  1.3884
  112MOL    H1224654   2.842   1.618   2.343 -0.5245  0.0669  0.0206
  112MOL    C1324655   2.679   1.745   2.163  0.2184  0.0491 -0.5450
  112MOL    C1424656   2.732   1.621   2.103 -0.3319 -0.3680  0.1692
  112MOL    O1524657   2.846   1.613   2.052  0.6132  0.0997 -0.3072
  112MOL    C1624658   2.650   1.498   2.114  0.3528  0.2813 -0.0183
  112MOL    C1724659   2.645   1.850   2.050  0.4368  0.1674  0.5428
  112MOL    H1824660   2.595   1.717   2.227  0.7217  0.5006  0.3287
  112MOL    H1924661   2.636   1.480   2.221  0.7775  1.0078  0.1628
  112MOL    H2024662   2.559   1.506   2.055  0.9171  0.4589 -0.8684
  112MOL    H2124663   2.705   1.408   2.087 -2.7619 -0.6715 -3.5463
  112MOL    H2224664   2.742   1.875   2.006 -0.7331  0.6358 -1.8214
  112MOL    H2324665   2.605   1.939   2.100  1.8494  0.1320  1.7945
  112MOL    C2424666   2.539   1.799   1.947  1.3464  0.2450  0.7062
  112MOL    C2524667   2.551   1.845   1.800 -0.3116 -0.2948 -0.4653
  112MOL    O2624668   2.584   1.770   1.711  0.2814  0.1882  0.2362
  112MOL    C2724669   2.521   1.995   1.778  0.6410 -0.0045 -0.2150
  112MOL    C2824670   2.388   1.823   1.988  0.0499 -0.0084 -0.4408
  112MOL    H2924671   2.547   1.691   1.938 -2.6049  0.2304 -5.3624
  112MOL    H3024672   2.577   2.025   1.690  2.6086 -0.6832  0.7920
  112MOL    H3124673   2.414   1.994   1.756  0.4972 -0.0975  0.4877
  112MOL    H3224674   2.547   2.054   1.866 -0.4517  1.2226 -0.6886
  112MOL    H3324675   2.369   1.930   1.994  2.0911  0.3150  0.9161
  112MOL    H3424676   2.384   1.781   2.089  1.6463 -2.2296 -1.2586
  112MOL    C3524677   2.278   1.750   1.905  0.5787 -0.0463  0.3404
  112MOL    C3624678   2.143   1.814   1.920 -0.1849 -0.2164 -0.4329
  112MOL    O3724679   2.106   1.891   1.834  0.9069 -0.2268 -0.0650
  112MOL    C3824680   2.050   1.767   2.031  0.2248 -0.5517  0.3932
  112MOL    C3924681   2.273   1.595   1.920  0.4458 -0.1207 -0.4186
  112MOL    H4024682   2.305   1.766   1.801  1.3398  3.9634  1.0486
  112MOL    H4124683   2.083   1.779   2.134  2.1036  0.0964 -0.2680
  112MOL    H4224684   1.951   1.811   2.022 -0.4530 -2.0229  0.4461
  112MOL    H4324685   2.034   1.659   2.038 -1.1649 -0.2700  1.9107
  112MOL    H4424686   2.256   1.569   2.024 -0.7005 -0.9707 -0.8029
  112MOL    H4524687   2.368   1.546   1.900  0.6702  0.1802 -0.0987
  112MOL    C4624688   2.168   1.523   1.826 -0.6228 -0.2629 -0.2953
  112MOL    C4724689   2.144   1.378   1.870  0.4327 -0.6230 -0.6527
  112MOL    O4824690   2.201   1.280   1.822  0.3650 -0.3958  0.2114
  112MOL    C4924691   2.029   1.356   1.970  0.7110 -0.2387  0.7008
  112MOL    C5024692   2.208   1.527   1.680  0.5928  0.0997 -0.2087
  112MOL    H5124693   2.073   1.575   1.838  0.2187  1.0874  0.5883
  112MOL    H5224694   2.053   1.322   2.071  0.3783 -1.5680  0.3512
  112MOL    H5324695   1.966   1.441   1.994 -0.6273 -1.1105  0.3295
  112MOL    H5424696   1.972   1.279   1.918  2.2895 -0.9155 -0.0671
  112MOL    H5524697   2.213   1.425   1.642 -2.2951 -0.3052  0.4122
  112MOL    H5624698   2.309   1.565   1.668  0.9885 -1.3636 -1.7591
  112MOL    C5724699   2.121   1.606   1.583 -0.8939 -0.6353 -0.1102
  112MOL    C5824700   1.982   1.553   1.578 -0.5963  0.0386 -0.0826
  112MOL    O5924701   1.960   1.434   1.566  0.3884 -0.2736  0.8373
  112MOL    C6024702   1.868   1.649   1.594  0.6078  0.2244  0.0926
  112MOL    C6124703   2.185   1.624   1.437  1.0869  0.1548  0.5147
  112MOL    H6224704   2.115   1.701   1.637 -0.4283  1.1173 -3.0364
  112MOL    H6324705   1.910   1.749   1.608  3.4469 -0.8753 -0.2869
  112MOL    H6424706   1.812   1.642   1.501 -1.7382 -2.1487  1.6281
  112MOL    H6524707   1.806   1.621   1.680  1.2551 -0.5149  0.3207
  112MOL    H6624708   2.122   1.581   1.359  3.2062 -1.3213 -0.4518
  112MOL    H6724709   2.269   1.554   1.432  1.8225  1.1734 -3.0715
  112MOL    C6824710   2.219   1.773   1.392  1.3509 -0.1760  0.0728
  112MOL    C6924711   2.094   1.868   1.398 -0.3658 -0.2696  0.9392
  112MOL    O7024712   2.002   1.863   1.317  0.1382  0.2068  0.0754
  112MOL    C7124713   2.093   1.980   1.502  0.6169  0.5712  0.1390
  112MOL    C7224714   2.288   1.769   1.256  0.0960 -0.6821  0.7128
  112MOL    H7324715   2.289   1.807   1.469  0.0069 -0.7569  1.5907
  112MOL    H7424716   2.189   2.031   1.492  1.3485 -0.7273  0.3829
  112MOL    H7524717   2.009   2.044   1.479  0.1027 -0.3535 -0.5948
  112MOL    H7624718   2.071   1.941   1.601 -1.0247  0.6217 -0.2063
  112MOL    H7724719   2.206   1.764   1.184  0.8446 -1.5814 -0.0948
  112MOL    H7824720   2.337   1.673   1.242 -0.8593 -1.0784  0.0115
  112MOL    C7924721   2.372   1.894   1.229 -0.1729 -0.1498  0.0648
  112MOL    C8024722   2.488   1.910   1.330  0.2262 -0.0725  0.3632
  112MOL    O8124723   2.504   2.018   1.385  0.1914 -0.0068  0.3142
  112MOL    C8224724   2.582   1.793   1.353  0.2221  0.4826  0.0710
  112MOL    C8324725   2.292   2.024   1.199  0.0879 -0.5133  0.1728
  112MOL    H8424726   2.424   1.860   1.139 -1.1047  0.6663 -0.7987
  112MOL    H8524727   2.545   1.711   1.414 -0.4787  0.7970  0.0803
  112MOL    H8624728   2.616   1.743   1.263  0.1236 -0.4433  0.5442
  112MOL    H8724729   2.680   1.816   1.395 -0.4871  4.3655 -0.2191
  112MOL    H8824730   2.360   2.103   1.165 -0.7949 -0.1761 -0.8507
  112MOL    H8924731   2.248   2.060   1.292  0.5664 -1.5612  0.8094
  112MOL    C9024732   2.180   2.021   1.090 -0.1405 -0.0616  0.3316
  112MOL    C9124733   2.238   2.006   0.950  0.4325 -0.0720 -0.1786
  112MOL    O9224734   2.318   2.082   0.902  0.2488  0.0010 -0.3186
  112MOL    C9324735   2.190   1.892   0.861 -0.0106  0.2737 -0.3547
  112MOL    C9424736   2.099   2.148   1.111 -0.7219  0.1785 -0.2736
  112MOL    H9524737   2.111   1.938   1.104 -2.0219  1.1183 -1.6348
  112MOL    H9624738   2.127   1.919   0.776  1.2543  0.3438 -1.2863
  112MOL    H9724739   2.278   1.844   0.817  0.2843  2.3671 -2.1578
  112MOL    H9824740   2.135   1.830   0.930  1.1926  0.2590  0.6103
  112MOL    H9924741   2.152   2.240   1.087  2.1687 -1.0610  1.1011
  112MOL   H10024742   2.082   2.151   1.219 -0.7648 -2.0347 -0.1997
  112MOL   C10124743   1.955   2.141   1.043  0.6294 -0.1469 -0.1530
  112MOL   C10224744   1.952   2.208   0.903  1.0325 -0.1741  0.0311
  112MOL   O10324745   1.921   2.138   0.807  0.5710  0.0077 -0.0545
  112MOL   C10424746   2.004   2.349   0.883 -0.1816 -0.4858  0.3568
  112MOL   C10524747   1.842   2.199   1.136 -0.1619  0.2101  0.5392
  112MOL   H10624748   1.931   2.035   1.034 -0.9816  0.2863 -1.1103
  112MOL   H10724749   1.964   2.429   0.946  2.2944  3.1158 -2.4018
  112MOL   H10824750   2.110   2.346   0.908  0.4507  0.4045 -2.0622
  112MOL   H10924751   1.976   2.363   0.778  1.6886 -0.5082 -0.1561
  112MOL   H11024752   1.855   2.306   1.150  0.3880 -0.0729  2.3324
  112MOL   H11124753   1.856   2.153   1.234 -0.4271  0.3413  0.6378
  112MOL   C11224754   1.702   2.157   1.097  0.9704  0.7911  0.1536
  112MOL   C11324755   1.642   2.256   0.996 -0.0315  0.0895 -0.0318
  112MOL   O11424756   1.648   2.377   1.012 -0.6025 -1.2710 -0.4049
  112MOL   C11524757   1.540   2.199   0.892 -0.1224  0.2154  0.1141
  112MOL   C11624758   1.603   2.139   1.214  0.1269 -0.0153 -0.5908
  112MOL   H11724759   1.705   2.064   1.039 -0.4960  1.5821 -1.2156
  112MOL   H11824760   1.478   2.121   0.938  1.2315 -0.4185  0.8919
  112MOL   H11924761   1.481   2.282   0.855  2.7578  2.1689 -0.2100
  112MOL   H12024762   1.591   2.160   0.803 -0.5371 -0.6300  0.2325
  112MOL   H12124763   1.500   2.149   1.180 -0.4258  1.0006  1.2824
  112MOL   H12224764   1.603   2.230   1.274 -1.2248 -1.5828  1.8859
  112MOL   C12324765   1.608   2.017   1.304 -0.0896  0.1960  0.1907
  112MOL   C12424766   1.611   1.885   1.230  0.3794 -0.6863 -0.0813
  112MOL   O12524767   1.567   1.874   1.111  0.3727 -0.5032 -0.4493
  112MOL   C12624768   1.670   1.765   1.309  0.1697  0.3211  0.2485
  112MOL   C12724769   1.501   2.005   1.415 -0.3916 -0.3872 -0.1605
  112MOL   H12824770   1.702   2.016   1.358 -0.7766 -2.8830  1.4362
  112MOL   H12924771   1.598   1.722   1.378 -0.6566  1.3120  0.0097
  112MOL   H13024772   1.700   1.680   1.247 -2.0611  0.4764 -1.0852
  112MOL   H13124773   1.747   1.797   1.380  0.2314 -0.0686  0.3584
  112MOL   H13224774   1.450   1.909   1.416 -0.3160 -0.4372 -0.6837
  112MOL   H13324775   1.423   2.075   1.383 -1.1249 -1.7915 -1.5419
  112MOL   C13424776   1.532   2.038   1.566 -0.4967 -0.3310 -0.8184
  112MOL   C13524777   1.593   1.917   1.636 -0.4189 -0.4178 -0.3758
  112MOL   O13624778   1.550   1.801   1.632  0.4081 -0.6124  0.0412
  112MOL   C13724779   1.717   1.951   1.729 -0.8867 -0.1185 -0.4383
  112MOL   C13824780   1.411   2.092   1.640 -0.0285 -0.1168 -0.0837
  112MOL   H13924781   1.607   2.118   1.565 -0.7651 -0.0802 -1.0884
  112MOL   H14024782   1.670   2.026   1.793  2.0492  0.2784  1.3154
  112MOL   H14124783   1.761   1.879   1.797 -0.6948  1.0812  0.7256
  112MOL   H14224784   1.799   1.985   1.666  0.1582 -0.8662  0.5186
  112MOL   H14324785   1.383   2.190   1.601  0.3495 -0.7393 -1.9667
  112MOL   H14424786   1.442   2.125   1.739  1.4259  1.9409 -1.1957
  112MOL   C14524787   1.281   1.999   1.658  0.9087 -0.4711 -0.4700
  112MOL   C14624788   1.202   1.962   1.526  0.2456 -0.2194 -0.5786
  112MOL   O14724789   1.150   2.042   1.449  0.2744 -1.0335 -0.7391
  112MOL   C14824790   1.194   1.814   1.499 -0.4424 -0.4522 -0.2077
  112MOL   C14924791   1.181   2.067   1.747 -0.5985 -0.4981  0.4622
  112MOL   H15024792   1.305   1.901   1.698  1.6725 -0.3840 -0.7213
  112MOL   H15124793   1.124   1.762   1.565  0.1181 -2.5063 -1.2060
  112MOL   H15224794   1.174   1.803   1.393 -2.0241 -0.6362  0.0873
  112MOL   H15324795   1.295   1.776   1.515  0.7405  2.3529 -0.6413
  112MOL   H15424796   1.077   2.039   1.732 -0.9294  1.0151 -0.1147
  112MOL   H15524797   1.173   2.173   1.725 -0.6843 -0.8242 -1.1163
  112MOL   C15624798   1.198   2.062   1.900 -0.0417  0.1481 -0.0474
  112MOL   C15724799   1.184   1.919   1.961  0.1682  0.1474 -0.1197
  112MOL   O15824800   1.142   1.820   1.897 -0.7587 -0.0208  0.2905
  112MOL   C15924801   1.208   1.907   2.106  0.0203  0.1554 -0.0033
  112MOL   C16024802   1.097   2.164   1.972 -0.5157 -0.2142  0.2284
  112MOL   H16124803   1.301   2.094   1.914 -0.4161  1.9021 -1.0241
  112MOL   H16224804   1.240   2.003   2.146  0.8768 -0.9779  2.1300
  112MOL   H16324805   1.125   1.865   2.163  1.1929  1.3567  2.6945
  112MOL   H16424806   1.299   1.853   2.134 -0.2374 -0.5455 -0.4953
  112MOL   H16524807   1.101   2.264   1.930 -0.4637 -0.2705  0.0952
  112MOL   H16624808   1.142   2.177   2.071 -0.5473 -2.0985  0.5108
  112MOL   C16724809   0.949   2.117   1.989 -0.2014  0.1330 -0.3265
  112MOL   C16824810   0.845   2.192   1.900  0.3416  0.8336 -0.1803
  112MOL   O16924811   0.879   2.301   1.859  0.0706  0.1963 -0.0612
  112MOL   C17024812   0.709   2.137   1.873 -0.2580 -0.4118  0.2590
  112MOL   C17124813   0.885   2.120   2.137 -0.5281  0.3725  0.1516
  112MOL   H17224814   0.938   2.014   1.955  0.6799 -0.2856  0.6707
  112MOL   H17324815   0.622   2.189   1.913 -0.2954  0.5907 -1.0692
  112MOL   H17424816   0.692   2.121   1.767  0.5081  0.5421 -0.0147
  112MOL   H17524817   0.676   2.039   1.908 -0.3252 -0.5238 -0.1235
  112MOL   H17624818   0.941   2.037   2.181  1.5183  2.3291  1.3790
  112MOL   H17724819   0.781   2.093   2.123 -0.4546 -0.7931  1.7276
  112MOL   C17824820   0.896   2.254   2.218  0.5902  0.5276 -0.6684
  112MOL   C17924821   0.952   2.223   2.363  0.0506 -0.0533  0.1498
  112MOL   O18024822   0.889   2.148   2.438  0.1147  0.1423  0.7585
  112MOL   C18124823   1.083   2.285   2.411 -0.0207  0.3927 -0.5780
  112MOL   C18224824   0.759   2.328   2.240 -0.4113  0.7467  0.2494
  112MOL   H18324825   0.972   2.315   2.169  1.6782  0.1448  0.5213
  112MOL   H18424826   1.160   2.270   2.336  0.0713  1.0163 -0.6114
  112MOL   H18524827   1.075   2.393   2.425  0.4994  0.3192  0.3257
  112MOL   H18624828   1.119   2.238   2.503 -3.0936 -1.5788 -0.2929
  112MOL   H18724829   0.699   2.267   2.307 -0.6033  0.1858 -0.4377
  112MOL   H18824830   0.702   2.320   2.148  1.6958 -0.2928 -1.0166
  112MOL   C18924831   0.762   2.470   2.304 -0.3893  0.2787 -0.3445
  112MOL   C19024832   0.707   2.478   2.449 -0.2547 -0.4385 -0.2824
  112MOL   O19124833   0.585   2.474   2.476 -0.2458  0.2602  0.1329
  112MOL   C19224834   0.806   2.516   2.561 -0.2321  0.5117 -0.1119
  112MOL   C19324835   0.702   2.573   2.213  0.5609 -0.4810  0.6736
  112MOL   H19424836   0.868   2.494   2.302 -0.3388 -0.0061 -2.1208
  112MOL   H19524837   0.741   2.573   2.628  2.8371  1.5231  2.0778
  112MOL   H19624838   0.850   2.434   2.616  1.6654  2.2958  1.0835
  112MOL   H19724839   0.874   2.594   2.527 -0.7634  2.3886  2.9957
  112MOL   H19824840   0.604   2.607   2.247  0.5398 -1.8452  2.0233
  112MOL   H19924841   0.675   2.533   2.115  1.0126 -0.0385  0.3665
  112MOL   C20024842   0.788   2.705   2.180  0.6347  0.1955  0.5660
  112MOL   C20124843   0.911   2.676   2.092 -0.3118 -0.0250 -1.3657
  112MOL   O20224844   1.000   2.600   2.131  0.3854 -0.3117  0.0229
  112MOL   C20324845   0.922   2.740   1.954  0.6131  0.8960 -0.2342
  112MOL   C20424846   0.827   2.777   2.307 -0.6589  0.1770  0.0248
  112MOL   H20524847   0.720   2.778   2.135  1.5459  0.4546 -0.3951
  112MOL   H20624848   0.851   2.709   1.877  0.1730 -1.1282  0.9314
  112MOL   H20724849   0.923   2.848   1.962  1.1746  0.8413  0.4541
  112MOL   H20824850   1.022   2.718   1.918  0.0581 -0.3478 -1.0832
  112MOL   H20924851   0.895   2.711   2.362  0.7642  0.7482 -1.0018
  112MOL   H21024852   0.732   2.785   2.359 -0.4075  0.6905  0.4066
  112MOL   C21124853   0.898   2.919   2.309  0.2061 -1.1322  0.7848
  112MOL   C21224854   0.807   3.019   2.244 -0.0213 -0.0706  0.6713
  112MOL   O21324855   0.804   3.044   2.126  0.0377 -0.3173  0.0571
  112MOL   C21424856   0.741   3.124   2.334  0.0987 -0.2531 -0.2950
  112MOL   C21524857   1.044   2.919   2.260  0.7831 -0.7835  0.4434
  112MOL   H21624858   0.913   2.964   2.407 -0.1712 -0.6293  0.6129
  112MOL   H21724859   0.728   3.088   2.436  0.1226 -1.9991 -0.8977
  112MOL   H21824860   0.800   3.215   2.344  2.7265 -1.8184 -0.9663
  112MOL   H21924861   0.641   3.151   2.301  0.3457  0.3617 -0.5520
  112MOL   H22024862   1.104   2.993   2.313  0.2149 -0.1153  0.1603
  112MOL   H22124863   1.050   2.937   2.153 -0.6376 -0.9689  0.3203
  112MOL   H22224864   1.089   2.820   2.262  1.5835 -0.4163  0.6177
  113MOL     C124865   3.119   0.196   2.751 -0.6077  0.5829  0.2974
  113MOL     C224866   3.138   0.254   2.617 -0.0314 -0.1260 -0.2888
  113MOL     O324867   3.046   0.320   2.568  0.4480  0.1196 -0.1260
  113MOL     C424868   3.269   0.217   2.546 -0.0514  0.2041 -0.2710
  113MOL     C524869   3.015   0.277   2.835 -0.4792 -0.1759 -0.0785
  113MOL     H624870   3.072   0.099   2.742 -0.4062  0.5511 -0.5266
  113MOL     H724871   3.355   0.257   2.598 -0.8028  0.7743  0.5518
  113MOL     H824872   3.283   0.112   2.519  0.7554 -0.7004  3.3662
  113MOL     H924873   3.271   0.267   2.449  1.4871  3.1492  1.2407
  113MOL    H1024874   2.984   0.217   2.920 -1.5273 -2.5031 -2.0296
  113MOL    H1124875   2.926   0.299   2.776  0.6481  0.1285 -1.7070
  113MOL    H1224876   3.212   0.192   2.806  0.3403 -2.3889 -1.4261
  113MOL    C1324877   3.073   0.415   2.889  0.5719  0.6326  0.5466
  113MOL    C1424878   3.161   0.392   3.021  1.1025 -0.4550 -0.0893
  113MOL    O1524879   3.104   0.386   3.129  0.1797  0.2593  0.0884
  113MOL    C1624880   3.313   0.419   3.013 -0.2081 -0.5888  0.3970
  113MOL    C1724881   2.959   0.512   2.914  0.1555  0.0574 -0.0483
  113MOL    H1824882   3.140   0.462   2.817 -0.3275 -1.1753 -1.5401
  113MOL    H1924883   3.354   0.360   2.932 -2.8083 -0.7112 -0.8874
  113MOL    H2024884   3.338   0.523   2.994 -1.3839 -0.6470 -1.5356
  113MOL    H2124885   3.369   0.385   3.101  0.7168 -0.0096  0.0460
  113MOL    H2224886   2.901   0.481   3.001 -0.5291 -1.0108 -0.8804
  113MOL    H2324887   2.876   0.498   2.844  0.6765  0.1217 -0.6834
  113MOL    C2424888   3.006   0.657   2.924  0.3020 -0.2754 -0.0366
  113MOL    C2524889   2.945   0.733   3.038 -0.3864 -0.0599 -0.1155
  113MOL    O2624890   2.831   0.765   3.040 -0.1171  0.2263  0.0843
  113MOL    C2724891   3.029   0.741   3.170 -0.7284  0.5582  0.2368
  113MOL    C2824892   2.995   0.733   2.785  0.9529 -0.2798  0.3075
  113MOL    H2924893   3.109   0.660   2.959  0.1900 -0.1132  0.2819
  113MOL    H3024894   3.122   0.791   3.145  0.0112 -1.3868 -1.0758
  113MOL    H3124895   2.971   0.796   3.243 -1.9862 -0.4518  0.0252
  113MOL    H3224896   3.051   0.638   3.199 -0.2019 -0.1097 -2.3259
  113MOL    H3324897   2.901   0.786   2.771  0.2156 -1.3739  1.1001
  113MOL    H3424898   2.993   0.666   2.699  0.5313 -0.7869  0.7112
  113MOL    C3524899   3.108   0.821   2.745 -0.5159  0.2872 -0.3678
  113MOL    C3624900   3.239   0.740   2.717  0.6608 -0.3661 -0.5967
  113MOL    O3724901   3.327   0.738   2.801  0.2042 -0.5377 -0.3764
  113MOL    C3824902   3.237   0.652   2.591  0.0885  0.2136  1.0294
  113MOL    C3924903   3.128   0.937   2.839  0.5874  0.0029 -0.4221
  113MOL    H4024904   3.079   0.868   2.651 -0.9872 -2.4338 -1.6217
  113MOL    H4124905   3.233   0.545   2.610  0.6552  0.2914  1.6238
  113MOL    H4224906   3.145   0.682   2.541  0.6717 -0.0012 -0.1963
  113MOL    H4324907   3.326   0.674   2.531 -0.3516  2.0631  1.0270
  113MOL    H4424908   3.195   0.901   2.917 -1.3354 -1.5683  0.5632
  113MOL    H4524909   3.043   0.964   2.901 -0.3929  0.0016 -1.7461
  113MOL    C4624910   3.192   1.064   2.778 -0.0979  0.0492 -0.1857
  113MOL    C4724911   3.307   1.109   2.873  0.1036  0.1771  0.4692
  113MOL    O4824912   3.304   1.210   2.946 -0.5745  0.1609  0.4690
  113MOL    C4924913   3.438   1.042   2.861 -0.4328 -0.1131 -0.2780
  113MOL    C5024914   3.083   1.168   2.754  0.0982 -0.2493 -0.1078
  113MOL    H5124915   3.241   1.033   2.686 -0.3840 -0.0953 -0.2893
  113MOL    H5224916   3.447   0.976   2.947  0.2101 -3.0037 -2.5144
  113MOL    H5324917   3.458   0.980   2.774  2.5303 -0.1668  0.4142
  113MOL    H5424918   3.527   1.103   2.873 -1.7934  1.5380  2.0158
  113MOL    H5524919   3.034   1.193   2.848 -0.9298 -0.5597 -0.5494
  113MOL    H5624920   3.015   1.111   2.690 -0.0915  1.8487 -1.8745
  113MOL    C5724921   3.132   1.293   2.676  0.7812  0.0227 -0.5793
  113MOL    C5824922   3.019   1.393   2.696 -0.4340 -0.0023 -0.2347
  113MOL    O5924923   2.917   1.391   2.636  0.3478  0.0046  0.2002
  113MOL    C6024924   3.039   1.488   2.807  0.0694 -0.7517 -0.5848
  113MOL    C6124925   3.171   1.273   2.525 -0.4951 -0.7598  0.0161
  113MOL    H6224926   3.220   1.335   2.724  0.1096 -0.3607  1.0168
  113MOL    H6324927   3.118   1.557   2.776 -2.5617  2.9426  0.4624
  113MOL    H6424928   2.943   1.537   2.826 -0.3086 -0.8300 -2.2155
  113MOL    H6524929   3.086   1.453   2.899 -1.9273  1.9837  1.5756
  113MOL    H6624930   3.085   1.221   2.483 -2.5695  0.3591  2.7228
  113MOL    H6724931   3.258   1.213   2.501  0.5904 -0.5924  3.3516
  113MOL    C6824932   3.180   1.405   2.445  0.9098 -0.4446  0.0773
  113MOL    C6924933   3.162   1.378   2.297 -0.8729 -0.1576  0.0158
  113MOL    O7024934   3.254   1.334   2.233 -0.3158  0.8613  0.1414
  113MOL    C7124935   3.025   1.388   2.238  0.0294  0.7366  0.2424
  113MOL    C7224936   3.309   1.480   2.486 -0.0829 -0.2535  0.7029
  113MOL    H7324937   3.094   1.462   2.480  2.2246  1.2645  0.5974
  113MOL    H7424938   2.950   1.383   2.318 -0.1379 -0.4525  0.0198
  113MOL    H7524939   3.024   1.485   2.188 -0.3334  0.7754  0.3243
  113MOL    H7624940   3.011   1.302   2.174 -0.8431  1.5778 -0.7244
  113MOL    H7724941   3.383   1.401   2.500 -2.7193 -2.7356  1.1733
  113MOL    H7824942   3.286   1.512   2.588 -0.6703 -0.2570  0.5723
  113MOL    C7924943   3.359   1.596   2.395  0.0520  0.3620 -0.9853
  113MOL    C8024944   3.482   1.660   2.459  0.0466  0.2910  0.6606
  113MOL    O8124945   3.491   1.667   2.582 -0.5891 -0.7573 -0.0329
  113MOL    C8224946   3.581   1.712   2.359 -0.1789  0.1720 -0.1759
  113MOL    C8324947   3.251   1.711   2.360  0.0869  0.6507  0.9574
  113MOL    H8424948   3.393   1.545   2.306  0.5081 -1.4995  0.2276
  113MOL    H8524949   3.632   1.632   2.306 -0.7068  0.6867 -1.4786
  113MOL    H8624950   3.527   1.765   2.280 -1.5952  0.7590  1.1668
  113MOL    H8724951   3.653   1.776   2.411 -0.1219 -1.0354  1.2750
  113MOL    H8824952   3.153   1.665   2.347  0.1446 -0.4417  4.1031
  113MOL    H8924953   3.273   1.757   2.264 -0.7695  3.0316  1.8683
  113MOL    C9024954   3.226   1.829   2.467 -0.6894 -0.0779 -0.1600
  113MOL    C9124955   3.170   1.783   2.598  0.7826  0.2834  0.5262
  113MOL    O9224956   3.061   1.724   2.601 -0.6159  0.1217  0.3121
  113MOL    C9324957   3.235   1.826   2.726  0.0475 -0.0124  0.1618
  113MOL    C9424958   3.134   1.941   2.414 -0.0417 -0.5195  0.0555
  113MOL    H9524959   3.323   1.876   2.483 -0.3075 -1.5841  2.2461
  113MOL    H9624960   3.291   1.919   2.724 -2.7065  1.8269  2.9343
  113MOL    H9724961   3.155   1.851   2.796 -0.1897 -1.8466  0.5849
  113MOL    H9824962   3.292   1.741   2.764  0.6903 -0.7907 -2.3908
  113MOL    H9924963   3.057   1.974   2.484 -0.6823 -2.9558  0.5301
  113MOL   H10024964   3.070   1.901   2.335 -0.4470  3.4742 -1.7643
  113MOL   C10124965   3.215   2.067   2.357  0.3223  0.6166 -0.0772
  113MOL   C10224966   3.311   2.136   2.452 -0.5973  0.1902  0.1828
  113MOL   O10324967   3.264   2.171   2.563  0.2007  0.5532  0.2857
  113MOL   C10424968   3.457   2.164   2.418  0.6163 -0.5929 -0.4775
  113MOL   C10524969   3.132   2.169   2.276 -0.0078  0.7027  0.1491
  113MOL   H10624970   3.277   2.019   2.281  0.3620  1.1261 -0.3641
  113MOL   H10724971   3.526   2.082   2.436 -0.8402 -1.7295 -0.0073
  113MOL   H10824972   3.464   2.212   2.320  1.1823  2.6307  1.0640
  113MOL   H10924973   3.477   2.241   2.493  3.5216  0.2351 -2.0227
  113MOL   H11024974   3.087   2.107   2.198  0.4636 -0.9095  1.1406
  113MOL   H11124975   3.202   2.224   2.213  0.0179  1.5274  0.8953
  113MOL   C11224976   3.030   2.260   2.351  0.4897  0.1289  0.1853
  113MOL   C11324977   2.886   2.221   2.358 -0.2721 -0.2202  0.2930
  113MOL   O11424978   2.838   2.171   2.458 -0.1936  0.1201  0.4341
  113MOL   C11524979   2.811   2.262   2.235  0.3481 -0.7642  0.0143
  113MOL   C11624980   3.053   2.409   2.319 -0.2660 -0.7208  0.3399
  113MOL   H11724981   3.055   2.236   2.454  2.3804  0.3761 -0.1953
  113MOL   H11824982   2.782   2.368   2.237  0.3053 -0.7569 -0.7315
  113MOL   H11924983   2.872   2.258   2.145 -1.8651  0.5729 -1.5998
  113MOL   H12024984   2.727   2.198   2.208 -0.6471  0.8528 -0.8582
  113MOL   H12124985   2.966   2.465   2.354 -0.4392 -1.9601  1.9651
  113MOL   H12224986   3.054   2.424   2.211 -1.3698 -0.5472  0.3481
  113MOL   C12324987   3.188   2.466   2.380  0.7872 -0.2429 -0.9473
  113MOL   C12424988   3.176   2.499   2.524  0.0746 -0.5228 -0.7099
  113MOL   O12524989   3.066   2.535   2.570  0.2311  0.1879  0.1661
  113MOL   C12624990   3.307   2.505   2.603  0.2568  0.5434  0.3352
  113MOL   C12724991   3.239   2.595   2.303 -0.0801  0.3067  0.3981
  113MOL   H12824992   3.266   2.390   2.377 -0.0096 -1.1445  0.8159
  113MOL   H12924993   3.340   2.608   2.617  0.3030  0.6358 -0.4365
  113MOL   H13024994   3.301   2.467   2.705  0.7739  1.7005  0.8060
  113MOL   H13124995   3.372   2.444   2.541  1.3749  0.8211  1.2090
  113MOL   H13224996   3.199   2.687   2.345 -0.6627 -0.3991  1.4317
  113MOL   H13324997   3.216   2.584   2.197 -0.4573 -0.8756  0.5886
  113MOL   C13424998   3.394   2.620   2.305 -0.1716 -0.2189 -0.8146
  113MOL   C13524999   3.403   2.764   2.251 -0.3631  0.0955 -0.1606
  113MOL   O13625000   3.328   2.805   2.165 -0.7604  0.0957  0.2157
  113MOL   C13725001   3.520   2.851   2.306 -0.7722 -0.5683 -0.0739
  113MOL   C13825002   3.488   2.524   2.224 -0.2545  0.3242  0.0440
  113MOL   H13925003   3.436   2.633   2.405  1.6028  1.4779 -1.7421
  113MOL   H14025004   3.482   2.943   2.350 -0.0506  0.1633 -0.9818
  113MOL   H14125005   3.578   2.801   2.384 -0.8892 -0.8927 -0.1911
  113MOL   H14225006   3.585   2.886   2.226 -1.7677  1.7161  0.0825
  113MOL   H14325007   3.477   2.432   2.281 -0.4418  0.0469 -0.4378
  113MOL   H14425008   3.596   2.542   2.230 -0.0345 -0.1513 -1.9504
  113MOL   C14525009   3.460   2.498   2.077  0.3623  0.4362 -0.8279
  113MOL   C14625010   3.356   2.394   2.057  0.0906  0.0995  0.4315
  113MOL   O14725011   3.384   2.279   2.091 -0.2763 -0.3229 -0.1368
  113MOL   C14825012   3.231   2.415   1.976 -0.4085 -1.5425 -0.0386
  113MOL   C14925013   3.580   2.460   1.984  0.0727 -0.0722  0.0743
  113MOL   H15025014   3.431   2.597   2.042 -1.2271  0.2632 -0.0353
  113MOL   H15125015   3.262   2.475   1.891 -2.4634 -0.5165 -0.1071
  113MOL   H15225016   3.189   2.319   1.944 -1.9796 -0.6175 -0.8361
  113MOL   H15325017   3.155   2.472   2.030 -0.7724 -1.0071 -1.1013
  113MOL   H15425018   3.542   2.426   1.888  0.2796 -0.7521  0.2368
  113MOL   H15525019   3.642   2.382   2.026  1.0552 -0.0047 -1.2123
  113MOL   C15625020   3.680   2.576   1.964 -0.2292  0.0865 -0.0688
  113MOL   C15725021   3.622   2.698   1.891  0.4009  0.0775 -0.0682
  113MOL   O15825022   3.520   2.693   1.822 -0.0728 -0.1624  0.8158
  113MOL   C15925023   3.687   2.825   1.933 -0.2165 -0.3360  0.2536
  113MOL   C16025024   3.816   2.535   1.894  0.5081  0.0739 -0.2190
  113MOL   H16125025   3.703   2.617   2.062  1.5767  2.5726 -1.4763
  113MOL   H16225026   3.792   2.814   1.907 -0.7884 -3.1910 -0.9550
  113MOL   H16325027   3.659   2.919   1.884  0.0818  0.5256  1.7030
  113MOL   H16425028   3.675   2.851   2.038  0.7504  1.6867 -0.0979
  113MOL   H16525029   3.883   2.524   1.980 -0.2552 -0.9512  0.2505
  113MOL   H16625030   3.858   2.616   1.835 -2.9803 -0.1985 -3.2715
  113MOL   C16725031   3.815   2.415   1.806  0.1799 -0.4221  0.5988
  113MOL   C16825032   3.946   2.332   1.814 -0.2517  0.0889 -0.2652
  113MOL   O16925033   4.047   2.365   1.761  0.9306 -0.5430 -0.7802
  113MOL   C17025034   3.940   2.203   1.894 -0.1158 -0.4498  0.1129
  113MOL   C17125035   3.755   2.443   1.666  0.1607  0.7190  0.4809
  113MOL   H17225036   3.738   2.346   1.839  0.5154 -0.1239  2.0166
  113MOL   H17325037   3.835   2.175   1.907 -0.2482  0.3841  0.9063
  113MOL   H17425038   3.987   2.123   1.838 -1.4140 -1.1003 -0.0548
  113MOL   H17525039   3.989   2.219   1.990  0.9362 -0.7524 -0.3661
  113MOL   H17625040   3.837   2.461   1.597  0.2814 -2.1571 -0.2002
  113MOL   H17725041   3.696   2.534   1.668  0.0160  0.6634 -0.7340
  113MOL   C17825042   3.662   2.338   1.595  0.4785  0.3107 -0.2529
  113MOL   C17925043   3.515   2.339   1.632 -0.2543 -0.2520  0.0556
  113MOL   O18025044   3.455   2.245   1.692 -0.8481 -0.0319 -0.2858
  113MOL   C18125045   3.427   2.460   1.597 -0.1406  0.5691 -0.3804
  113MOL   C18225046   3.709   2.196   1.580  0.4005 -0.4930  0.4313
  113MOL   H18325047   3.658   2.376   1.493  0.6364  1.5833  0.2148
  113MOL   H18425048   3.373   2.499   1.683 -0.4950  2.3518 -1.3821
  113MOL   H18525049   3.474   2.541   1.542 -0.7776  2.3244  1.5745
  113MOL   H18625050   3.354   2.424   1.525 -0.7900 -0.6681  0.8902
  113MOL   H18725051   3.637   2.128   1.534 -0.1592  0.5602 -0.2659
  113MOL   H18825052   3.729   2.147   1.676 -1.1841  0.2785  1.1615
  113MOL   C18925053   3.840   2.189   1.497 -0.7453 -1.0081  0.3024
  113MOL   C19025054   3.805   2.214   1.346 -0.4629  0.2417 -0.6381
  113MOL   O19125055   3.724   2.136   1.294  0.6200 -0.1071 -0.5569
  113MOL   C19225056   3.885   2.314   1.263  0.5925 -0.0819  0.0528
  113MOL   C19325057   3.933   2.068   1.527 -0.1879 -0.4830 -0.8131
  113MOL   H19425058   3.903   2.275   1.518 -2.6823  1.0542 -1.9174
  113MOL   H19525059   3.824   2.395   1.225  1.4895  0.2941 -0.6236
  113MOL   H19625060   3.968   2.362   1.315 -0.3842  1.0189  0.6223
  113MOL   H19725061   3.936   2.253   1.188  2.9204  0.0540  1.4640
  113MOL   H19825062   3.916   1.983   1.461 -1.1426  0.4685 -1.8107
  113MOL   H19925063   3.898   2.024   1.620  1.4202 -1.8461 -0.8196
  113MOL   C20025064   4.084   2.097   1.542  0.1422 -0.1860 -0.6528
  113MOL   C20125065   4.145   2.148   1.414 -0.5384  0.1216 -0.2153
  113MOL   O20225066   4.185   2.265   1.401  0.6537 -0.2764  0.7695
  113MOL   C20325067   4.154   2.059   1.294 -0.1756  0.3099 -0.5335
  113MOL   C20425068   4.151   1.967   1.604 -0.0540  0.1924  0.0629
  113MOL   H20525069   4.092   2.174   1.618 -2.0033  0.0689 -0.6587
  113MOL   H20625070   4.238   1.990   1.304 -0.8602 -0.7661 -1.9785
  113MOL   H20725071   4.061   2.007   1.276 -0.6567  1.2973 -0.9242
  113MOL   H20825072   4.169   2.120   1.205  0.6452 -0.4681 -0.9399
  113MOL   H20925073   4.148   1.885   1.532  1.8427  0.2697 -0.1436
  113MOL   H21025074   4.093   1.941   1.692  0.4607  1.1884  0.7024
  113MOL   C21125075   4.301   1.978   1.661  0.6817  0.1700  0.3315
  113MOL   C21225076   4.368   1.852   1.713  0.1853 -0.2172  0.1200
  113MOL   O21325077   4.299   1.759   1.745 -0.3174  0.4125 -0.1861
  113MOL   C21425078   4.509   1.857   1.759 -0.3715 -0.0288  0.3563
  113MOL   C21525079   4.327   2.102   1.749 -0.3036 -0.0280  0.8084
  113MOL   H21625080   4.356   2.003   1.570 -0.6129  0.1098 -0.4753
  113MOL   H21725081   4.566   1.772   1.723 -0.1576  0.3324 -0.1685
  113MOL   H21825082   4.555   1.946   1.715 -0.4976 -0.5927 -0.9202
  113MOL   H21925083   4.499   1.864   1.867 -0.5754 -2.2424  0.4881
  113MOL   H22025084   4.244   2.131   1.813  0.9929  0.0488  2.4866
  113MOL   H22125085   4.338   2.189   1.685 -0.6505  0.5580  1.5408
  113MOL   H22225086   4.417   2.099   1.810  1.2023 -0.9782 -1.3890
  114MOL     C125087   6.286   5.708   1.221 -0.6864 -0.4836  0.6158
  114MOL     C225088   6.427   5.663   1.193  0.2376  0.5429  0.3731
  114MOL     O325089   6.518   5.736   1.161 -0.0692 -0.2920 -0.3511
  114MOL     C425090   6.444   5.514   1.213 -0.1218  0.0500 -0.3466
  114MOL     C525091   6.262   5.859   1.186 -0.2712 -0.4472 -0.1705
  114MOL     H625092   6.205   5.648   1.181 -1.2120  0.0314  0.8899
  114MOL     H725093   6.369   5.472   1.281 -0.1988 -0.1741 -0.5667
  114MOL     H825094   6.436   5.449   1.125  0.0644 -1.1155  0.4883
  114MOL     H925095   6.541   5.506   1.260 -0.2864 -1.2220 -0.1892
  114MOL    H1025096   6.327   5.920   1.248 -1.1355  2.1753 -1.7640
  114MOL    H1125097   6.164   5.883   1.225 -0.0467  2.5281 -1.3535
  114MOL    H1225098   6.263   5.686   1.325  0.6796 -1.6671  0.6890
  114MOL    C1325099   6.274   5.904   1.035 -0.3512  0.1476 -0.6822
  114MOL    C1425100   6.295   6.058   1.027 -0.3472 -0.4970 -0.6368
  114MOL    O1525101   6.268   6.131   1.129 -0.3948  0.2029  0.2066
  114MOL    C1625102   6.375   6.122   0.915  0.6824 -0.2483 -0.3250
  114MOL    C1725103   6.139   5.875   0.955 -0.2312  1.0807  0.6283
  114MOL    H1825104   6.366   5.865   0.990  0.2241 -0.7274  1.1928
  114MOL    H1925105   6.315   6.189   0.853  2.6068  1.4007 -0.4437
  114MOL    H2025106   6.467   6.166   0.954  0.3363 -0.8890  1.2597
  114MOL    H2125107   6.417   6.040   0.857  1.6977 -0.5580  0.8214
  114MOL    H2225108   6.123   5.947   0.874 -0.5995  0.1314 -0.1670
  114MOL    H2325109   6.052   5.888   1.019  0.9661 -0.8824  2.7024
  114MOL    C2425110   6.146   5.728   0.895 -0.2256 -0.3301 -0.0256
  114MOL    C2525111   6.235   5.712   0.771 -0.3907  0.8091 -0.0226
  114MOL    O2625112   6.294   5.811   0.727  0.1969  0.4278 -0.0510
  114MOL    C2725113   6.256   5.580   0.705 -0.1422  0.5484 -0.2150
  114MOL    C2825114   6.008   5.655   0.882  0.0845 -0.0081 -0.1545
  114MOL    H2925115   6.193   5.665   0.971  0.2775  1.2668  1.0146
  114MOL    H3025116   6.181   5.562   0.627 -0.0782  1.7360 -0.5534
  114MOL    H3125117   6.352   5.590   0.654 -0.4123  2.4103 -0.3813
  114MOL    H3225118   6.262   5.510   0.789  2.6906  1.5176  0.4304
  114MOL    H3325119   5.976   5.652   0.987  0.1120  1.3834 -0.1014
  114MOL    H3425120   6.019   5.552   0.846 -0.6042 -0.7454  1.6554
  114MOL    C3525121   5.889   5.738   0.815  0.1578  0.6828 -0.1930
  114MOL    C3625122   5.757   5.714   0.892  0.7866  0.0768  0.7078
  114MOL    O3725123   5.683   5.627   0.849  0.2069 -0.0177  0.0943
  114MOL    C3825124   5.729   5.798   1.012 -0.4575  0.4356  0.1004
  114MOL    C3925125   5.876   5.699   0.667  0.0613  0.4512 -0.0877
  114MOL    H4025126   5.905   5.845   0.819 -1.1774  0.9043 -0.5789
  114MOL    H4125127   5.707   5.900   0.981  1.6771  1.8698  3.1024
  114MOL    H4225128   5.652   5.751   1.074  0.0243 -2.0037 -1.1001
  114MOL    H4325129   5.818   5.801   1.074 -1.1613 -0.3910  1.1854
  114MOL    H4425130   5.797   5.628   0.642  0.0520 -0.7780  3.2458
  114MOL    H4525131   5.964   5.650   0.624 -0.8094 -0.9337 -0.3313
  114MOL    C4625132   5.855   5.821   0.575 -0.2882 -0.1980  0.2458
  114MOL    C4725133   5.993   5.893   0.565  0.4003  0.0684 -0.3976
  114MOL    O4825134   6.009   5.998   0.626 -0.6334 -0.1829  0.2499
  114MOL    C4925135   6.088   5.844   0.457 -0.1504 -0.2022  0.5495
  114MOL    C5025136   5.735   5.909   0.617 -0.2137  0.3302 -0.2527
  114MOL    H5125137   5.830   5.781   0.476  1.7573 -0.1733 -0.3156
  114MOL    H5225138   6.119   5.923   0.389  0.6584  0.0801  1.2380
  114MOL    H5325139   6.169   5.786   0.501  0.8786  1.0877  0.3776
  114MOL    H5425140   6.029   5.765   0.411  0.0083  0.3445 -0.6119
  114MOL    H5525141   5.770   5.973   0.698 -1.1097  1.8849 -1.0581
  114MOL    H5625142   5.649   5.845   0.639 -1.9563  2.7665  0.1953
  114MOL    C5725143   5.680   6.012   0.514 -0.1108  0.3968  0.2907
  114MOL    C5825144   5.663   6.152   0.576 -0.7039  0.4001 -0.3853
  114MOL    O5925145   5.556   6.203   0.612  0.2155  0.0661 -0.1167
  114MOL    C6025146   5.793   6.228   0.597 -0.3591  0.4634  0.0610
  114MOL    C6125147   5.550   5.961   0.454 -0.1697 -0.2620 -0.3141
  114MOL    H6225148   5.750   6.014   0.430  1.5604  0.5528  1.6708
  114MOL    H6325149   5.786   6.325   0.548  1.4426  1.7606  2.3058
  114MOL    H6425150   5.820   6.255   0.699 -0.1471 -0.1056  0.1578
  114MOL    H6525151   5.876   6.173   0.552 -1.7881 -2.4152  0.8015
  114MOL    H6625152   5.476   5.953   0.534 -0.1377 -0.4321 -0.3011
  114MOL    H6725153   5.546   5.861   0.411 -3.0249 -0.5724  0.5636
  114MOL    C6825154   5.488   6.059   0.347 -0.2178  0.2824 -0.2607
  114MOL    C6925155   5.335   6.043   0.328 -0.4331 -0.3120  0.5334
  114MOL    O7025156   5.292   5.955   0.249  0.3751 -0.3838 -0.3426
  114MOL    C7125157   5.236   6.121   0.412  0.1368 -0.2868 -0.6869
  114MOL    C7225158   5.564   6.047   0.209 -0.3169 -0.5654  0.6124
  114MOL    H7325159   5.483   6.161   0.383 -4.4704  0.2059 -0.3638
  114MOL    H7425160   5.283   6.156   0.504 -0.4897  0.2701 -0.5665
  114MOL    H7525161   5.186   6.201   0.357 -0.0731 -1.0191 -1.5602
  114MOL    H7625162   5.155   6.053   0.437  0.0505  0.6009  1.6341
  114MOL    H7725163   5.555   5.942   0.184 -0.0340 -0.3465 -0.4463
  114MOL    H7825164   5.672   6.059   0.205 -0.4770  0.7340 -0.0154
  114MOL    C7925165   5.522   6.141   0.093 -0.2295 -1.0874  0.1047
  114MOL    C8025166   5.550   6.058   7.816  0.1317 -0.6059 -0.3940
  114MOL    O8125167   5.652   6.067   7.749  0.3235 -0.0543 -0.3976
  114MOL    C8225168   5.448   5.949   7.786 -0.8363 -0.2889  0.1043
  114MOL    C8325169   5.590   6.283   0.091 -0.4168  0.1937  0.0096
  114MOL    H8425170   5.415   6.162   0.098 -0.6445 -3.0382 -0.1520
  114MOL    H8525171   5.416   5.948   7.682 -1.5777 -2.0397  0.3198
  114MOL    H8625172   5.509   5.859   7.795 -0.2717  0.0818  0.0033
  114MOL    H8725173   5.361   5.947   0.010 -1.3248  0.5218 -0.5049
  114MOL    H8825174   5.697   6.264   0.086 -0.0146  1.8210  1.8647
  114MOL    H8925175   5.561   6.320   0.189 -2.7502 -0.9987 -0.1861
  114MOL    C9025176   5.549   6.389   7.821  0.2228 -0.3261  0.6805
  114MOL    C9125177   5.667   6.476   7.772  1.0002 -0.2512 -0.1701
  114MOL    O9225178   5.700   6.574   7.838  0.3434 -0.0274 -0.1934
  114MOL    C9325179   5.753   6.432   7.655 -0.2019 -0.4957  0.1842
  114MOL    C9425180   5.421   6.476   7.842  0.4316  0.1901 -0.1471
  114MOL    H9525181   5.540   6.326   7.733  0.7729  1.4506 -0.6897
  114MOL    H9625182   5.847   6.487   7.649 -0.4766 -0.1774 -1.4803
  114MOL    H9725183   5.772   6.325   7.656 -0.2180 -0.5136  3.6955
  114MOL    H9825184   5.705   6.434   7.557 -1.4165 -1.4112  0.7565
  114MOL    H9925185   5.441   6.538   0.087  0.9228  1.1827 -0.9620
  114MOL   H10025186   5.332   6.421   0.031  1.4870 -1.0176  0.8025
  114MOL   C10125187   5.392   6.569   7.720 -0.0002 -0.5042 -0.4737
  114MOL   C10225188   5.278   6.666   7.767 -0.1814  0.3959  0.2465
  114MOL   O10325189   5.198   6.639   0.014 -0.4170  0.4340 -0.1566
  114MOL   C10425190   5.262   6.793   7.690  0.5021  0.4750 -0.3454
  114MOL   C10525191   5.353   6.501   7.587  0.0639 -0.3327 -0.6168
  114MOL   H10625192   5.479   6.630   7.694  0.7100 -1.0054  0.6817
  114MOL   H10725193   5.164   6.793   7.644  0.6609  1.0975 -0.7007
  114MOL   H10825194   5.264   6.876   7.761  0.4526 -1.4917  1.9746
  114MOL   H10925195   5.342   6.794   7.615  1.2224 -0.6822  0.3947
  114MOL   H11025196   5.428   6.425   7.565 -0.6334 -0.1865 -3.7014
  114MOL   H11125197   5.363   6.568   7.501 -0.5448 -0.3225 -0.6792
  114MOL   C11225198   5.218   6.425   7.584 -0.1238  0.1509 -0.2041
  114MOL   C11325199   5.228   6.292   7.656  0.4404  0.8153 -0.5055
  114MOL   O11425200   5.293   6.201   7.614  0.0920  0.1037  0.0985
  114MOL   C11525201   5.135   6.262   7.774 -0.0816 -0.5610  0.5370
  114MOL   C11625202   5.163   6.412   7.444 -0.0300 -0.2757 -0.0896
  114MOL   H11725203   5.160   6.483   7.655 -3.0861 -1.4310 -1.2266
  114MOL   H11825204   5.183   6.205   0.012  1.3054 -2.0642 -1.3356
  114MOL   H11925205   5.116   6.351   7.834  1.2052  1.5335 -2.0988
  114MOL   H12025206   5.037   6.219   7.751 -0.6211  0.9279 -0.0264
  114MOL   H12125207   5.124   6.310   7.437  0.5121 -0.4697 -0.3033
  114MOL   H12225208   5.250   6.415   7.379 -1.3641 -1.1539 -1.9394
  114MOL   C12325209   5.054   6.522   7.403  0.4689 -0.0721 -0.4157
  114MOL   C12425210   4.944   6.525   7.513  0.0354  0.7642 -0.3348
  114MOL   O12525211   4.866   6.428   7.522  0.0581  0.1274  0.2293
  114MOL   C12625212   4.920   6.648   7.593 -0.5975  0.2954  0.7773
  114MOL   C12725213   4.999   6.496   7.260  0.6395 -0.0444 -0.3262
  114MOL   H12825214   5.097   6.622   7.409  0.9937 -0.1332 -2.7424
  114MOL   H12925215   4.964   6.629   7.691 -2.1662 -0.1494  1.4174
  114MOL   H13025216   4.986   6.716   7.540  0.7862 -0.0825  1.9923
  114MOL   H13125217   4.817   6.685   7.597 -0.9271 -0.6064  0.8915
  114MOL   H13225218   4.967   6.392   7.245  0.6503  0.1735 -1.9304
  114MOL   H13325219   5.093   6.485   7.206  1.6170 -3.3789  1.8882
  114MOL   C13425220   4.901   6.602   7.207 -0.0265 -0.4163 -0.5933
  114MOL   C13525221   4.815   6.546   7.091  0.4092 -0.2728  0.2003
  114MOL   O13625222   4.856   6.533   6.979  0.6401  0.0100 -0.1561
  114MOL   C13725223   4.670   6.529   7.136  0.2388  0.6005 -0.3693
  114MOL   C13825224   4.980   6.730   7.149  0.1407  0.0906 -0.5608
  114MOL   H13925225   4.842   6.642   7.289 -0.5726 -0.3274 -1.0281
  114MOL   H14025226   4.604   6.499   7.054  0.2752 -1.7011  0.4365
  114MOL   H14125227   4.662   6.451   7.210 -2.8279  2.5640  1.4927
  114MOL   H14225228   4.633   6.621   7.181 -0.1303  0.1045  0.3412
  114MOL   H14325229   5.035   6.701   7.060  2.9020  0.4338  0.9544
  114MOL   H14425230   5.062   6.749   7.218 -0.7008 -1.2539  0.8552
  114MOL   C14525231   4.913   6.869   7.129  0.6324  0.1733  0.4073
  114MOL   C14625232   4.852   6.912   7.263 -0.0636  0.1989 -0.3367
  114MOL   O14725233   4.733   6.926   7.285  0.1733  0.5937  0.5984
  114MOL   C14825234   4.945   6.953   7.375 -0.2935 -0.0168 -0.3932
  114MOL   C14925235   4.801   6.863   7.011  0.1709  0.6176  0.6032
  114MOL   H15025236   4.989   6.942   7.101 -0.1016  0.9465  0.4040
  114MOL   H15125237   4.983   7.055   7.365  1.1175 -0.2642  2.0351
  114MOL   H15225238   4.882   6.937   7.461  0.2273  0.9835  0.1902
  114MOL   H15325239   5.030   6.885   7.370 -1.2975 -1.4265  1.3019
  114MOL   H15425240   4.713   6.802   7.036  0.5989  0.1065  0.8624
  114MOL   H15525241   4.847   6.813   6.926 -1.8069  0.1921 -0.2685
  114MOL   C15625242   4.745   6.996   6.962  0.0500  0.2256 -0.1665
  114MOL   C15725243   4.608   6.965   6.896 -0.1359  0.6362  0.5855
  114MOL   O15825244   4.587   6.866   6.820  0.3107  0.2059  0.8315
  114MOL   C15925245   4.498   7.064   6.919 -0.4815  0.0277 -0.7070
  114MOL   C16025246   4.838   7.080   6.866 -0.3801  0.1382 -0.7769
  114MOL   H16125247   4.724   7.059   7.048 -0.5267  0.6858 -0.6398
  114MOL   H16225248   4.439   7.078   6.828 -1.7837 -0.5849  0.0330
  114MOL   H16325249   4.434   7.025   6.998 -0.9372  0.1532 -1.0110
  114MOL   H16425250   4.538   7.158   6.958 -2.0403  1.5586 -2.6888
  114MOL   H16525251   4.838   7.023   6.772  0.0396 -0.5327 -0.3756
  114MOL   H16625252   4.943   7.070   6.894 -0.5615  2.2308  0.6979
  114MOL   C16725253   4.801   7.228   6.842  0.0179  0.3674 -0.2287
  114MOL   C16825254   4.807   7.253   6.685 -0.3295 -0.3916  0.1212
  114MOL   O16925255   4.906   7.303   6.626 -0.3981  0.3158 -0.0679
  114MOL   C17025256   4.682   7.203   6.609 -0.4395  0.6148  0.9209
  114MOL   C17125257   4.895   7.321   6.928  0.4542 -0.2082 -0.3608
  114MOL   H17225258   4.701   7.254   6.876  0.0596 -0.1576  0.2997
  114MOL   H17325259   4.676   7.094   6.620  0.7619  0.0842 -2.8763
  114MOL   H17425260   4.592   7.246   6.652 -1.6741  1.1220 -2.0260
  114MOL   H17525261   4.669   7.229   6.504 -0.8538 -1.1860  0.5062
  114MOL   H17625262   4.992   7.318   6.877 -0.5804  1.4708 -2.5461
  114MOL   H17725263   4.928   7.279   7.023  2.0902  4.2104  1.1784
  114MOL   C17825264   4.861   7.472   6.933  0.8026 -0.0959 -0.1517
  114MOL   C17925265   4.988   7.549   6.989  0.3221 -0.3954 -0.3040
  114MOL   O18025266   5.079   7.490   7.048  0.3616 -0.3819  0.3435
  114MOL   C18125267   4.988   7.702   6.978 -0.7554 -0.7046 -0.9508
  114MOL   C18225268   4.726   7.507   7.007  0.0206 -0.6790  0.1371
  114MOL   H18325269   4.845   7.511   6.832  1.8467  0.3505 -0.1523
  114MOL   H18425270   4.887   7.744   6.980 -0.0025  1.1057  0.1751
  114MOL   H18525271   5.065   7.745   7.042 -0.8216 -0.6435 -0.9124
  114MOL   H18625272   5.026   7.713   6.877 -2.3926 -0.5923 -1.5768
  114MOL   H18725273   4.647   7.441   6.972 -1.2088  2.4917 -3.4431
  114MOL   H18825274   4.687   7.607   6.987  0.9361 -0.0862  1.2589
  114MOL   C18925275   4.740   7.486   7.162  0.0900  0.3608  0.1726
  114MOL   C19025276   4.730   7.339   7.203 -0.0564 -0.0099 -0.2495
  114MOL   O19125277   4.633   7.266   7.164 -0.7044 -0.4219  0.9263
  114MOL   C19225278   4.817   7.290   7.315 -0.4470 -0.5421 -0.0096
  114MOL   C19325279   4.655   7.582   7.250 -0.8987  0.0020  0.2678
  114MOL   H19425280   4.845   7.506   7.179 -0.0970 -0.0043  1.8216
  114MOL   H19525281   4.771   7.196   7.345  1.0997 -1.8884 -1.7372
  114MOL   H19625282   4.918   7.275   7.278 -0.4670 -1.7843  0.4403
  114MOL   H19725283   4.814   7.357   7.401 -2.9991 -0.4826 -0.1062
  114MOL   H19825284   4.678   7.553   7.353 -0.5646 -2.4355 -0.4574
  114MOL   H19925285   4.551   7.573   7.219 -0.3778 -1.2640 -1.1734
  114MOL   C20025286   4.681   7.737   7.239 -0.0341 -0.1919  0.5907
  114MOL   C20125287   4.830   7.775   7.253  0.3884  0.5276 -0.4605
  114MOL   O20225288   4.912   7.700   7.302  0.2650 -0.7062  0.2127
  114MOL   C20325289   4.869   0.070   7.204  0.3285 -0.3875  0.2281
  114MOL   C20425290   4.597   7.809   7.346 -0.1662 -0.7063 -0.1829
  114MOL   H20525291   4.654   7.763   7.137 -1.3063  4.3721  1.9732
  114MOL   H20625292   4.900   0.129   7.290  1.3514  1.4994 -1.3865
  114MOL   H20725293   4.946   0.082   7.128 -2.5538 -0.3111 -2.7743
  114MOL   H20825294   4.778   0.120   7.171  0.5533 -0.6584 -0.8185
  114MOL   H20925295   4.657   0.052   7.376 -5.1943  3.2595 -0.6244
  114MOL   H21025296   4.599   7.758   7.442 -0.1551 -0.4154 -0.0275
  114MOL   C21125297   4.451   0.008   7.317 -0.1066 -0.2024  0.2634
  114MOL   C21225298   4.440   0.102   7.194 -0.1358 -0.0029  0.1369
  114MOL   O21325299   4.474   0.223   7.206  0.6562 -0.1733  0.4856
  114MOL   C21425300   4.388   0.043   7.070  0.1644  0.4065 -0.4149
  114MOL   C21525301   4.395   0.083   7.437  0.6294 -0.0960  0.3879
  114MOL   H21625302   4.391   7.762   7.296 -1.3905  0.7730 -0.2226
  114MOL   H21725303   4.421   0.095   6.980 -0.4390 -0.2005 -0.9932
  114MOL   H21825304   4.430   7.785   7.063  2.1748  1.0760  1.4963
  114MOL   H21925305   4.280   0.037   7.078  0.1835  0.8888  0.2514
  114MOL   H22025306   4.290   0.111   7.433  0.0668 -2.2822 -1.0642
  114MOL   H22125307   4.451   0.172   7.465  1.8666 -1.1190  1.2299
  114MOL   H22225308   4.400   0.018   7.524  1.5935 -0.4305  0.0953
  115MOL     C125309   6.013   5.260   1.767 -0.3124 -0.0906 -0.5158
  115MOL     C225310   6.024   5.215   1.911  0.1216 -0.2365  0.4615
  115MOL     O325311   6.040   5.291   2.013  0.0564 -0.5442  0.4336
  115MOL     C425312   6.003   5.070   1.935 -0.1830 -0.5789  0.0270
  115MOL     C525313   6.084   5.394   1.729 -0.2852 -0.1967 -0.2994
  115MOL     H625314   6.069   5.185   1.710 -1.0509 -0.6166 -0.5599
  115MOL     H725315   5.981   5.058   2.041 -2.9062  1.3750 -0.2578
  115MOL     H825316   5.913   5.036   1.884  0.1672 -0.2404 -0.8298
  115MOL     H925317   6.086   5.005   1.909 -0.1827 -0.8958  0.7916
  115MOL    H1025318   6.101   5.400   1.621 -0.8177  2.1071 -0.2832
  115MOL    H1125319   6.184   5.402   1.771 -1.3026  0.1216  2.1166
  115MOL    H1225320   5.907   5.250   1.744 -0.5874 -0.8045  1.0229
  115MOL    C1325321   6.014   5.532   1.769 -0.4051 -0.2666 -0.0210
  115MOL    C1425322   5.866   5.536   1.742 -0.2656  0.2218  0.6552
  115MOL    O1525323   5.787   5.492   1.825  1.0598 -0.4685 -0.1071
  115MOL    C1625324   5.818   5.579   1.600  0.1528 -0.4166  1.1141
  115MOL    C1725325   6.086   5.650   1.707 -0.1202  0.5307 -0.1731
  115MOL    H1825326   6.024   5.531   1.877  1.5619 -1.7384 -0.1891
  115MOL    H1925327   5.832   5.687   1.594  0.5067 -0.3609  2.5973
  115MOL    H2025328   5.867   5.531   1.515 -0.9588  0.9162 -0.2808
  115MOL    H2125329   5.713   5.552   1.599 -0.5200  2.0879 -1.4296
  115MOL    H2225330   6.022   5.737   1.721 -0.7909 -0.0805  0.6160
  115MOL    H2325331   6.100   5.636   1.600  1.1439 -0.3093  0.0897
  115MOL    C2425332   6.224   5.679   1.764 -0.1822 -0.3391 -0.5020
  115MOL    C2525333   6.224   5.746   1.905 -0.3168  1.0768  0.5876
  115MOL    O2625334   6.246   5.865   1.927  0.1349 -0.0193  0.3167
  115MOL    C2725335   6.228   5.647   2.028 -0.1018 -0.7410  0.0603
  115MOL    C2825336   6.301   5.767   1.665 -0.4336 -0.2596  0.0103
  115MOL    H2925337   6.279   5.585   1.768  1.8403  0.8791  1.4851
  115MOL    H3025338   6.263   5.697   2.118 -2.3098  0.5651  0.2338
  115MOL    H3125339   6.128   5.612   2.054 -1.2028  0.9570 -1.7448
  115MOL    H3225340   6.294   5.564   2.003  2.3769  1.1508  0.1133
  115MOL    H3325341   6.240   5.857   1.658  1.1001  0.8514  0.7014
  115MOL    H3425342   6.299   5.727   1.563 -0.7030 -0.5209  0.1196
  115MOL    C3525343   6.455   5.785   1.696  0.0455 -0.3300  0.0228
  115MOL    C3625344   6.505   5.894   1.604 -0.0783  0.4162  0.2081
  115MOL    O3725345   6.568   5.861   1.502  0.0044  0.0203  0.0825
  115MOL    C3825346   6.480   6.033   1.635 -0.5417  0.1743 -0.5007
  115MOL    C3925347   6.545   5.660   1.703 -0.0886  0.4749  0.2106
  115MOL    H4025348   6.463   5.827   1.796  0.8601  1.1040 -0.6308
  115MOL    H4125349   6.555   6.086   1.694 -0.9159 -0.4120  0.5128
  115MOL    H4225350   6.461   6.092   1.545 -0.5133  1.6538  0.4414
  115MOL    H4325351   6.395   6.042   1.702 -0.2321  1.1971 -0.2271
  115MOL    H4425352   6.528   5.609   1.608  0.1629  2.6225 -1.0391
  115MOL    H4525353   6.510   5.595   1.783 -2.0099  2.7793  1.3145
  115MOL    C4625354   6.696   5.693   1.730  0.0605 -0.2422 -0.7319
  115MOL    C4725355   6.786   5.590   1.655  0.0373 -0.0664 -0.2065
  115MOL    O4825356   6.816   5.492   1.710 -0.0936  0.0700 -0.0301
  115MOL    C4925357   6.820   5.606   1.512  0.4515 -0.2241  0.1788
  115MOL    C5025358   6.734   5.712   1.884  0.7691  0.3658 -0.7437
  115MOL    H5125359   6.725   5.782   1.675  2.3429 -1.1353 -1.0211
  115MOL    H5225360   6.755   5.679   1.463 -1.1436 -0.3780  1.9893
  115MOL    H5325361   6.923   5.640   1.507  0.4469 -0.5355 -2.5906
  115MOL    H5425362   6.820   5.508   1.464 -0.8644 -0.5392  0.8157
  115MOL    H5525363   6.709   5.614   1.927  2.1853  0.9935  1.6430
  115MOL    H5625364   6.675   5.789   1.933  0.9272  0.1260 -0.1648
  115MOL    C5725365   6.883   5.722   1.916  0.2706  0.2152 -0.4743
  115MOL    C5825366   6.894   5.724   2.066 -0.5804  0.1817 -0.0857
  115MOL    O5925367   6.906   5.827   2.134  0.2298  0.0353  0.0056
  115MOL    C6025368   6.882   5.591   2.139 -0.3626 -0.4449 -0.4267
  115MOL    C6125369   6.943   5.851   1.845 -0.4342  0.8056  0.6041
  115MOL    H6225370   6.939   5.637   1.879  2.4962  2.2357 -1.9166
  115MOL    H6325371   6.979   5.572   2.184 -1.0770 -2.6090  0.2347
  115MOL    H6425372   6.800   5.587   2.211 -0.4648 -0.1362 -0.5233
  115MOL    H6525373   6.861   5.502   2.080 -0.5141 -1.0005  0.4593
  115MOL    H6625374   6.893   5.936   1.892  0.4247  0.5486  2.0078
  115MOL    H6725375   6.912   5.847   1.740  0.2481  1.3661  0.3788
  115MOL    C6825376   7.099   5.845   1.841  0.5182  0.1259 -0.0040
  115MOL    C6925377   7.149   5.986   1.813 -0.2141 -0.7741 -0.4005
  115MOL    O7025378   7.157   6.030   1.701 -0.0159 -0.2227  0.0460
  115MOL    C7125379   7.173   6.084   1.931  0.7712 -0.3508 -0.2652
  115MOL    C7225380   7.154   5.728   1.751 -0.0860  0.8039  0.0678
  115MOL    H7325381   7.139   5.816   1.938  2.0650  1.8069 -0.1246
  115MOL    H7425382   7.119   6.175   1.906  0.4741 -0.3392  0.3996
  115MOL    H7525383   7.133   6.051   2.027  1.4294  1.3022  0.6001
  115MOL    H7625384   7.277   6.114   1.948  0.4199 -0.2467  1.9297
  115MOL    H7725385   7.152   5.760   1.647  2.5014 -0.0514 -0.2715
  115MOL    H7825386   7.078   5.651   1.739  1.6581 -0.9872  0.4170
  115MOL    C7925387   7.285   5.656   1.785  0.4955  0.1521  0.4625
  115MOL    C8025388   7.281   5.580   1.919 -0.3012  0.2266 -0.9125
  115MOL    O8125389   7.304   5.642   2.025  0.5117  0.0055 -0.7453
  115MOL    C8225390   7.240   5.431   1.922  0.6049  0.9071 -0.1437
  115MOL    C8325391   7.412   5.748   1.783 -0.0251  0.1318  0.4379
  115MOL    H8425392   7.300   5.577   1.712  1.4387  1.9445 -1.3268
  115MOL    H8525393   7.137   5.427   1.958  0.9196 -0.5578  0.6526
  115MOL    H8625394   7.240   5.401   1.818 -0.9125 -0.1605  0.1442
  115MOL    H8725395   7.298   5.369   1.990  0.4377 -2.2302 -2.7549
  115MOL    H8825396   7.489   5.688   1.832  0.4817  0.7208  0.3676
  115MOL    H8925397   7.404   5.830   1.855 -0.6803  0.5288 -0.0848
  115MOL    C9025398   7.460   5.783   1.642  0.2952 -0.0316 -0.2456
  115MOL    C9125399   7.495   5.664   1.554 -0.1161 -0.0944 -0.1458
  115MOL    O9225400   7.520   5.553   1.602 -0.2415  0.7135  0.6946
  115MOL    C9325401   7.475   5.681   1.407  0.3757  0.7150 -0.4752
  115MOL    C9425402   7.583   5.875   1.667 -0.1494  0.3037 -0.2425
  115MOL    H9525403   7.382   5.836   1.588 -0.4860 -1.4681 -0.5748
  115MOL    H9625404   7.385   5.734   1.376 -0.2629 -0.3563 -0.4874
  115MOL    H9725405   7.557   5.737   1.363  0.6174 -0.3074 -1.3300
  115MOL    H9825406   7.474   5.579   1.369  2.8685 -0.8005  3.1848
  115MOL    H9925407   7.641   5.874   1.575 -0.8817  1.6598 -0.7222
  115MOL   H10025408   7.650   5.841   1.747  1.7248  1.2107 -1.3971
  115MOL   C10125409   7.543   6.024   1.692 -0.1995  0.1268  0.0207
  115MOL   C10225410   7.489   6.097   1.570 -0.1088 -0.5324  0.3435
  115MOL   O10325411   7.494   6.046   1.457 -0.4106  0.4625 -0.8441
  115MOL   C10425412   7.418   6.228   1.591 -0.0919  0.5471  0.3241
  115MOL   C10525413   7.664   6.111   1.757 -0.2556 -0.3344 -0.3219
  115MOL   H10625414   7.454   6.028   1.754 -0.1287  0.8836  0.0762
  115MOL   H10725415   7.333   6.208   1.657  0.2830  2.6854  1.5085
  115MOL   H10825416   7.477   6.311   1.630  0.5539  0.0753  0.3619
  115MOL   H10925417   7.374   6.259   1.496 -0.2546 -0.5139  0.0446
  115MOL   H11025418   7.625   6.209   1.785  2.0848  0.5569 -0.1539
  115MOL   H11125419   7.739   6.137   1.683 -0.2191  0.2707 -0.0767
  115MOL   C11225420   7.718   6.048   1.892  0.8136 -0.6760  1.3662
  115MOL   C11325421   7.607   6.030   1.990 -1.4495 -1.0315  0.5861
  115MOL   O11425422   7.521   6.118   2.001 -0.3187  0.1034 -0.4375
  115MOL   C11525423   7.603   5.913   2.082 -0.1515 -0.1881 -0.4398
  115MOL   C11625424   7.832   6.146   1.941 -0.2404 -0.5477  0.2863
  115MOL   H11725425   7.756   5.951   1.861 -0.6433 -0.5405 -0.9764
  115MOL   H11825426   7.556   5.945   2.175  0.4660  1.3502 -0.6349
  115MOL   H11925427   7.552   5.823   2.047  1.2182 -0.8931 -0.6525
  115MOL   H12025428   7.702   5.873   2.103  0.9056  1.8934 -1.3055
  115MOL   H12125429   7.794   6.246   1.963 -1.0504 -0.6243 -0.7241
  115MOL   H12225430   0.065   6.161   1.863  0.3521 -1.9509  0.5880
  115MOL   C12325431   0.060   6.111   2.079  0.7561 -0.0540 -0.5826
  115MOL   C12425432   0.142   6.228   2.143 -0.5444 -0.6475  0.9147
  115MOL   O12525433   0.130   6.266   2.258  0.0965  0.2430 -0.1953
  115MOL   C12625434   0.248   6.303   2.056 -0.7847  0.0006  0.1531
  115MOL   C12725435   0.156   5.983   2.073 -0.0358 -0.2080  0.0766
  115MOL   H12825436   7.825   6.094   2.154  2.7696 -2.0841  1.0802
  115MOL   H12925437   0.273   6.256   1.960  1.7161 -0.7686  1.1315
  115MOL   H13025438   0.209   6.404   2.047  1.0250  0.6383 -0.6188
  115MOL   H13125439   0.341   6.306   2.112 -0.0939 -3.8258 -0.6498
  115MOL   H13225440   0.255   5.996   2.028  0.8261 -2.1752  1.3039
  115MOL   H13325441   0.096   5.915   2.012 -0.7010  0.4790 -0.0393
  115MOL   C13425442   0.192   5.922   2.216  0.0875 -0.2617 -0.1012
  115MOL   C13525443   0.316   5.830   2.196  0.0064  0.8600  0.2358
  115MOL   O13625444   0.303   5.717   2.156  0.2523 -0.0027 -0.0128
  115MOL   C13725445   0.457   5.889   2.220  0.3856 -0.0800  0.4900
  115MOL   C13825446   0.071   5.849   2.276  0.2337  0.7396  0.4286
  115MOL   H13925447   0.204   6.008   2.281 -0.0842 -0.9670  0.8684
  115MOL   H14025448   0.446   5.988   2.263  1.0518  0.6346 -0.9321
  115MOL   H14125449   0.525   5.819   2.269 -0.4834 -0.6609  0.8644
  115MOL   H14225450   0.489   5.902   2.116  1.0175  1.0452  0.8200
  115MOL   H14325451   0.058   5.765   2.208 -1.2216  0.1231  1.4265
  115MOL   H14425452   7.822   5.910   2.274  0.1405  0.5693 -1.1350
  115MOL   C14525453   0.089   5.815   2.424 -0.1187 -0.5440  0.5648
  115MOL   C14625454   0.142   5.671   2.442  0.1191  0.0056  0.0763
  115MOL   O14725455   0.081   5.578   2.396 -0.2526  0.0356  0.2861
  115MOL   C14825456   0.266   5.653   2.514 -0.1934 -0.5226  0.0499
  115MOL   C14925457   7.799   5.843   2.508 -0.1330 -0.3850  0.2508
  115MOL   H15025458   0.164   5.884   2.461  1.0211 -0.5317 -1.6772
  115MOL   H15125459   0.234   5.684   2.613  0.4053 -1.0019  0.3972
  115MOL   H15225460   0.284   5.547   2.534  0.3025 -0.5302 -0.4377
  115MOL   H15325461   0.341   5.721   2.476 -2.6397  1.9790 -0.4647
  115MOL   H15425462   7.732   5.780   2.450  0.3097  2.9620 -4.2605
  115MOL   H15525463   7.764   5.944   2.487 -0.3905 -0.3095  1.0229
  115MOL   C15625464   7.794   5.817   2.660 -0.3062  0.6599 -0.0630
  115MOL   C15725465   7.641   5.809   2.692  1.4190  0.3893  0.3659
  115MOL   O15825466   7.576   5.914   2.671 -0.1748 -0.2755 -0.4209
  115MOL   C15925467   7.570   5.684   2.743 -0.2638 -0.3037  0.3947
  115MOL   C16025468   0.016   5.923   2.751 -0.4785 -0.9230 -0.1349
  115MOL   H16125469   0.001   5.721   2.679  2.1251  2.1846  1.6722
  115MOL   H16225470   7.477   5.720   2.787  0.4308  0.7161  1.0531
  115MOL   H16325471   7.548   5.616   2.661  1.5528  0.9046 -1.1229
  115MOL   H16425472   7.626   5.621   2.812  1.0824 -0.7332 -1.0637
  115MOL   H16525473   7.798   6.012   2.735  0.5354 -0.5560 -1.9051
  115MOL   H16625474   0.120   5.938   2.722 -1.3611  1.3598 -2.2343
  115MOL   C16725475   0.015   5.899   2.908 -0.2761  0.0552 -0.7735
  115MOL   C16825476   0.070   5.762   2.951 -1.1293  0.3890 -0.5202
  115MOL   O16925477   0.016   5.654   2.926  0.1814 -0.5897  0.1879
  115MOL   C17025478   0.210   5.766   3.012  0.0982  0.3380  0.8060
  115MOL   C17125479   7.722   5.931   2.972 -0.0445 -0.2014 -0.7397
  115MOL   H17225480   0.084   5.973   2.949 -0.6184 -0.7195  1.2551
  115MOL   H17325481   0.281   5.827   2.956  1.2107 -0.8875  0.8394
  115MOL   H17425482   0.201   5.813   3.110 -2.6734  0.7267  0.3965
  115MOL   H17525483   0.252   5.668   3.033  2.0715  1.0945  0.4614
  115MOL   H17625484   7.646   5.853   2.970 -1.0341  0.7391 -0.4008
  115MOL   H17725485   7.668   6.015   2.930 -0.4802 -0.2639 -0.3123
  115MOL   C17825486   7.738   5.980   3.120  0.5206 -0.5532  0.0521
  115MOL   C17925487   7.618   5.933   3.200 -0.5853 -0.0562 -0.0991
  115MOL   O18025488   7.517   6.002   3.227 -0.4653  0.1705  0.0340
  115MOL   C18125489   7.638   5.785   3.241  0.5767  0.0179 -0.8476
  115MOL   C18225490   7.762   6.130   3.130  0.3846  0.3974 -0.2547
  115MOL   H18325491   7.821   5.926   3.167  1.0205 -0.3072 -0.5412
  115MOL   H18425492   7.548   5.727   3.220  0.1546  1.0223 -1.8206
  115MOL   H18525493   7.724   5.734   3.199  0.5103  1.5807 -2.9033
  115MOL   H18625494   7.643   5.776   3.350  0.1848  0.5136 -0.7895
  115MOL   H18725495   7.679   6.186   3.088 -0.5057 -1.3746 -0.9274
  115MOL   H18825496   0.007   6.156   3.069  1.3241 -0.7497  0.5592
  115MOL   C18925497   7.796   6.193   3.269 -0.1375 -0.6566 -0.2825
  115MOL   C19025498   7.783   6.351   3.267  0.7852 -0.2785  0.0999
  115MOL   O19125499   7.810   6.422   3.172 -0.2214 -0.1472 -0.5265
  115MOL   C19225500   7.720   6.412   3.385 -0.0110 -0.5417 -0.0132
  115MOL   C19325501   0.086   6.159   3.348 -0.3819  0.3617  0.5322
  115MOL   H19425502   7.708   6.164   3.326 -1.9615  0.1926 -2.5805
  115MOL   H19525503   7.698   6.516   3.361  1.5845 -0.4067 -1.0200
  115MOL   H19625504   7.623   6.366   3.399 -0.1273 -0.5496 -0.8204
  115MOL   H19725505   7.787   6.416   3.471 -0.4199  0.7547  0.2548
  115MOL   H19825506   0.102   6.248   3.410 -0.5214  1.5395 -1.0985
  115MOL   H19925507   0.175   6.165   3.286 -1.0022 -1.5059 -0.5630
  115MOL   C20025508   0.087   6.028   3.418 -0.2401  0.0807  0.1041
  115MOL   C20125509   0.023   6.046   3.556 -0.3784 -0.0528  0.1670
  115MOL   O20225510   0.076   6.090   3.652  0.5006  0.5109 -0.4654
  115MOL   C20325511   7.723   6.009   3.578 -0.2488  0.0714 -0.0170
  115MOL   C20425512   0.226   5.966   3.430 -0.3420  0.0049  0.6645
  115MOL   H20525513   0.018   5.963   3.364 -0.4698  0.8515 -0.5497
  115MOL   H20625514   7.686   6.036   3.677 -0.1225 -0.6243  0.2292
  115MOL   H20725515   7.666   6.070   3.508 -0.1962  2.8295  2.2694
  115MOL   H20825516   7.708   5.901   3.572 -0.2278 -0.2186  3.9002
  115MOL   H20925517   0.284   6.026   3.501 -1.8818 -0.2229  2.1621
  115MOL   H21025518   0.278   5.963   3.335 -0.4543  2.1947  0.5046
  115MOL   C21125519   0.224   5.820   3.485  0.4723 -0.2532 -0.2548
  115MOL   C21225520   0.362   5.761   3.492 -0.0888 -0.0886 -0.1163
  115MOL   O21325521   0.415   5.723   3.388  0.0373 -0.2099 -0.1236
  115MOL   C21425522   0.427   5.745   3.626  0.0088 -0.6586 -0.1751
  115MOL   C21525523   0.132   5.731   3.401 -0.1853  0.3373  0.2006
  115MOL   H21625524   0.186   5.822   3.587  0.4824  0.2381 -0.2607
  115MOL   H21725525   0.399   5.653   3.678  0.1692  0.1601  1.3615
  115MOL   H21825526   0.535   5.732   3.615  0.0637 -0.3670  0.0273
  115MOL   H21925527   0.406   5.839   3.676  2.9064  0.9030 -1.7954
  115MOL   H22025528   0.037   5.717   3.453 -0.2810 -0.7579 -0.2447
  115MOL   H22125529   0.178   5.635   3.375  0.3133  1.5791 -3.8108
  115MOL   H22225530   0.106   5.779   3.307  0.3631 -2.8172 -1.6513
  116MOL     C125531   7.303   7.674   2.933 -0.0909  0.0805 -0.0819
  116MOL     C225532   7.175   7.598   2.987  0.8415 -0.3013  0.8206
  116MOL     O325533   7.118   7.510   2.925  0.3016  0.3376 -0.3119
  116MOL     C425534   7.131   7.641   3.128 -0.3700 -0.2069  0.4055
  116MOL     C525535   7.366   7.609   2.803  0.3065  0.1584  0.2205
  116MOL     H625536   7.285   7.780   2.918 -1.2152  0.5662  3.9871
  116MOL     H725537   7.179   7.572   3.197  1.1809 -0.9876 -1.3850
  116MOL     H825538   7.167   7.738   3.163 -0.2090 -0.2013  0.2279
  116MOL     H925539   7.023   7.632   3.138 -0.5425 -2.1336 -2.3802
  116MOL    H1025540   7.381   7.692   2.734 -0.3134  1.7117  1.9293
  116MOL    H1125541   7.288   7.546   2.760  0.9127 -0.8970  0.6380
  116MOL    H1225542   7.370   7.680   3.020 -1.1259 -0.6610  0.7791
  116MOL    C1325543   7.495   7.525   2.812  0.5206  0.4268  0.3005
  116MOL    C1425544   7.466   7.397   2.890  0.1080 -0.1741  0.1411
  116MOL    O1525545   7.490   7.393   3.010  0.4928  0.1004 -0.4300
  116MOL    C1625546   7.395   7.282   2.818  0.1805  0.2176 -0.0023
  116MOL    C1725547   7.611   7.606   2.878 -0.1441 -0.5680  0.2685
  116MOL    H1825548   7.526   7.488   2.715 -0.2644 -0.6166  0.4363
  116MOL    H1925549   7.349   7.218   2.893  2.4578 -1.5576 -0.0671
  116MOL    H2025550   7.325   7.312   2.740  0.8309  0.9969 -0.2873
  116MOL    H2125551   7.468   7.219   2.768 -0.0786 -0.6493  0.6891
  116MOL    H2225552   7.687   7.538   2.917  0.5670  0.7393  1.2164
  116MOL    H2325553   7.585   7.658   2.970 -0.4263  0.5304 -0.4269
  116MOL    C2425554   7.676   7.710   2.785 -0.1943  0.0091  0.9146
  116MOL    C2525555   7.735   7.653   2.650 -0.3664 -0.0940 -0.2016
  116MOL    O2625556   7.718   7.720   2.545  0.5230  0.9428 -0.8371
  116MOL    C2725557   7.822   7.532   2.663 -0.9805  0.1431  0.2504
  116MOL    C2825558   7.787   7.784   2.855 -0.1815 -0.1983 -0.2888
  116MOL    H2925559   7.600   7.786   2.765  0.2380  0.5248  1.2382
  116MOL    H3025560   0.053   7.536   2.744  0.4232  1.5323 -1.0363
  116MOL    H3125561   7.767   7.439   2.674  0.1661 -0.4225  1.3095
  116MOL    H3225562   0.038   7.537   2.571 -0.5078  0.7343  0.5795
  116MOL    H3325563   0.022   7.725   2.906  0.8020  1.3366  0.0394
  116MOL    H3425564   7.737   7.828   2.942 -0.8447 -0.0444 -0.7440
  116MOL    C3525565   0.032   0.043   2.786  0.3528 -0.5470  0.3261
  116MOL    C3625566   0.156   0.083   2.871 -0.1176 -0.4111 -0.1190
  116MOL    O3725567   0.167   0.071   2.992 -0.1008 -0.0903  1.4260
  116MOL    C3825568   0.281   0.125   2.801  0.3421 -0.4610  0.0124
  116MOL    C3925569   7.802   0.161   2.718  0.4816 -0.7506 -0.1650
  116MOL    H4025570   0.092   7.841   2.706 -0.9772 -2.5972  0.4101
  116MOL    H4125571   0.367   0.091   2.859 -0.2146 -0.9312  0.5685
  116MOL    H4225572   0.305   0.062   2.716 -1.2585 -0.5824 -0.3674
  116MOL    H4325573   0.290   0.231   2.777  1.8375 -0.4076  0.7426
  116MOL    H4425574   7.731   0.116   2.648  0.1260  0.6232 -0.7094
  116MOL    H4525575   0.029   0.215   2.652  2.7445  0.2573  2.8822
  116MOL    C4625576   7.716   0.257   2.808  0.3276  0.0268  0.0060
  116MOL    C4725577   7.592   0.309   2.729  0.2811  0.3421  0.0798
  116MOL    O4825578   7.599   0.421   2.674 -0.1360  0.5250 -0.0043
  116MOL    C4925579   7.484   0.206   2.695  0.1085 -0.0849  0.7408
  116MOL    C5025580   7.807   0.368   2.868  0.3342  0.9434  0.3613
  116MOL    H5125581   7.677   0.202   2.894  0.6150 -0.8241 -0.3983
  116MOL    H5225582   7.475   0.126   2.769 -1.7547  1.0202  1.7474
  116MOL    H5325583   7.392   0.262   2.679  0.1834 -0.4175 -0.9263
  116MOL    H5425584   7.521   0.153   2.608 -1.9694 -1.7598  0.8679
  116MOL    H5525585   7.818   0.441   2.788 -2.9897  1.8087  0.6012
  116MOL    H5625586   0.064   0.326   2.884  0.4750  0.5666 -1.3804
  116MOL    C5725587   7.749   0.439   2.988 -1.1086 -0.0528 -0.5418
  116MOL    C5825588   7.765   0.590   2.982  0.3237  0.4089  0.9186
  116MOL    O5925589   0.037   0.634   2.994  0.0411  0.2127  0.4571
  116MOL    C6025590   7.643   0.681   2.975  0.0870 -0.3980  0.4264
  116MOL    C6125591   7.806   0.378   3.119 -0.0877 -0.3815 -0.9031
  116MOL    H6225592   7.642   0.426   3.004 -1.1788  0.6447 -0.4333
  116MOL    H6325593   7.689   0.779   2.988  0.6052 -0.4286 -1.1011
  116MOL    H6425594   7.591   0.671   2.880  0.5208 -0.2168  0.1698
  116MOL    H6525595   7.574   0.644   3.051 -0.3363 -0.6371 -0.0777
  116MOL    H6625596   0.060   0.426   3.139 -1.0415  0.7026  1.1963
  116MOL    H6725597   7.836   0.273   3.117  0.8745 -0.2466  2.5976
  116MOL    C6825598   7.717   0.392   3.242 -0.5685  0.0160  0.0558
  116MOL    C6925599   7.747   0.516   3.322  0.3954 -0.2765  0.3470
  116MOL    O7025600   7.651   0.586   3.354  0.3847  0.0547  0.0647
  116MOL    C7125601   0.049   0.553   3.357  0.2408 -0.1748 -0.5710
  116MOL    C7225602   7.707   0.265   3.336  0.6818  0.4320 -0.2726
  116MOL    H7325603   7.613   0.401   3.211 -1.3095  2.8491  3.1095
  116MOL    H7425604   0.048   0.621   3.442  2.1457 -0.7740 -0.0466
  116MOL    H7525605   0.108   0.468   3.392  1.3737 -0.2771 -2.6328
  116MOL    H7625606   0.114   0.592   3.279 -0.9153 -0.3284 -1.6212
  116MOL    H7725607   7.801   0.257   3.391 -0.2647  1.3315  1.5188
  116MOL    H7825608   7.689   0.178   3.274  1.5809 -0.0449  0.1267
  116MOL    C7925609   7.600   0.274   3.451 -0.1688  0.0485 -0.6031
  116MOL    C8025610   7.595   0.155   3.540  0.4808 -0.4122  0.8224
  116MOL    O8125611   7.494   0.079   3.534 -1.5491  0.5224 -0.2008
  116MOL    C8225612   7.723   0.102   3.605  0.0576 -0.8806  0.2078
  116MOL    C8325613   7.459   0.333   3.427  0.0070 -0.3686 -0.6231
  116MOL    H8425614   7.645   0.344   3.521  1.6644  0.6620 -2.3507
  116MOL    H8525615   7.747   0.173   3.684  0.0601  0.0608 -0.6289
  116MOL    H8625616   7.694   0.010   3.656 -1.5267 -0.3513  0.2616
  116MOL    H8725617   7.809   0.084   3.540 -0.5976  1.4789 -1.3573
  116MOL    H8825618   7.462   0.429   3.374  1.7317 -0.3006 -0.4206
  116MOL    H8925619   7.423   0.364   3.524 -0.2897  1.2980 -1.2527
  116MOL    C9025620   7.358   0.246   3.339  0.0975  0.6453  0.6236
  116MOL    C9125621   7.423   0.184   3.210 -0.4035 -0.1446 -0.6617
  116MOL    O9225622   7.459   0.255   3.118  0.1850  0.1238  0.1835
  116MOL    C9325623   7.445   0.029   3.208  0.4561  0.6839  0.0891
  116MOL    C9425624   7.227   0.331   3.307  0.7513 -0.3518 -0.1827
  116MOL    H9525625   7.326   0.161   3.399  1.4438 -0.5327 -0.2994
  116MOL    H9625626   7.345   7.828   3.215  1.0844 -1.2850 -2.2947
  116MOL    H9725627   7.498   0.007   3.116  0.9277  1.2073  0.2301
  116MOL    H9825628   7.487   7.832   3.301  0.4347  1.7113  0.5370
  116MOL    H9925629   7.264   0.429   3.277  0.6640  0.9146  3.5506
  116MOL   H10025630   7.183   0.360   3.402  1.8080  1.3837 -0.1937
  116MOL   C10125631   7.123   0.265   3.210 -0.5960  0.1519 -0.1758
  116MOL   C10225632   7.165   0.276   3.054  0.6894 -0.5558 -0.1608
  116MOL   O10325633   7.158   0.177   2.983 -0.0306 -0.3901  0.0097
  116MOL   C10425634   7.213   0.412   2.999  0.7205 -0.3863  0.3310
  116MOL   C10525635   6.980   0.325   3.235  0.2252 -0.1527  0.8016
  116MOL   H10625636   7.118   0.156   3.219  0.7997  0.2981  2.5297
  116MOL   H10725637   7.215   0.409   2.890  0.5602  0.7658  0.2885
  116MOL   H10825638   7.139   0.488   3.024 -0.2053 -0.7743 -1.1915
  116MOL   H10925639   7.316   0.441   3.021  0.2297  1.8353 -0.1686
  116MOL   H11025640   6.982   0.425   3.191 -1.2929  0.0171  1.0929
  116MOL   H11125641   6.961   0.331   3.342 -4.1359  0.1609  0.1198
  116MOL   C11225642   6.859   0.255   3.168 -0.1319 -1.6556  0.6189
  116MOL   C11325643   6.733   0.341   3.141  0.8128  0.3514 -0.3252
  116MOL   O11425644   6.725   0.452   3.194  0.2261  0.2706  0.0618
  116MOL   C11525645   6.638   0.314   3.030 -0.0166  0.0185  0.8555
  116MOL   C11625646   6.828   0.129   3.248  0.0920  0.6000 -0.2016
  116MOL   H11725647   6.887   0.231   3.065 -0.8089 -1.9423  0.4952
  116MOL   H11825648   6.541   0.297   3.076 -0.2302 -0.9629  0.0571
  116MOL   H11925649   6.632   0.403   2.968 -0.4649 -0.1573  0.6429
  116MOL   H12025650   6.659   0.229   2.965 -0.4352  1.1855 -0.8109
  116MOL   H12125651   6.808   0.162   3.350  0.5335 -0.3099  0.1822
  116MOL   H12225652   6.921   0.071   3.248 -0.8868 -0.9840 -0.4262
  116MOL   C12325653   6.734   0.021   3.194  0.6745  0.2623  0.4750
  116MOL   C12425654   6.721   7.757   3.307  0.2757 -0.0806 -0.0144
  116MOL   O12525655   6.808   7.669   3.327  0.0706  0.6890  0.0889
  116MOL   C12625656   6.597   7.774   3.394 -0.4670 -0.2249  0.1065
  116MOL   C12725657   6.772   7.812   3.052  0.0454 -0.1820  0.0064
  116MOL   H12825658   6.634   0.064   3.188  0.2719 -0.8417 -0.8023
  116MOL   H12925659   6.587   7.675   3.439  1.1317 -0.4217  0.0839
  116MOL   H13025660   6.618   0.008   3.470  0.9085 -0.0846 -0.4041
  116MOL   H13125661   6.510   7.804   3.336  0.9123  0.2411 -1.7741
  116MOL   H13225662   6.874   7.772   3.051 -0.4282 -1.3924 -0.2501
  116MOL   H13325663   6.796   0.057   2.990  0.2454 -1.1213 -1.2609
  116MOL   C13425664   6.668   7.721   2.971  0.8665  0.1806  0.0174
  116MOL   C13525665   6.523   7.766   2.980  0.9786  0.4005 -0.0901
  116MOL   O13625666   6.467   7.776   3.088 -0.5003  0.7468  0.8590
  116MOL   C13725667   6.458   7.787   2.847 -0.1826 -0.2044  0.1280
  116MOL   C13825668   6.691   7.569   3.001 -0.2670 -0.0921 -0.0299
  116MOL   H13925669   6.688   7.738   2.866 -0.6589  0.5273 -0.2390
  116MOL   H14025670   6.519   0.012   2.787 -0.4464 -1.4866 -1.6262
  116MOL   H14125671   6.473   7.694   2.792 -0.2748  0.1317 -0.4690
  116MOL   H14225672   6.351   7.807   2.841 -0.2035 -0.6673 -1.2546
  116MOL   H14325673   6.606   7.512   3.038  0.2238 -1.4401 -0.9618
  116MOL   H14425674   6.763   7.569   3.083 -1.1120 -0.8045  0.7197
  116MOL   C14525675   6.752   7.498   2.880 -0.4508  0.5857  0.0699
  116MOL   C14625676   6.662   7.487   2.753 -0.1465 -0.5153 -0.1641
  116MOL   O14725677   6.549   7.436   2.770 -0.0807  0.4989  0.0662
  116MOL   C14825678   6.716   7.516   2.612 -0.0944 -0.3238 -0.1540
  116MOL   C14925679   6.820   7.359   2.911 -0.0136 -0.0476  0.5086
  116MOL   H15025680   6.837   7.561   2.855 -0.1967  0.8412  1.5358
  116MOL   H15125681   6.693   7.428   2.553  1.4996 -0.6782 -0.2494
  116MOL   H15225682   6.660   7.599   2.568 -1.3165 -2.7896 -3.4443
  116MOL   H15325683   6.823   7.537   2.612  0.0761 -1.1759  0.0680
  116MOL   H15425684   6.899   7.372   2.985 -1.5433 -0.3914  2.2288
  116MOL   H15525685   6.882   7.330   2.826  1.5206  3.2545  0.4255
  116MOL   C15625686   6.719   7.243   2.940 -0.1148 -0.0825 -0.2693
  116MOL   C15725687   6.640   7.264   3.066 -0.0232 -0.0335 -0.5857
  116MOL   O15825688   6.692   7.279   3.175 -0.0721  0.6169  0.3077
  116MOL   C15925689   6.492   7.245   3.057 -0.2982  0.0853  0.3224
  116MOL   C16025690   6.788   7.105   2.940 -0.4481  0.2180 -0.2517
  116MOL   H16125691   6.643   7.242   2.862 -0.9955 -0.6483  0.5816
  116MOL   H16225692   6.476   7.183   2.969  1.3750  1.0104 -0.6644
  116MOL   H16325693   6.459   7.185   3.141  0.1142  0.0327  0.4473
  116MOL   H16425694   6.429   7.330   3.030 -0.2580  0.8390  2.4461
  116MOL   H16525695   6.713   7.034   2.973 -0.1344  0.5273  1.1593
  116MOL   H16625696   6.861   7.113   3.020  0.2639 -1.7283 -0.6876
  116MOL   C16725697   6.836   7.043   2.802  0.4105  0.0197  0.6915
  116MOL   C16825698   6.980   7.094   2.761  0.7014 -0.0010  1.1020
  116MOL   O16925699   7.009   7.145   2.651 -0.0597 -0.6084 -0.4593
  116MOL   C17025700   7.093   7.069   2.862 -0.2207  0.0363  0.3909
  116MOL   C17125701   6.738   7.037   2.686 -0.5685 -0.2311 -1.0121
  116MOL   H17225702   6.859   6.938   2.823 -0.3022 -0.2271  0.2513
  116MOL   H17325703   7.085   6.976   2.919 -0.6620 -0.1098  0.0882
  116MOL   H17425704   7.189   7.057   2.812  0.6391  1.8079  1.5634
  116MOL   H17525705   7.080   7.156   2.927 -3.1202  0.9429 -1.3573
  116MOL   H17625706   6.796   7.006   2.599 -2.1052 -1.2218 -1.7142
  116MOL   H17725707   6.707   7.138   2.659  2.2144  1.4966  2.0420
  116MOL   C17825708   6.629   6.934   2.697  1.7469  0.6805  0.6589
  116MOL   C17925709   6.674   6.789   2.711 -0.0199 -0.5504 -0.1964
  116MOL   O18025710   6.630   6.725   2.808 -0.3134  0.5350  0.0783
  116MOL   C18125711   6.774   6.731   2.602  0.5579  1.0081  0.2227
  116MOL   C18225712   6.524   6.955   2.586  0.7316 -0.6444  0.1085
  116MOL   H18325713   6.569   6.964   2.782  0.1797  2.5901 -1.0657
  116MOL   H18425714   6.754   6.625   2.583  3.5806  0.5569 -0.6729
  116MOL   H18525715   6.755   6.783   2.509 -1.3702  0.3050  0.1946
  116MOL   H18625716   6.879   6.751   2.623 -0.2716  2.7279  3.0713
  116MOL   H18725717   6.568   6.919   2.493  0.9299  0.9422 -0.4223
  116MOL   H18825718   6.498   7.059   2.567  1.3324 -1.0151 -2.9463
  116MOL   C18925719   6.389   6.887   2.629 -0.2588  0.0834  0.4062
  116MOL   C19025720   6.352   6.754   2.560 -0.3212  0.3252 -0.3127
  116MOL   O19125721   6.414   6.711   2.461 -0.4905  0.2435 -0.8169
  116MOL   C19225722   6.223   6.688   2.607  0.0631 -0.0394  0.8265
  116MOL   C19325723   6.266   6.985   2.620  0.4980 -0.0757 -0.7754
  116MOL   H19425724   6.400   6.855   2.732 -1.4437 -0.4994  0.3594
  116MOL   H19525725   6.209   6.593   2.556  0.8405  0.1244  0.2977
  116MOL   H19625726   6.211   6.673   2.714 -1.3651 -0.3064  0.6389
  116MOL   H19725727   6.141   6.751   2.572 -0.3108  0.1273  2.0076
  116MOL   H19825728   6.170   6.945   2.588  0.1373  0.3699 -0.2513
  116MOL   H19925729   6.291   7.058   2.543  1.5723 -0.0244 -0.3802
  116MOL   C20025730   6.251   7.074   2.739 -0.4539  0.0416 -0.4694
  116MOL   C20125731   6.235   6.983   2.867 -0.6054 -0.2378 -0.1684
  116MOL   O20225732   6.319   6.987   2.956 -0.2483  0.5909  0.5038
  116MOL   C20325733   6.113   6.897   2.884  0.1650  0.7144  0.2336
  116MOL   C20425734   6.137   7.169   2.712 -0.5533 -0.0736  0.0812
  116MOL   H20525735   6.347   7.126   2.743 -0.4545  0.0001  0.1579
  116MOL   H20625736   6.039   6.940   2.951  0.2769 -1.1283  1.5708
  116MOL   H20725737   6.069   6.873   2.787  0.3584  1.2661  0.0072
  116MOL   H20825738   6.150   6.809   2.936 -0.0374 -0.5383 -1.6935
  116MOL   H20925739   6.050   7.105   2.701 -1.0103  0.4591  0.5884
  116MOL   H21025740   6.141   7.204   2.609 -1.4101 -1.7485 -0.5347
  116MOL   C21125741   6.111   7.276   2.821  0.2790 -0.0043  0.9490
  116MOL   C21225742   5.974   7.351   2.795 -0.3574 -0.0228  0.1061
  116MOL   O21325743   5.915   7.345   2.688 -0.0402  0.0283  0.0369
  116MOL   C21425744   5.923   7.446   2.904  0.4404  0.5208 -0.2184
  116MOL   C21525745   6.230   7.374   2.814  0.5334 -0.2589  0.2543
  116MOL   H21625746   6.123   7.232   2.920 -2.6471  0.8321  1.7154
  116MOL   H21725747   5.899   7.546   2.868 -0.6198 -0.4471 -2.2882
  116MOL   H21825748   5.832   7.402   2.945  1.1843 -1.4945 -0.6616
  116MOL   H21925749   6.004   7.444   2.977 -2.2107 -1.0386  2.7898
  116MOL   H22025750   6.256   7.407   2.713  2.7025 -1.9485  0.2122
  116MOL   H22125751   6.320   7.321   2.847  0.1543 -1.0533  0.0175
  116MOL   H22225752   6.227   7.463   2.877 -1.9611 -0.5553  0.5880
  117MOL     C125753   5.813   5.360   7.241  0.8194 -0.2290  0.1162
  117MOL     C225754   5.884   5.308   7.110  0.1513 -0.4833  0.1156
  117MOL     O325755   5.984   5.240   7.111  0.2933 -0.6322 -0.0808
  117MOL     C425756   5.840   5.373   6.980 -0.8084 -0.7327 -0.0647
  117MOL     C525757   5.902   5.431   7.352  0.3835 -0.2914 -0.2286
  117MOL     H625758   5.732   5.432   7.229 -0.8122 -1.9605  0.3175
  117MOL     H725759   5.774   5.457   6.997  0.2573  0.1415 -0.2229
  117MOL     H825760   5.929   5.412   6.932 -0.6396 -1.2615 -0.1815
  117MOL     H925761   5.796   5.299   6.913 -0.9934  0.8657 -1.7234
  117MOL    H1025762   5.952   5.518   7.309  0.5002  0.0794  0.6301
  117MOL    H1125763   5.971   5.350   7.376 -1.6040 -1.9170  0.1755
  117MOL    H1225764   5.775   5.273   7.295 -0.0020  0.2480  0.3146
  117MOL    C1325765   5.826   5.476   7.478 -0.3559 -0.4978  0.2759
  117MOL    C1425766   5.709   5.576   7.435 -0.0785  0.0353  0.1812
  117MOL    O1525767   5.738   5.690   7.400  0.1649 -0.4372  0.2065
  117MOL    C1625768   5.564   5.525   7.438  0.5611  0.5999  0.2914
  117MOL    C1725769   5.927   5.532   7.586 -0.4099 -0.3255  0.1568
  117MOL    H1825770   5.773   5.388   7.514 -0.2984 -1.5953 -2.2374
  117MOL    H1925771   5.534   5.496   7.538  0.3437 -0.6984 -0.1503
  117MOL    H2025772   5.500   5.603   7.395  2.5347  2.5425  0.8109
  117MOL    H2125773   5.561   5.435   7.377  0.9368  1.5805 -1.2259
  117MOL    H2225774   5.943   5.636   7.557 -2.4954 -0.0520 -0.0570
  117MOL    H2325775   6.021   5.477   7.582 -0.0882  0.0911  1.8319
  117MOL    C2425776   5.871   5.533   7.731  0.2232 -0.5120  0.0511
  117MOL    C2525777   5.746   5.619   7.739 -0.4427 -0.8633 -0.2951
  117MOL    O2625778   5.640   5.570   7.757 -0.2751 -0.0489 -0.2125
  117MOL    C2725779   5.756   5.771   7.712 -0.0668 -0.1810  0.7337
  117MOL    C2825780   5.971   5.594   7.830  0.0404  0.2163  0.4533
  117MOL    H2925781   5.857   5.430   7.762  2.3987 -0.2966  1.8901
  117MOL    H3025782   5.851   5.817   7.685 -0.7746  1.0482  0.2935
  117MOL    H3125783   5.698   5.809   7.628  0.4323  1.9081  1.2912
  117MOL    H3225784   5.716   5.815   7.804  0.6893 -0.6605  1.2946
  117MOL    H3325785   5.977   5.703   7.822  1.4747  0.1646  0.7803
  117MOL    H3425786   6.073   5.570   7.801  0.1261 -1.4027  2.0104
  117MOL    C3525787   5.952   5.552   0.139  0.2890 -0.5322 -0.5492
  117MOL    C3625788   5.843   5.631   0.208 -0.0882  0.4280 -0.0609
  117MOL    O3725789   5.854   5.753   0.223 -0.2542 -0.6277  0.3354
  117MOL    C3825790   5.735   5.552   0.287  0.0034  0.0351 -0.0219
  117MOL    C3925791   6.078   5.571   0.226  0.5409  0.5464 -0.1414
  117MOL    H4025792   5.932   5.445   0.144 -0.0404 -0.5040 -1.2412
  117MOL    H4125793   5.727   5.446   0.262 -1.3241  0.4188 -1.3358
  117MOL    H4225794   5.741   5.564   0.395 -1.4324 -0.1179  0.0813
  117MOL    H4325795   5.641   5.604   0.268  0.4437  0.9517  0.2518
  117MOL    H4425796   6.049   5.555   0.330 -0.2441  1.2527 -0.2492
  117MOL    H4525797   6.130   5.665   0.210  0.7594  0.3492 -0.6162
  117MOL    C4625798   6.181   5.464   0.195 -0.6381  0.6961 -0.4311
  117MOL    C4725799   6.135   5.323   0.255  0.5521 -0.0690 -0.0100
  117MOL    O4825800   6.127   5.307   0.376 -0.2613  0.2275  0.0148
  117MOL    C4925801   6.094   5.226   0.151 -0.3851  0.1985 -0.0754
  117MOL    C5025802   6.328   5.490   0.237 -0.4200  0.3594  0.4313
  117MOL    H5125803   6.186   5.442   0.089  0.6242 -0.9387 -0.0650
  117MOL    H5225804   6.177   5.156   0.145  0.1871  0.8849 -0.2544
  117MOL    H5325805   5.997   5.183   0.175  0.9827 -1.3026  3.1106
  117MOL    H5425806   6.082   5.267   0.051 -2.2054  0.8389  0.3917
  117MOL    H5525807   6.384   5.397   0.231 -2.4437 -0.8359 -0.4402
  117MOL    H5625808   6.336   5.511   0.343  2.9678  0.2259  0.2553
  117MOL    C5725809   6.407   5.599   0.169  0.5394 -0.6545  0.2992
  117MOL    C5825810   6.437   5.567   0.023  0.0273  0.0134 -0.0382
  117MOL    O5925811   6.509   5.471   7.835 -0.0029  0.0339  0.2090
  117MOL    C6025812   6.389   5.656   7.748  0.2648 -0.5268 -0.1784
  117MOL    C6125813   6.528   5.641   0.250 -0.2248 -0.0916 -0.1760
  117MOL    H6225814   6.342   5.687   0.166  1.2688 -0.1070  0.5563
  117MOL    H6325815   6.336   5.739   7.796  0.9087 -0.2276  0.0226
  117MOL    H6425816   6.470   5.690   7.683 -1.3446  0.4814 -1.6967
  117MOL    H6525817   6.311   5.611   7.687  0.1394  1.6562 -1.6711
  117MOL    H6625818   6.604   5.565   0.229  0.0447  0.0065  0.4464
  117MOL    H6725819   6.495   5.643   0.354 -0.4383 -1.5603 -0.1959
  117MOL    C6825820   6.603   5.770   0.238 -0.4702 -0.3162 -0.4599
  117MOL    C6925821   6.517   5.891   0.287 -0.1741  0.0392 -1.2192
  117MOL    O7025822   6.413   5.915   0.235  0.5578  0.2762 -0.6199
  117MOL    C7125823   6.582   5.984   0.389  0.6691  0.3325  0.8493
  117MOL    C7225824   6.675   5.808   0.104 -0.2975 -0.3407 -0.3050
  117MOL    H7325825   6.683   5.763   0.312 -1.6238  2.4202  1.1582
  117MOL    H7425826   6.571   6.092   0.380 -0.1350  0.2839  1.2496
  117MOL    H7525827   6.541   5.959   0.486  0.4296  0.9763  0.9214
  117MOL    H7625828   6.689   5.961   0.389  0.8679  1.2120  2.0168
  117MOL    H7725829   6.680   5.917   0.096 -1.1405 -0.3679 -1.4608
  117MOL    H7825830   6.612   5.787   0.017 -1.9338  5.8073 -0.8006
  117MOL    C7925831   6.811   5.736   0.083 -0.6564  0.2525 -1.4312
  117MOL    C8025832   6.908   5.753   0.206  0.0740  0.0245  0.4193
  117MOL    O8125833   6.905   5.858   0.276  0.0579 -0.2879 -0.1131
  117MOL    C8225834   6.999   5.631   0.243  0.8092  0.6065 -0.0383
  117MOL    C8325835   6.886   5.776   7.793  0.6504  0.5581 -0.2698
  117MOL    H8425836   6.792   5.629   0.074  0.2565  0.1050 -1.6680
  117MOL    H8525837   7.091   5.660   0.191  1.0034  0.5745  0.2913
  117MOL    H8625838   7.015   5.621   0.350 -0.2794  1.3207  0.1956
  117MOL    H8725839   6.960   5.539   0.199  0.3568  0.3003  1.0065
  117MOL    H8825840   6.992   5.757   7.806  0.8144  1.6763  0.0609
  117MOL    H8925841   6.880   5.882   7.769  0.5789  0.1664 -2.0063
  117MOL    C9025842   6.831   5.699   7.671  0.3217 -0.4277 -0.1745
  117MOL    C9125843   6.857   5.545   7.673 -0.0658 -0.3312  0.6228
  117MOL    O9225844   6.947   5.494   7.737  0.2884  0.0001 -0.0484
  117MOL    C9325845   6.774   5.455   7.586 -0.0541  0.7596 -0.2784
  117MOL    C9425846   6.884   5.759   7.540  0.3068  0.0608 -0.0073
  117MOL    H9525847   6.723   5.696   7.666  0.2632 -1.0000  1.2898
  117MOL    H9625848   6.812   5.464   7.484  0.3425  0.6624 -0.1389
  117MOL    H9725849   6.793   5.350   7.609  3.1983  1.2078 -0.7017
  117MOL    H9825850   6.670   5.487   7.587  0.5288  2.7572 -0.4904
  117MOL    H9925851   6.871   5.688   7.458  0.3558 -1.1841  1.0505
  117MOL   H10025852   6.987   5.791   7.557 -0.3149  1.8402  0.5396
  117MOL   C10125853   6.821   5.897   7.505  0.1473  0.6345 -0.2154
  117MOL   C10225854   6.670   5.903   7.517  0.1850 -0.1947  0.3074
  117MOL   O10325855   6.595   5.823   7.463 -0.0696 -0.0825  0.0692
  117MOL   C10425856   6.616   6.007   7.619 -0.2047  0.4015 -0.1486
  117MOL   C10525857   6.862   5.954   7.363 -0.3252 -0.5746 -0.1753
  117MOL   H10625858   6.855   5.967   7.581  1.9429 -0.4402 -0.0059
  117MOL   H10725859   6.545   6.077   7.575 -0.1118  1.0749  0.7677
  117MOL   H10825860   6.576   5.958   7.707 -0.8319 -1.2131 -1.3013
  117MOL   H10925861   6.692   6.069   7.666  0.5099 -0.4658 -0.1514
  117MOL   H11025862   6.970   5.966   7.362 -0.6523  2.9391 -1.1755
  117MOL   H11125863   6.819   6.055   7.367 -1.9593 -1.3073  1.8244
  117MOL   C11225864   6.810   5.886   7.236  0.4657  0.4731  0.3779
  117MOL   C11325865   6.915   5.783   7.174  0.9225 -0.0215 -0.8091
  117MOL   O11425866   7.013   5.746   7.237  0.1381  0.1901  0.4000
  117MOL   C11525867   6.884   5.733   7.028 -0.4633  0.5204  0.4163
  117MOL   C11625868   6.792   6.002   7.130  0.2073 -0.2841 -0.8952
  117MOL   H11725869   6.714   5.841   7.260 -0.6444  1.5053 -1.9667
  117MOL   H11825870   6.914   5.628   7.032 -0.7037  0.4643  0.8081
  117MOL   H11925871   6.779   5.725   6.999 -0.0194 -2.4749 -0.4971
  117MOL   H12025872   6.942   5.783   6.951 -0.3728 -2.1037 -1.2940
  117MOL   H12125873   6.826   5.972   7.031  0.6426 -0.1592 -0.7819
  117MOL   H12225874   6.856   6.085   7.157 -0.9138  0.1836  0.3553
  117MOL   C12325875   6.642   6.046   7.116  0.6477 -0.1847 -0.5483
  117MOL   C12425876   6.562   5.935   7.047  0.8741 -0.0692  0.0993
  117MOL   O12525877   6.594   5.898   6.936  0.0031  0.8515 -0.6214
  117MOL   C12625878   6.441   5.877   7.114  0.4915  0.3463  0.6639
  117MOL   C12725879   6.641   6.178   7.041 -0.5731  0.3459 -0.4977
  117MOL   H12825880   6.597   6.065   7.213 -1.0698  1.0733 -1.5559
  117MOL   H12925881   6.373   5.814   7.058  0.3660  1.3138 -0.2929
  117MOL   H13025882   6.470   5.810   7.194 -0.9963 -0.7166  0.3384
  117MOL   H13125883   6.389   5.964   7.155  3.7082  2.3709  0.6067
  117MOL   H13225884   6.672   6.168   6.937 -1.4136  0.4387 -0.7559
  117MOL   H13325885   6.720   6.240   7.084  1.5525 -1.8389 -1.1606
  117MOL   C13425886   6.499   6.259   7.055 -0.1054  0.6239  0.0899
  117MOL   C13525887   6.413   6.254   6.927  0.6300 -0.2353  0.0083
  117MOL   O13625888   6.366   6.362   6.885  0.4549 -0.3294  0.2610
  117MOL   C13725889   6.379   6.119   6.861 -0.6902 -0.2995 -0.5890
  117MOL   C13825890   6.525   6.402   7.102 -1.0480  0.1175  0.9440
  117MOL   H13925891   6.446   6.202   7.132  2.7529 -3.7351 -0.9878
  117MOL   H14025892   6.289   6.120   6.800 -0.8291  2.5475 -0.3685
  117MOL   H14125893   6.468   6.079   6.812  0.6202 -1.4518  2.5833
  117MOL   H14225894   6.357   6.052   6.944 -0.5425  0.0732 -0.2455
  117MOL   H14325895   6.443   6.469   7.080 -0.3988  0.6390  0.0889
  117MOL   H14425896   6.611   6.428   7.040  0.2377  1.1748  3.1344
  117MOL   C14525897   6.572   6.406   7.250  0.3597  0.7467  0.0481
  117MOL   C14625898   6.455   6.349   7.344  0.1685 -0.0768  0.4118
  117MOL   O14725899   6.354   6.415   7.361 -0.2654 -0.9790 -0.0614
  117MOL   C14825900   6.466   6.200   7.389  0.2371  0.1681 -0.5690
  117MOL   C14925901   6.629   6.545   7.299  0.5715 -0.3737 -0.3734
  117MOL   H15025902   6.656   6.336   7.254  0.2571  0.4521 -2.2880
  117MOL   H15125903   6.405   6.170   7.473  2.1585  0.5553  1.0004
  117MOL   H15225904   6.417   6.138   7.314  0.9881 -1.1211 -0.0011
  117MOL   H15325905   6.567   6.161   7.403 -1.1734 -2.6077  2.2782
  117MOL   H15425906   6.670   6.527   7.398 -1.9498 -1.3255  0.5487
  117MOL   H15525907   6.543   6.609   7.319 -1.1864 -2.2127 -1.8492
  117MOL   C15625908   6.739   6.602   7.212 -0.2940  0.1802  0.3781
  117MOL   C15725909   6.863   6.504   7.203 -0.2541 -0.2411 -0.0360
  117MOL   O15825910   6.886   6.420   7.288  0.3538  0.0418 -0.3136
  117MOL   C15925911   6.967   6.524   7.095  0.0920 -0.3837  0.2049
  117MOL   C16025912   6.786   6.742   7.262 -0.5338 -0.1952 -0.6922
  117MOL   H16125913   6.690   6.604   7.115  0.0195  0.2157  0.2192
  117MOL   H16225914   6.930   6.596   7.021 -0.2207 -0.9831 -0.2321
  117MOL   H16325915   7.069   6.547   7.124  0.3527 -1.3809  0.0914
  117MOL   H16425916   6.981   6.431   7.040  1.0756 -0.5921  0.8037
  117MOL   H16525917   6.877   6.768   7.207 -1.4005  0.5815 -1.7853
  117MOL   H16625918   6.822   6.727   7.364  0.3118 -0.5972 -1.0447
  117MOL   C16725919   6.681   6.850   7.238 -0.3208  0.0103 -0.3520
  117MOL   C16825920   6.690   6.887   7.087 -0.2084 -0.7402 -0.3436
  117MOL   O16925921   6.771   6.971   7.045  0.8280  0.4608 -0.4659
  117MOL   C17025922   6.583   6.830   6.999 -0.0405 -0.0598  1.0067
  117MOL   C17125923   6.703   6.972   7.335  0.6541  0.5585 -0.2453
  117MOL   H17225924   6.583   6.809   7.261  1.3727 -3.2793  1.4076
  117MOL   H17325925   6.615   6.832   6.895 -2.3132 -1.5530  0.2449
  117MOL   H17425926   6.573   6.725   7.027  0.2194 -0.4505 -0.3093
  117MOL   H17525927   6.491   6.887   7.014  0.0607  0.7903 -1.3262
  117MOL   H17625928   6.797   7.024   7.320 -0.2340  2.2707 -0.0127
  117MOL   H17725929   6.704   6.923   7.432  1.3734  2.4352  0.7009
  117MOL   C17825930   6.586   7.070   7.346 -0.0558 -0.2970  0.2831
  117MOL   C17925931   6.579   7.171   7.235  0.4487 -0.1373  0.1900
  117MOL   O18025932   6.480   7.170   7.163 -0.3476  0.4895 -0.3583
  117MOL   C18125933   6.690   7.271   7.225 -0.4577 -0.1930  1.0655
  117MOL   C18225934   6.570   7.134   7.492 -0.1306 -0.3815  0.7083
  117MOL   H18325935   6.498   7.007   7.336 -0.6842 -0.3495  5.2093
  117MOL   H18425936   6.767   7.273   7.303 -0.6853 -0.8968  1.3182
  117MOL   H18525937   6.744   7.258   7.131 -0.4300 -0.8138  1.1621
  117MOL   H18625938   6.640   7.367   7.232 -1.1945 -0.4960  0.0232
  117MOL   H18725939   6.482   7.199   7.490  0.0023 -0.2214  0.0405
  117MOL   H18825940   6.662   7.186   7.514 -0.7936 -0.0354  2.7497
  117MOL   C18925941   6.543   7.043   7.611  0.3110 -0.1132 -0.0070
  117MOL   C19025942   6.428   6.944   7.577  0.4729  0.0301  0.3056
  117MOL   O19125943   6.313   6.983   7.564  0.0752 -0.5349 -0.3549
  117MOL   C19225944   6.468   6.798   7.580 -0.7494  0.7029  0.3313
  117MOL   C19325945   6.511   7.126   7.736  0.4607 -1.1118 -1.1793
  117MOL   H19425946   6.621   6.970   7.633 -0.8434 -0.9613  1.3554
  117MOL   H19525947   6.375   6.742   7.587 -0.1994 -0.3141 -0.3866
  117MOL   H19625948   6.490   6.757   7.482 -0.4700 -1.8621  1.4285
  117MOL   H19725949   6.542   6.758   7.650  0.5588  0.1556 -1.3174
  117MOL   H19825950   6.430   7.194   7.711  1.1205  1.7951  3.9387
  117MOL   H19925951   6.596   7.190   7.758  0.5930 -1.9508  0.9301
  117MOL   C20025952   6.473   7.047   0.025  0.0753 -0.6311 -0.4214
  117MOL   C20125953   6.348   7.118   0.086  0.0431 -0.3839  0.0251
  117MOL   O20225954   6.359   7.221   0.147 -0.2940  0.2691 -0.5799
  117MOL   C20325955   6.214   7.048   0.069  0.7046  0.0458  0.4082
  117MOL   C20425956   6.594   7.029   0.117  0.0011 -0.7265  0.3596
  117MOL   H20525957   6.444   6.945   0.001 -2.2843 -0.2755  0.7053
  117MOL   H20625958   6.179   7.087   7.815  3.8933  1.7930 -0.0838
  117MOL   H20725959   6.231   6.941   0.057  0.0736 -0.3124  2.5293
  117MOL   H20825960   6.129   7.066   0.135  0.5090 -0.3983  0.2811
  117MOL   H20925961   6.604   7.129   0.158 -0.1883  0.7958 -3.1321
  117MOL   H21025962   6.685   7.029   0.056  1.5087 -1.8727  2.5547
  117MOL   C21125963   6.610   6.912   0.211 -0.3055 -0.4607 -0.0313
  117MOL   C21225964   6.616   6.775   0.137 -0.1354  0.4363  0.0868
  117MOL   O21325965   6.525   6.694   0.152  0.3732  0.0691 -0.5834
  117MOL   C21425966   6.730   6.747   0.041  0.6774  0.3696  0.4347
  117MOL   C21525967   6.495   6.908   0.312 -0.1376 -0.1466  0.5541
  117MOL   H21625968   6.701   6.928   0.270  0.2929 -1.6029 -0.6192
  117MOL   H21725969   6.700   6.767   7.780 -0.2124  2.3244  1.0461
  117MOL   H21825970   6.814   6.815   0.058  0.5125  0.4943  0.7410
  117MOL   H21925971   6.761   6.642   0.042  0.5699  0.3266 -0.3657
  117MOL   H22025972   6.475   7.009   0.347  1.1330  1.3646 -2.8605
  117MOL   H22125973   6.511   6.850   0.403  1.0281 -2.2168 -0.9278
  117MOL   H22225974   6.402   6.866   0.275  0.1169 -1.7574  1.6669
  118MOL     C125975   6.441   0.619   6.765 -0.4956 -0.5810 -0.4815
  118MOL     C225976   6.406   0.735   6.672  1.0306 -0.0397  0.3891
  118MOL     O325977   6.302   0.750   6.616 -0.2414  0.1455  0.2709
  118MOL     C425978   6.520   0.838   6.654  0.1077  0.2592  0.1757
  118MOL     C525979   6.320   0.519   6.784 -0.1104  0.0471  0.6372
  118MOL     H625980   6.525   0.563   6.723  0.5404  1.5135 -1.2884
  118MOL     H725981   6.484   0.939   6.676 -1.0241 -0.0102 -0.3804
  118MOL     H825982   6.605   0.805   6.713  1.6149  2.4985 -0.6937
  118MOL     H925983   6.552   0.840   6.550  1.1875 -0.3769  0.4867
  118MOL    H1025984   6.369   0.433   6.830 -1.5087 -0.0708  1.9374
  118MOL    H1125985   6.287   0.486   6.685  0.7533  0.3222  0.2565
  118MOL    H1225986   6.470   0.658   6.863 -0.3450 -0.6630 -0.4938
  118MOL    C1325987   6.217   0.569   6.885  0.3764  0.4463  0.3774
  118MOL    C1425988   6.249   0.533   7.029  0.0422  0.1198  0.1054
  118MOL    O1525989   6.239   0.416   7.057  0.3975 -0.5564  0.0713
  118MOL    C1625990   6.289   0.647   7.128  0.5839  0.3264 -0.2319
  118MOL    C1725991   6.077   0.507   6.846 -0.0110 -0.3797  0.2469
  118MOL    H1825992   6.215   0.677   6.871  1.5888  0.3999 -0.1877
  118MOL    H1925993   6.371   0.710   7.097 -0.2268  1.8030  0.5336
  118MOL    H2025994   6.205   0.708   7.162  1.3866  1.7549 -0.7814
  118MOL    H2125995   6.328   0.596   7.217  1.0326  0.8530 -0.1218
  118MOL    H2225996   6.060   0.408   6.886 -0.6620  0.1015  1.1731
  118MOL    H2325997   6.067   0.495   6.738  0.6735  0.0799  0.1291
  118MOL    C2425998   5.946   0.597   6.885  0.4303 -0.0978 -0.2918
  118MOL    C2525999   5.929   0.623   7.036 -0.0515 -0.1771 -0.2661
  118MOL    O2626000   5.919   0.737   7.077 -1.1518  0.3180 -0.6298
  118MOL    C2726001   5.932   0.505   7.140  0.4370 -0.4942 -0.2033
  118MOL    C2826002   5.825   0.527   6.823  0.3424  0.1535 -0.2838
  118MOL    H2926003   5.968   0.689   6.831 -0.9559 -1.2352 -2.9417
  118MOL    H3026004   5.926   0.406   7.096  2.4385 -0.3263 -0.8681
  118MOL    H3126005   6.022   0.501   7.202 -0.1491  0.9418  0.7774
  118MOL    H3226006   5.844   0.509   7.204  0.6711 -0.7057  0.1343
  118MOL    H3326007   5.802   0.439   6.883  2.7371  0.5703  1.3082
  118MOL    H3426008   5.860   0.489   6.727  2.6797  0.7298  0.3150
  118MOL    C3526009   5.701   0.615   6.791 -0.3291 -0.2847 -0.2784
  118MOL    C3626010   5.615   0.645   6.921 -0.1328 -0.9379 -0.4696
  118MOL    O3726011   5.582   0.548   6.989 -0.1614  0.2477 -0.3886
  118MOL    C3826012   5.579   0.792   6.955  0.2498 -0.2646  0.6530
  118MOL    C3926013   5.615   0.555   6.680 -0.2861 -0.1046 -0.1428
  118MOL    H4026014   5.739   0.710   6.753  1.5158  0.0318  2.2684
  118MOL    H4126015   5.471   0.805   6.959  0.2142  0.1407 -1.2987
  118MOL    H4226016   5.608   0.806   7.059 -0.5504 -0.1684  0.8584
  118MOL    H4326017   5.621   0.863   6.884 -1.5833  0.3933  0.2139
  118MOL    H4426018   5.516   0.556   6.726  0.1145 -0.1242  0.7292
  118MOL    H4526019   5.632   0.449   6.665  0.1025 -0.3015  1.6530
  118MOL    C4626020   5.617   0.652   6.556  0.0962  0.0923 -0.2719
  118MOL    C4726021   5.492   0.731   6.542  0.2723 -0.0302  0.1146
  118MOL    O4826022   5.384   0.685   6.573 -0.0996  0.6091 -0.1901
  118MOL    C4926023   5.503   0.868   6.475  0.4545  0.3212  0.3588
  118MOL    C5026024   5.636   0.573   6.427 -0.2563  0.0417  0.2733
  118MOL    H5126025   5.697   0.726   6.560  0.6242 -0.3660 -1.7422
  118MOL    H5226026   5.584   0.871   6.403  0.7655 -0.1144  0.6869
  118MOL    H5326027   5.412   0.902   6.425  1.2180 -0.4168 -1.5724
  118MOL    H5426028   5.538   0.943   6.545  1.1728  1.5212 -1.2459
  118MOL    H5526029   5.589   0.625   6.343 -2.0552 -2.1302 -0.1233
  118MOL    H5626030   5.594   0.472   6.418  0.1323 -0.0300 -0.8994
  118MOL    C5726031   5.789   0.556   6.392  0.0443  0.0353 -0.3566
  118MOL    C5826032   5.872   0.687   6.354  0.7091 -0.1749 -0.5355
  118MOL    O5926033   5.813   0.785   6.307 -0.4816  0.3850 -0.0794
  118MOL    C6026034   6.024   0.694   6.382 -0.1504  1.1105 -0.9598
  118MOL    C6126035   5.821   0.454   6.280 -0.4084  0.3384  0.1933
  118MOL    H6226036   5.835   0.513   6.481  1.1513 -0.8557 -1.3453
  118MOL    H6326037   6.048   0.743   6.476 -1.9545  1.1239 -0.4827
  118MOL    H6426038   6.054   0.590   6.394 -0.9852  1.0297  0.5984
  118MOL    H6526039   6.076   0.738   6.296 -0.3324  1.1477 -1.0533
  118MOL    H6626040   5.903   0.487   6.217  1.5596 -3.0130  0.8445
  118MOL    H6726041   5.744   0.468   6.204  0.3818  1.0366 -0.4850
  118MOL    C6826042   5.825   0.308   6.321  0.1159 -0.2164  0.6790
  118MOL    C6926043   5.957   0.293   6.396  0.2107  0.2397  0.1796
  118MOL    O7026044   6.057   0.356   6.367 -0.1114 -0.3019  0.4247
  118MOL    C7126045   5.957   0.209   6.519 -0.3093 -0.2051  0.8548
  118MOL    C7226046   5.811   0.213   6.191  0.4443  0.6451 -0.4816
  118MOL    H7326047   5.740   0.291   6.387 -0.7380  0.4800 -0.2250
  118MOL    H7426048   5.858   0.169   6.540 -0.6020  0.2200  0.2701
  118MOL    H7526049   6.021   0.122   6.503  2.1333  1.8716 -1.0852
  118MOL    H7626050   5.984   0.261   6.611 -1.9438 -2.5032  2.7064
  118MOL    H7726051   5.902   0.220   6.131 -1.4743 -2.0458 -3.9403
  118MOL    H7826052   5.736   0.246   6.118 -0.9937  1.0773  1.1611
  118MOL    C7926053   5.787   0.064   6.225  0.4515  0.1971 -0.8258
  118MOL    C8026054   5.914   7.832   6.279 -0.1675  0.6037 -0.2708
  118MOL    O8126055   6.031   0.026   6.248  0.2684  0.3586 -0.4217
  118MOL    C8226056   5.885   7.705   6.349 -0.1297  0.5042  0.0342
  118MOL    C8326057   5.729   7.834   6.096 -0.4754  0.1704 -0.1753
  118MOL    H8426058   5.715   0.073   6.307  0.6373 -1.0377 -0.5264
  118MOL    H8526059   5.781   7.695   6.381  0.5438 -0.4432  2.0051
  118MOL    H8626060   5.921   7.628   6.281 -0.9809 -1.7983  2.1202
  118MOL    H8726061   5.934   7.692   6.445 -1.7723  0.3003  0.8715
  118MOL    H8826062   5.751   7.728   6.106 -2.9682 -0.3827 -0.1830
  118MOL    H8926063   5.797   0.019   6.015 -1.2088  1.2193 -0.4400
  118MOL    C9026064   5.581   0.026   6.063  0.0892  0.4118 -0.5572
  118MOL    C9126065   5.473   7.834   6.172 -0.4035 -0.2870  0.7803
  118MOL    O9226066   5.502   7.762   6.265 -0.5524  0.1919  0.1417
  118MOL    C9326067   5.328   0.035   6.160  0.6160  0.5021  0.7523
  118MOL    C9426068   5.545   7.810   5.924 -0.2201 -0.2813 -0.3259
  118MOL    H9526069   5.576   0.132   6.039 -0.1845  0.2793 -1.0828
  118MOL    H9626070   5.306   0.129   6.210 -2.3405 -0.2273  0.9159
  118MOL    H9726071   5.292   0.038   6.057  0.4398 -0.3766  0.7840
  118MOL    H9826072   5.261   7.799   6.196  0.7011  0.2598  0.3937
  118MOL    H9926073   5.437   7.798   5.910 -0.1355  0.0988 -1.2932
  118MOL   H10026074   5.594   7.713   5.925 -1.0060 -0.6859  0.5380
  118MOL   C10126075   5.624   0.045   5.812 -0.2176  0.1616 -0.4919
  118MOL   C10226076   5.525   0.136   5.742 -0.5121 -0.0585 -0.0741
  118MOL   O10326077   5.456   0.096   5.648 -0.6588 -0.6801 -0.4007
  118MOL   C10426078   5.521   0.272   5.809  0.0689 -0.7443 -0.4869
  118MOL   C10526079   5.709   7.800   5.721 -0.7387  0.6722  0.2661
  118MOL   H10626080   5.699   0.112   5.856  0.5915 -1.1276  0.1299
  118MOL   H10726081   5.523   0.269   5.918  0.9001 -1.9215 -0.5286
  118MOL   H10826082   5.607   0.330   5.776  2.2035 -2.2004  2.2692
  118MOL   H10926083   5.435   0.325   5.768  0.6458  0.9377  0.4313
  118MOL   H11026084   5.644   7.747   5.651 -1.8562  1.0714  0.9919
  118MOL   H11126085   5.752   7.721   5.782 -3.0550 -0.6708  0.2311
  118MOL   C11226086   5.807   0.036   5.632 -0.2656  0.3739  0.1913
  118MOL   C11326087   5.856   7.783   5.523 -0.3390 -0.2083 -0.9745
  118MOL   O11426088   5.964   7.720   5.522  0.0875 -0.2571 -0.2305
  118MOL   C11526089   5.776   7.775   5.395  0.2629  1.0328 -0.0430
  118MOL   C11626090   5.920   0.090   5.723 -0.0388  0.2271 -0.1543
  118MOL   H11726091   5.750   0.113   5.581  0.6469  1.4920  0.8398
  118MOL   H11826092   5.786   7.684   5.337 -0.3042 -0.2207  1.7740
  118MOL   H11926093   5.670   7.784   5.419  0.1679 -0.1818 -0.0069
  118MOL   H12026094   5.804   0.011   5.324  2.4174  0.8512  0.5676
  118MOL   H12126095   5.941   7.838   5.774 -0.1037 -1.4643 -3.0726
  118MOL   H12226096   5.881   0.166   5.790  1.1909 -0.8565  1.8301
  118MOL   C12326097   6.054   0.145   5.666 -0.4664  0.2749  0.1928
  118MOL   C12426098   6.150   0.175   5.779 -0.2433 -0.1655 -0.0972
  118MOL   O12526099   6.112   0.235   5.879 -0.1037  0.1710 -0.7694
  118MOL   C12626100   6.300   0.133   5.763  0.7798 -0.8222 -0.3917
  118MOL   C12726101   6.022   0.280   5.590 -0.4646 -0.5965 -0.3867
  118MOL   H12826102   6.107   0.074   5.602 -0.0366  0.6331  0.1449
  118MOL   H12926103   6.335   0.114   5.661 -0.4596 -1.4309 -0.7037
  118MOL   H13026104   6.346   0.224   5.804  0.5509 -0.7259 -0.3512
  118MOL   H13126105   6.318   0.046   5.826  0.6788  1.2867  2.6533
  118MOL   H13226106   5.985   0.345   5.670  1.6645  0.7869 -0.4735
  118MOL   H13326107   5.934   0.276   5.527 -2.4885  0.8958  2.2159
  118MOL   C13426108   6.132   0.367   5.520 -0.8879 -0.0156 -0.0422
  118MOL   C13526109   6.204   0.275   5.424 -0.4818 -0.2539  0.7211
  118MOL   O13626110   6.320   0.236   5.443 -0.5211 -0.3122  0.2996
  118MOL   C13726111   6.114   0.212   5.316  0.4343  0.3747 -0.1205
  118MOL   C13826112   6.223   0.435   5.620  0.3845  0.6058 -0.2175
  118MOL   H13926113   6.089   0.442   5.454  1.9009  2.0887  0.4528
  118MOL   H14026114   6.172   0.183   5.229 -0.1202 -1.0123 -0.0492
  118MOL   H14126115   6.068   0.121   5.354  0.3684  0.5347  0.1846
  118MOL   H14226116   6.035   0.279   5.282 -0.6028 -1.8386 -2.2528
  118MOL   H14326117   6.298   0.367   5.659 -1.2520 -0.0575  1.8221
  118MOL   H14426118   6.163   0.470   5.704 -1.6809 -3.9787  0.3588
  118MOL   C14526119   6.311   0.554   5.589  0.0449  0.3459  1.0592
  118MOL   C14626120   6.240   0.683   5.549  0.2069 -0.6688 -0.2871
  118MOL   O14726121   6.145   0.668   5.476  0.5334  0.2324 -0.5432
  118MOL   C14826122   6.273   0.818   5.607 -0.3885  0.0472  0.2314
  118MOL   C14926123   6.432   0.528   5.493  0.1334 -0.8141  0.4615
  118MOL   H15026124   6.367   0.585   5.677  0.3856 -1.3849  1.4789
  118MOL   H15126125   6.184   0.865   5.648  0.9719  1.4943  1.5999
  118MOL   H15226126   6.337   0.815   5.695 -0.1336 -2.0004  0.0147
  118MOL   H15326127   6.313   0.887   5.533 -0.5841  2.0050  1.9000
  118MOL   H15426128   6.382   0.521   5.396 -3.0043  2.0017  1.7664
  118MOL   H15526129   6.483   0.434   5.516 -1.2859 -1.1321  2.3882
  118MOL   C15626130   6.551   0.630   5.491 -0.2281 -1.0285  0.0075
  118MOL   C15726131   6.540   0.736   5.374  1.3125  0.4820 -0.0622
  118MOL   O15826132   6.448   0.731   5.290 -0.0401  0.4689  0.2406
  118MOL   C15926133   6.636   0.850   5.376 -0.5705 -0.6593  0.0113
  118MOL   C16026134   6.695   0.566   5.502 -0.7110  0.2372  0.1333
  118MOL   H16126135   6.544   0.688   5.583 -2.4298 -1.7822  0.3573
  118MOL   H16226136   6.690   0.849   5.281  2.1835  1.6324  1.4913
  118MOL   H16326137   6.576   0.942   5.377 -1.0526 -0.9736  0.1177
  118MOL   H16426138   6.707   0.839   5.458 -0.1634 -2.2250 -0.5309
  118MOL   H16526139   6.762   0.650   5.514 -2.2379  1.3171  1.3647
  118MOL   H16626140   6.722   0.526   5.404 -1.4765 -2.0734  0.8237
  118MOL   C16726141   6.724   0.458   5.611 -0.6846 -0.4304 -0.6316
  118MOL   C16826142   6.665   0.489   5.750 -0.7053 -0.6410  0.2406
  118MOL   O16926143   6.650   0.604   5.786  0.5056  0.4237  0.2908
  118MOL   C17026144   6.640   0.370   5.835  0.3360  0.4434 -0.2523
  118MOL   C17126145   6.878   0.449   5.636  0.1902 -0.5947 -0.1984
  118MOL   H17226146   6.694   0.365   5.563 -0.4127 -2.4137  2.8295
  118MOL   H17326147   6.652   0.404   5.938  1.9563 -0.0376 -0.2669
  118MOL   H17426148   6.539   0.330   5.822  0.4574 -0.1370  0.5545
  118MOL   H17526149   6.720   0.297   5.822  0.9170  0.3980  3.1185
  118MOL   H17626150   6.889   0.366   5.705 -1.9220 -1.1012 -0.4164
  118MOL   H17726151   6.919   0.535   5.689 -1.0629 -0.5828  0.7928
  118MOL   C17826152   6.956   0.402   5.506  0.1223  0.5492 -0.1101
  118MOL   C17926153   6.910   0.263   5.466 -0.6154 -0.2066  0.2690
  118MOL   O18026154   6.882   0.168   5.542  0.1441 -0.0085 -0.1231
  118MOL   C18126155   6.899   0.236   5.319 -0.2425 -0.4280  1.1616
  118MOL   C18226156   7.110   0.396   5.520  0.0644  0.0935 -0.6567
  118MOL   H18326157   6.926   0.457   5.417 -2.4768  0.2823  0.5572
  118MOL   H18426158   6.797   0.266   5.293 -0.1162 -1.0896 -0.1648
  118MOL   H18526159   6.967   0.307   5.273 -0.6429 -0.3369  0.7054
  118MOL   H18626160   6.933   0.136   5.292  0.2085 -0.2401  1.0396
  118MOL   H18726161   7.161   0.325   5.454  3.3581  1.2932  0.4786
  118MOL   H18826162   7.129   0.351   5.617 -0.4967 -1.1833 -1.1351
  118MOL   C18926163   7.177   0.533   5.536 -0.6058 -0.3638  0.4345
  118MOL   C19026164   7.177   0.606   5.399  0.1161 -0.4325  0.1956
  118MOL   O19126165   7.184   0.543   5.297 -0.2594 -0.1410 -0.8172
  118MOL   C19226166   7.195   0.753   5.392 -0.1906 -0.1158 -0.0464
  118MOL   C19326167   7.324   0.526   5.583  0.7629  0.2623  0.1215
  118MOL   H19426168   7.131   0.597   5.612  2.1909  0.8783  1.1500
  118MOL   H19526169   7.233   0.781   5.491 -2.8089 -1.4817  1.4170
  118MOL   H19626170   7.270   0.772   5.316  0.8616  0.1385  1.0463
  118MOL   H19726171   7.106   0.816   5.382  0.1492  0.9558  2.9808
  118MOL   H19826172   7.376   0.622   5.576  1.3051  0.0580  1.1255
  118MOL   H19926173   7.382   0.463   5.515 -0.3271  0.7862 -1.3033
  118MOL   C20026174   7.353   0.478   5.731 -0.1551 -0.6140  0.1015
  118MOL   C20126175   7.296   0.576   5.832  0.3038 -0.3176 -0.3377
  118MOL   O20226176   7.254   0.683   5.805  0.3382 -0.1735 -0.3239
  118MOL   C20326177   7.310   0.540   5.979  0.1323  0.2978 -0.0428
  118MOL   C20426178   7.497   0.436   5.757  0.1367  0.1911 -0.2978
  118MOL   H20526179   7.303   0.384   5.754  0.2335 -1.1683 -1.2909
  118MOL   H20626180   7.412   0.521   6.013 -0.0803 -2.5480 -0.8387
  118MOL   H20726181   7.256   0.606   6.047  1.5706  1.3017  0.1596
  118MOL   H20826182   7.248   0.452   5.997  0.1992 -0.0961 -1.7296
  118MOL   H20926183   7.514   0.353   5.688 -0.4625  1.2353 -1.7296
  118MOL   H21026184   7.505   0.390   5.855  1.1664  0.4011 -0.2819
  118MOL   C21126185   7.619   0.526   5.742  0.2483  1.3096 -0.3566
  118MOL   C21226186   7.750   0.444   5.738 -0.1219 -0.4605  0.5820
  118MOL   O21326187   7.761   0.325   5.769  0.7344  0.0689  0.0694
  118MOL   C21426188   0.034   0.521   5.694  0.1169  0.5753 -0.1709
  118MOL   C21526189   7.620   0.647   5.836  0.3799 -0.0855 -0.8755
  118MOL   H21626190   7.619   0.566   5.640  1.0810 -0.7637 -1.2001
  118MOL   H21726191   0.108   0.446   5.666  0.1591  0.1216  1.1234
  118MOL   H21826192   0.012   0.586   5.609 -1.5415  1.5889  1.0158
  118MOL   H21926193   0.069   0.578   5.779 -1.1704 -1.8965  2.1028
  118MOL   H22026194   7.710   0.706   5.817  1.6530 -1.8081 -0.3381
  118MOL   H22126195   7.629   0.616   5.940  1.0102  4.5095  0.5581
  118MOL   H22226196   7.531   0.709   5.840  2.4654  2.9941 -0.7294
  119MOL     C126197   5.102   1.924   6.495  0.5399 -0.0102  0.1793
  119MOL     C226198   5.213   1.828   6.466  0.1342 -0.3983  0.0867
  119MOL     O326199   5.257   1.819   6.351  0.2325 -0.3221 -0.3905
  119MOL     C426200   5.295   1.765   6.579 -0.2638 -0.6871  0.0364
  119MOL     C526201   5.124   2.063   6.424 -0.9368  0.3460 -0.1609
  119MOL     H626202   5.005   1.879   6.475 -0.5287  1.5922  1.6293
  119MOL     H726203   5.232   1.703   6.643 -0.2954 -0.9661 -0.2645
  119MOL     H826204   5.378   1.706   6.539 -0.1556 -0.3684 -0.2150
  119MOL     H926205   5.342   1.831   6.651 -1.1359 -1.0652  0.9626
  119MOL    H1026206   5.039   2.130   6.436 -1.5436 -0.3146 -0.7424
  119MOL    H1126207   5.115   2.052   6.315 -0.3357  0.2962 -0.2066
  119MOL    H1226208   5.096   1.947   6.601 -1.7995  0.2648  0.0136
  119MOL    C1326209   5.252   2.149   6.455  0.5323  0.8364  0.5950
  119MOL    C1426210   5.246   2.199   6.605  0.3692  1.1327  0.1670
  119MOL    O1526211   5.137   2.205   6.666 -0.3181 -0.3240  0.1272
  119MOL    C1626212   5.381   2.220   6.683 -0.8131  0.4307 -0.1941
  119MOL    C1726213   5.263   2.263   6.354  0.0429 -0.2100  0.1987
  119MOL    H1826214   5.337   2.083   6.440  0.7708  0.7650  2.2335
  119MOL    H1926215   5.456   2.158   6.634 -2.7778 -1.2976 -1.0488
  119MOL    H2026216   5.421   2.321   6.694  0.1263  0.0288  0.1128
  119MOL    H2126217   5.371   2.186   6.786 -0.3816 -1.4796 -0.7605
  119MOL    H2226218   5.184   2.335   6.377 -0.2011 -1.1638  2.5537
  119MOL    H2326219   5.258   2.230   6.251  1.0975  0.9249 -0.2240
  119MOL    C2426220   5.402   2.337   6.357  0.0340  0.4140 -0.6164
  119MOL    C2526221   5.390   2.491   6.345  0.1427 -0.3934  0.9292
  119MOL    O2626222   5.381   2.549   6.238 -0.3828  0.3739  0.5552
  119MOL    C2726223   5.395   2.583   6.466  0.0651 -0.0903 -0.1938
  119MOL    C2826224   5.509   2.279   6.264 -0.4583  0.7519  1.1830
  119MOL    H2926225   5.429   2.325   6.462 -3.2400  0.3085  0.2837
  119MOL    H3026226   5.298   2.631   6.478 -0.0511  0.0895 -1.8159
  119MOL    H3126227   5.412   2.521   6.554 -0.8317 -3.1104 -2.0618
  119MOL    H3226228   5.473   2.659   6.461  1.2763 -1.2966  0.2120
  119MOL    H3326229   5.485   2.305   6.161 -0.1724 -0.7115  0.7302
  119MOL    H3426230   5.497   2.170   6.256 -2.5258  0.8736  2.3086
  119MOL    C3526231   5.663   2.315   6.293 -0.0356  0.5100 -0.0423
  119MOL    C3626232   5.746   2.297   6.167  0.4759  0.3384  0.2388
  119MOL    O3726233   5.776   2.182   6.132 -0.5135 -0.2878 -0.0383
  119MOL    C3826234   5.789   2.417   6.092  0.0607  0.6621  0.4490
  119MOL    C3926235   5.712   2.254   6.424  0.0985 -0.3688 -0.2571
  119MOL    H4026236   5.658   2.423   6.305 -0.3661  0.6309 -1.2489
  119MOL    H4126237   5.792   2.385   5.988  1.7682 -0.8147  0.9411
  119MOL    H4226238   5.704   2.483   6.114 -0.8895 -0.1003 -0.8549
  119MOL    H4326239   5.887   2.456   6.120 -1.5416  3.4344  2.5878
  119MOL    H4426240   5.709   2.145   6.414  2.3957 -0.5324  0.5517
  119MOL    H4526241   5.651   2.280   6.510  0.8127  1.1624 -0.2014
  119MOL    C4626242   5.858   2.305   6.473  0.4756 -0.1897  0.1766
  119MOL    C4726243   5.854   2.458   6.513 -0.1621  1.0944 -0.1317
  119MOL    O4826244   5.790   2.543   6.454  0.4904 -0.4164  0.0069
  119MOL    C4926245   5.948   2.492   6.626  0.2325 -0.1707  0.1846
  119MOL    C5026246   5.979   2.258   6.384 -0.0392 -0.2763  0.2181
  119MOL    H5126247   5.867   2.251   6.567 -1.3616  0.5348  0.7904
  119MOL    H5226248   5.932   2.592   6.666  2.8293 -0.6339  2.5264
  119MOL    H5326249   5.938   2.419   6.706 -2.0013  0.1895  0.2662
  119MOL    H5426250   6.048   2.492   6.582 -0.2006  2.6955 -0.9540
  119MOL    H5526251   5.998   2.352   6.332  0.4065 -0.3203  0.2943
  119MOL    H5626252   5.960   2.174   6.317  1.4338 -0.6007  0.1861
  119MOL    C5726253   6.097   2.219   6.476 -0.3531  0.6175 -0.5689
  119MOL    C5826254   6.226   2.221   6.391 -0.3771 -0.5973  0.2836
  119MOL    O5926255   6.306   2.318   6.399 -0.1934  0.6052  0.8044
  119MOL    C6026256   6.262   2.098   6.308  0.3240 -0.7402 -0.6550
  119MOL    C6126257   6.077   2.081   6.557 -0.0740 -0.5505  0.7736
  119MOL    H6226258   6.112   2.288   6.560 -0.4844  0.4194 -0.3822
  119MOL    H6326259   6.338   2.040   6.361 -0.6210  0.1039  1.6814
  119MOL    H6426260   6.165   2.051   6.292 -1.0509  0.5123  3.2284
  119MOL    H6526261   6.316   2.125   6.218  1.1190 -1.9859 -0.5561
  119MOL    H6626262   6.117   1.996   6.501  0.1103 -1.0224  1.6104
  119MOL    H6726263   5.971   2.060   6.545  0.0722 -0.7632 -0.2070
  119MOL    C6826264   6.120   2.074   6.707  0.1498  0.1506  0.6647
  119MOL    C6926265   6.269   2.047   6.718  0.0107 -0.0964  0.0881
  119MOL    O7026266   6.348   2.043   6.620 -0.0321 -0.2346 -1.2335
  119MOL    C7126267   6.321   2.009   6.852 -0.6797 -0.0631  0.1347
  119MOL    C7226268   6.037   1.965   6.786 -0.4951 -0.6965 -0.1382
  119MOL    H7326269   6.102   2.170   6.756 -0.2720 -0.7622  2.3221
  119MOL    H7426270   6.276   1.917   6.891 -3.7080  0.6586 -1.5218
  119MOL    H7526271   6.428   1.997   6.834  0.0805  2.9128  2.3872
  119MOL    H7626272   6.308   2.084   6.929  1.5965  0.2713  0.2435
  119MOL    H7726273   6.078   1.953   6.886 -0.1851 -1.5841 -0.3685
  119MOL    H7826274   6.057   1.874   6.729  0.1260 -0.3500 -0.4713
  119MOL    C7926275   5.883   2.003   6.801 -0.7516 -0.3236 -0.2446
  119MOL    C8026276   5.860   2.139   6.863  1.0068 -0.0344  0.5829
  119MOL    O8126277   5.782   2.220   6.811  0.6999 -0.3530  0.4472
  119MOL    C8226278   5.924   2.178   6.992  0.4340  0.4872  0.8554
  119MOL    C8326279   5.799   1.890   6.876 -0.0648  0.1126 -0.1113
  119MOL    H8426280   5.856   2.009   6.696 -0.5092  1.7649 -0.2190
  119MOL    H8526281   5.852   2.228   7.057 -2.0624 -1.0318 -0.6874
  119MOL    H8626282   5.964   2.087   7.038 -1.2600  0.4348  2.2761
  119MOL    H8726283   5.999   2.255   6.975 -0.5438  1.6354  1.6446
  119MOL    H8826284   5.805   1.901   6.984  1.7255 -3.1902  0.1951
  119MOL    H8926285   5.848   1.798   6.843 -0.7387 -0.7519  1.2581
  119MOL    C9026286   5.648   1.870   6.829  0.1437 -0.4083 -0.3524
  119MOL    C9126287   5.621   1.872   6.677 -0.1805  0.1914 -0.6181
  119MOL    O9226288   5.559   1.961   6.616 -0.0618  0.1768 -0.5288
  119MOL    C9326289   5.673   1.754   6.593 -0.2881 -0.3007  0.3753
  119MOL    C9426290   5.547   1.963   6.899  0.2258  0.2014 -0.3217
  119MOL    H9526291   5.622   1.769   6.862  2.6117 -1.4348 -1.4192
  119MOL    H9626292   5.623   1.662   6.622 -0.7324 -0.5496 -1.1317
  119MOL    H9726293   5.644   1.778   6.491 -1.1188 -1.0380  0.4356
  119MOL    H9826294   5.781   1.741   6.599 -0.3162 -0.5981  0.2488
  119MOL    H9926295   5.449   1.961   6.853  0.6689  2.4550 -1.4141
  119MOL   H10026296   5.586   2.063   6.880  2.3203 -0.7386 -1.2804
  119MOL   C10126297   5.540   1.925   7.052 -0.0011  0.0574  0.2128
  119MOL   C10226298   5.430   1.816   7.085  0.5749  0.3572 -0.5415
  119MOL   O10326299   5.467   1.711   7.132 -0.3017 -0.0786 -0.4539
  119MOL   C10426300   5.273   1.845   7.059 -0.0599  0.2044 -0.2735
  119MOL   C10526301   5.516   2.051   7.137  0.2975  0.4524 -0.3566
  119MOL   H10626302   5.632   1.878   7.088 -1.3450 -0.5022  3.0528
  119MOL   H10726303   5.266   1.927   6.987 -0.9896 -1.0599 -1.6609
  119MOL   H10826304   5.223   1.755   7.024  2.0224 -0.6163 -1.2566
  119MOL   H10926305   5.222   1.869   7.152  1.5311  0.3813  0.5708
  119MOL   H11026306   5.418   2.084   7.104  0.5877 -1.3152 -3.0846
  119MOL   H11126307   5.580   2.137   7.118 -0.6514  1.4378  0.7460
  119MOL   C11226308   5.526   2.031   7.293 -1.1361  0.3196 -0.2877
  119MOL   C11326309   5.386   2.007   7.358  0.1477 -0.2053 -0.2473
  119MOL   O11426310   5.351   1.897   7.404 -0.6940  0.4298 -0.4079
  119MOL   C11526311   5.278   2.122   7.369 -0.6158  0.2514  0.4545
  119MOL   C11626312   5.613   2.142   7.357 -0.3712 -0.1205  0.3695
  119MOL   H11726313   5.590   1.944   7.310  2.2356  2.6197 -0.7959
  119MOL   H11826314   5.176   2.099   7.341 -0.3419 -0.3073 -0.0783
  119MOL   H11926315   5.277   2.149   7.475  1.3007  0.9567  0.3195
  119MOL   H12026316   5.301   2.209   7.308  0.9063 -0.3647  0.1094
  119MOL   H12126317   5.553   2.233   7.358  0.9610  0.7841  0.9688
  119MOL   H12226318   5.700   2.157   7.292 -0.3173 -0.8045  0.2868
  119MOL   C12326319   5.677   2.106   7.494 -0.6290  0.2131 -0.1541
  119MOL   C12426320   5.580   2.080   7.610 -0.3211  0.6468 -0.9552
  119MOL   O12526321   5.498   2.162   7.645  0.5141  0.0194  0.4947
  119MOL   C12626322   5.586   1.950   7.683 -0.5981  0.8688  0.0877
  119MOL   C12726323   5.787   2.212   7.534  0.1375 -0.2452 -0.9209
  119MOL   H12826324   5.730   2.010   7.486 -0.1440  0.2576  2.0721
  119MOL   H12926325   5.635   1.877   7.618 -2.5601  1.1613 -1.8011
  119MOL   H13026326   5.649   1.962   7.771 -0.4077 -1.8694  0.3491
  119MOL   H13126327   5.491   1.906   7.712 -0.2530 -0.8236 -1.2422
  119MOL   H13226328   5.853   2.205   7.448 -1.6117 -1.2709 -2.2044
  119MOL   H13326329   5.846   2.180   7.621 -1.9058  0.8530  0.9292
  119MOL   C13426330   5.729   2.354   7.555  0.5679 -0.4625 -0.1337
  119MOL   C13526331   5.825   2.450   7.486 -0.1329 -0.0971  0.9507
  119MOL   O13626332   5.944   2.441   7.504  0.0119  0.1047 -0.2425
  119MOL   C13726333   5.758   2.559   7.403 -0.2088 -0.6696 -0.6304
  119MOL   C13826334   5.688   2.403   7.697  0.0611  0.0596  0.1558
  119MOL   H13926335   5.634   2.365   7.501 -1.4453  0.3347  3.4142
  119MOL   H14026336   5.699   2.519   7.321  0.6110  0.4408 -1.7757
  119MOL   H14126337   5.682   2.602   7.469 -0.2007  0.1448 -1.1451
  119MOL   H14226338   5.824   2.644   7.389 -1.7681  0.5156 -0.8862
  119MOL   H14326339   5.601   2.345   7.729 -1.4269  0.8299 -2.3655
  119MOL   H14426340   5.628   2.491   7.674 -0.2421 -0.4179 -0.9352
  119MOL   C14526341   5.798   2.434   7.804 -0.2593 -0.4625 -0.1705
  119MOL   C14626342   5.865   2.305   0.025 -0.2938  0.1071 -0.2285
  119MOL   O14726343   5.987   2.298   0.031  0.5206  0.1818  0.5317
  119MOL   C14826344   5.791   2.180   0.065 -0.0426 -0.2721 -0.4402
  119MOL   C14926345   5.725   2.510   0.077 -0.3736  0.3710 -0.2331
  119MOL   H15026346   5.889   2.487   7.777  0.6016 -1.3578  0.9067
  119MOL   H15126347   5.805   2.167   0.173 -0.1085  1.8111 -0.1613
  119MOL   H15226348   5.685   2.191   0.039 -0.5475  0.1229  1.6294
  119MOL   H15326349   5.839   2.102   0.006  1.1895 -0.6744  1.0613
  119MOL   H15426350   5.800   2.525   0.154 -1.5833  3.6567  0.3812
  119MOL   H15526351   5.643   2.449   0.114 -0.7915  0.8377 -0.3768
  119MOL   C15626352   5.655   2.651   0.045 -0.3283  0.4716 -0.5284
  119MOL   C15726353   5.756   2.734   7.804 -0.0592 -0.4739  0.5683
  119MOL   O15826354   5.733   2.761   7.689  0.2312 -0.5566 -1.0457
  119MOL   C15926355   5.892   2.776   0.032  0.1655 -1.2779 -0.4713
  119MOL   C16026356   5.613   2.733   0.171  0.1154  0.1523  0.0718
  119MOL   H16126357   5.566   2.638   7.825 -0.2215 -0.4174 -0.4897
  119MOL   H16226358   5.890   2.723   0.127 -2.0849 -0.6005 -0.1103
  119MOL   H16326359   5.981   2.753   7.816  0.0667 -2.2641 -0.2409
  119MOL   H16426360   5.880   2.881   0.058  0.0861 -0.6874 -2.7954
  119MOL   H16526361   5.705   2.763   0.223  1.3932 -1.6472 -1.0971
  119MOL   H16626362   5.552   2.667   0.233  1.2592 -0.1394  0.9068
  119MOL   C16726363   5.519   2.863   0.139 -0.2998  1.2030 -0.5215
  119MOL   C16826364   5.529   2.977   0.240  0.7601 -0.0672  0.1847
  119MOL   O16926365   5.550   3.092   0.198 -0.6866  0.4696 -0.6500
  119MOL   C17026366   5.546   2.946   0.389  0.1766 -0.2486  0.0315
  119MOL   C17126367   5.369   2.826   0.126  0.5223 -0.2783 -0.1982
  119MOL   H17226368   5.532   2.892   0.035 -2.3125 -2.4633 -1.8722
  119MOL   H17326369   5.461   2.886   0.422 -1.2566  1.1389 -1.0323
  119MOL   H17426370   5.638   2.893   0.414  0.9534 -0.3991 -2.9267
  119MOL   H17526371   5.522   3.034   0.449 -0.8823 -0.0711 -0.6233
  119MOL   H17626372   5.310   2.910   0.161 -1.9211 -1.9968 -0.0610
  119MOL   H17726373   5.338   2.750   0.198  0.4491  1.1157  1.2489
  119MOL   C17826374   5.321   2.797   7.821  0.4103 -0.5277  0.0307
  119MOL   C17926375   5.323   2.913   7.724 -0.1103  0.4139 -0.1481
  119MOL   O18026376   5.221   2.970   7.700  0.1359 -0.6468  0.1792
  119MOL   C18126377   5.460   2.958   7.665  0.1520  0.1637 -0.1554
  119MOL   C18226378   5.184   2.718   7.814 -0.2161  0.4012  0.3047
  119MOL   H18326379   5.399   2.734   7.780 -0.0229 -2.4471  2.0388
  119MOL   H18426380   5.524   3.022   7.726 -1.8363  1.5854  0.4904
  119MOL   H18526381   5.523   2.870   7.650  2.1770  1.5400 -0.0115
  119MOL   H18626382   5.439   3.006   7.569 -3.2886 -0.5854  0.1704
  119MOL   H18726383   5.143   2.706   7.713 -0.7384  0.6302  0.4881
  119MOL   H18826384   5.119   2.788   0.024 -0.1146 -0.1484  1.1793
  119MOL   C18926385   5.178   2.571   0.031 -0.6882 -0.0376  0.4377
  119MOL   C19026386   5.265   2.476   7.784 -0.0668  1.5127 -0.0786
  119MOL   O19126387   5.305   2.515   7.673  0.0855 -0.2195 -0.4613
  119MOL   C19226388   5.318   2.342   7.840 -0.4534 -0.2429  0.0837
  119MOL   C19326389   5.035   2.526   0.042 -0.3494 -0.4705 -0.0140
  119MOL   H19426390   5.231   2.573   0.126 -1.4857  0.7060  0.8749
  119MOL   H19526391   5.419   2.357   0.034 -0.3438 -2.2617  0.6477
  119MOL   H19626392   5.261   2.319   0.088 -2.7399 -2.5904 -1.8631
  119MOL   H19726393   5.313   2.263   7.765  2.3180 -0.4731  0.0870
  119MOL   H19826394   5.035   2.423   0.006  0.7428  0.2083 -2.0628
  119MOL   H19926395   4.978   2.596   7.822  1.8490  2.0850  0.7546
  119MOL   C20026396   4.959   2.531   0.166  0.1258  0.0785  0.5861
  119MOL   C20126397   4.828   2.451   0.162  0.4109 -0.2482 -0.6432
  119MOL   O20226398   4.718   2.507   0.173 -0.1725 -0.1438  0.5408
  119MOL   C20326399   4.830   2.301   0.149  0.0300  1.2221 -0.0494
  119MOL   C20426400   4.940   2.679   0.215 -0.0628  0.6105  0.1850
  119MOL   H20526401   5.015   2.470   0.237  0.3308  1.0583  1.2881
  119MOL   H20626402   4.924   2.250   0.127 -1.5391 -0.9458 -1.9112
  119MOL   H20726403   4.816   2.265   0.251  2.4199  0.0308 -0.1100
  119MOL   H20826404   4.760   2.261   0.077  0.4993 -1.5564  0.9851
  119MOL   H20926405   4.884   2.722   0.132  0.1660 -0.8337 -0.7351
  119MOL   H21026406   5.040   2.722   0.203 -0.2027  0.7728 -0.3936
  119MOL   C21126407   4.872   2.708   0.351 -0.0481  0.2581  0.6707
  119MOL   C21226408   4.860   2.864   0.369  0.2914 -0.7441  0.0795
  119MOL   O21326409   4.761   2.924   0.332 -0.3848  0.1511  0.0858
  119MOL   C21426410   4.984   2.935   0.422 -0.1964  0.4544  0.3352
  119MOL   C21526411   4.938   2.633   0.472  0.4083  0.0539 -0.9663
  119MOL   H21626412   4.771   2.667   0.344  0.3346 -0.5156 -0.2965
  119MOL   H21726413   4.962   3.042   0.421  0.3660  0.5646 -1.6162
  119MOL   H21826414   4.991   2.904   0.526 -0.9372 -0.5901  0.0775
  119MOL   H21926415   5.078   2.907   0.374  0.2286  2.0220  0.2085
  119MOL   H22026416   4.898   2.532   0.485 -2.0572  0.7612 -2.5806
  119MOL   H22126417   4.923   2.676   0.571  0.3906 -0.5752 -0.6948
  119MOL   H22226418   5.045   2.627   0.455  0.4880 -0.1361 -0.4033
  120MOL     C126419   4.733   7.306   4.724 -0.6330 -0.3364 -0.1163
  120MOL     C226420   4.820   7.406   4.798  0.3395  0.4801 -0.3962
  120MOL     O326421   4.942   7.415   4.790  0.4058 -0.4406  0.1407
  120MOL     C426422   4.755   7.483   4.913 -0.2109  0.5713  0.5172
  120MOL     C526423   4.818   7.231   4.619 -0.6767  0.5283  0.0869
  120MOL     H626424   4.683   7.233   4.788 -0.9030 -0.7959 -0.8366
  120MOL     H726425   4.662   7.527   4.878 -0.7758 -1.0867 -0.1260
  120MOL     H826426   4.740   7.426   5.005 -0.0889 -0.0971  0.1301
  120MOL     H926427   4.818   7.569   4.935  0.5532  0.4807 -1.2432
  120MOL    H1026428   4.900   7.182   4.673 -2.5160 -0.1080  2.3693
  120MOL    H1126429   4.865   7.287   4.538  0.4676 -0.7174 -0.1328
  120MOL    H1226430   4.649   7.355   4.676  0.5527  0.6136 -1.2317
  120MOL    C1326431   4.736   7.114   4.552  0.5563  0.4554 -0.5089
  120MOL    C1426432   4.814   7.003   4.499  0.5516 -0.0803 -0.1301
  120MOL    O1526433   4.810   6.975   4.381 -0.0371  0.2337  0.1254
  120MOL    C1626434   4.921   6.941   4.592 -0.3896  0.8961  0.0285
  120MOL    C1726435   4.631   7.162   4.452  0.2872  0.1597 -0.0549
  120MOL    H1826436   4.681   7.068   4.634 -0.9841 -1.0807 -2.3523
  120MOL    H1926437   4.915   6.832   4.596  2.3110  0.6937 -0.6240
  120MOL    H2026438   5.020   6.956   4.548 -0.6739 -0.6555 -1.1519
  120MOL    H2126439   4.916   6.966   4.698  0.5932 -0.9971  0.5376
  120MOL    H2226440   4.661   7.166   4.348  0.4548 -0.7502 -0.0454
  120MOL    H2326441   4.618   7.268   4.476 -0.8418 -0.0957  0.5182
  120MOL    C2426442   4.482   7.097   4.449 -0.4658  0.8023  0.4795
  120MOL    C2526443   4.422   7.082   4.593  0.7465  1.0344 -0.2967
  120MOL    O2626444   4.472   7.006   4.675 -0.2006  0.1406 -0.9270
  120MOL    C2726445   4.292   7.167   4.621  0.1475 -0.3349  0.3045
  120MOL    C2826446   4.490   6.962   4.372 -0.1962 -0.0300 -0.4734
  120MOL    H2926447   4.423   7.169   4.391  1.4880  2.1057  0.0423
  120MOL    H3026448   4.308   7.261   4.674  0.2347 -0.3340  0.2750
  120MOL    H3126449   4.261   7.207   4.525  1.8124 -0.4878 -0.3246
  120MOL    H3226450   4.211   7.109   4.665  1.6177 -1.4295  1.6305
  120MOL    H3326451   4.560   6.898   4.426 -1.2544  1.3199  2.6032
  120MOL    H3426452   4.537   6.976   4.275 -1.7525  1.7454 -1.0022
  120MOL    C3526453   4.356   6.881   4.349  0.2781  0.9769  0.4907
  120MOL    C3626454   4.378   6.736   4.310  0.3313 -0.2887 -0.2152
  120MOL    O3726455   4.363   6.698   4.192 -0.0629 -0.1911  0.1244
  120MOL    C3826456   4.422   6.647   4.424 -0.5929  0.2567  0.1187
  120MOL    C3926457   4.272   6.952   4.233 -0.8678 -0.8975 -0.5394
  120MOL    H4026458   4.303   6.878   4.444 -0.9048 -0.0197 -0.1870
  120MOL    H4126459   4.382   6.670   4.523 -0.1504 -0.2339  0.4107
  120MOL    H4226460   4.398   6.544   4.401  0.0043  0.6013 -2.1486
  120MOL    H4326461   4.529   6.645   4.443 -0.7301  0.4146  0.9192
  120MOL    H4426462   4.333   6.951   4.143 -0.8445  1.6246 -0.5804
  120MOL    H4526463   4.271   7.060   4.245 -1.5605 -0.6110 -3.0548
  120MOL    C4626464   4.131   6.909   4.201 -0.0247 -0.3585 -0.1487
  120MOL    C4726465   4.079   6.968   4.071 -0.1264 -0.4307 -0.0715
  120MOL    O4826466   4.042   6.895   3.980 -0.8600 -0.2664  0.2941
  120MOL    C4926467   4.062   7.119   4.057 -0.2832 -0.3205 -0.3037
  120MOL    C5026468   4.035   6.939   4.317  0.4968 -0.0512 -0.1881
  120MOL    H5126469   4.137   6.800   4.194  0.8869 -0.2622 -1.0259
  120MOL    H5226470   4.130   7.180   4.117 -1.1843  1.3886 -0.9785
  120MOL    H5326471   4.061   7.159   3.956 -1.9339  2.3666  0.7059
  120MOL    H5426472   3.959   7.146   4.081 -0.8344 -1.9505 -0.7755
  120MOL    H5526473   4.031   7.043   4.347  0.3751 -0.0869 -0.0769
  120MOL    H5626474   4.069   6.887   4.407 -2.4738  0.4529  1.3123
  120MOL    C5726475   3.888   6.894   4.301  0.0753 -0.2425  0.3148
  120MOL    C5826476   3.802   6.980   4.398  0.1422  0.0146 -0.1078
  120MOL    O5926477   3.766   6.935   4.511 -0.0108 -0.1673 -0.0791
  120MOL    C6026478   3.751   7.105   4.341 -0.7600  0.0400  0.2870
  120MOL    C6126479   3.862   6.746   4.295 -0.0865 -0.3366 -0.7140
  120MOL    H6226480   3.862   6.926   4.200  2.8495 -1.5115 -0.8493
  120MOL    H6326481   3.690   7.096   4.251 -0.6699 -1.5787  0.3818
  120MOL    H6426482   3.692   7.147   4.423  0.4815 -1.0115  1.7270
  120MOL    H6526483   3.840   7.168   4.334 -0.2518 -0.8325 -1.3512
  120MOL    H6626484   3.864   6.699   4.393 -2.1030 -0.1625 -0.5769
  120MOL    H6726485   3.956   6.702   4.260  0.6415  1.3706 -0.9641
  120MOL    C6826486   3.751   6.686   4.199  0.0114  0.7648 -0.3216
  120MOL    C6926487   3.623   6.770   4.183  0.5956 -0.0979  0.0188
  120MOL    O7026488   3.540   6.761   4.276 -0.8778 -0.4931 -0.2721
  120MOL    C7126489   3.588   6.835   4.050 -0.2145 -0.2528 -0.5630
  120MOL    C7226490   3.721   6.537   4.234  0.6376 -0.8349  0.0599
  120MOL    H7326491   3.785   6.679   4.095  0.3377  0.4352 -0.1971
  120MOL    H7426492   3.510   6.911   4.053 -0.6528 -0.7448  0.8203
  120MOL    H7526493   3.675   6.891   4.016 -0.4511 -0.3146 -1.2816
  120MOL    H7626494   3.567   6.749   3.987 -1.3242 -0.4679  0.0871
  120MOL    H7726495   3.631   6.510   4.178 -1.2655  0.9333  2.1072
  120MOL    H7826496   3.687   6.534   4.338 -1.7498 -2.3609 -0.7298
  120MOL    C7926497   3.831   6.433   4.201  0.4748  0.2316  0.3495
  120MOL    C8026498   3.772   6.310   4.126 -0.9590  0.1652 -0.9769
  120MOL    O8126499   3.711   6.226   4.188 -0.0761 -0.7328  0.3988
  120MOL    C8226500   3.795   6.301   3.975 -0.3507 -0.1846 -0.1841
  120MOL    C8326501   3.922   6.388   4.313 -0.1550 -0.4928 -0.1033
  120MOL    H8426502   3.891   6.470   4.118 -0.2417  2.2192  0.7038
  120MOL    H8526503   3.806   6.400   3.930  1.3379  0.2109  1.0445
  120MOL    H8626504   3.879   6.236   3.951 -0.2031 -0.4621  1.0181
  120MOL    H8726505   3.717   6.250   3.919  0.2741 -1.4182  0.0450
  120MOL    H8826506   3.867   6.309   4.364  0.6240  0.6711  2.6329
  120MOL    H8926507   3.929   6.465   4.390 -0.8933 -0.4253 -0.1015
  120MOL    C9026508   4.053   6.327   4.265 -0.3088 -0.3855 -0.8923
  120MOL    C9126509   4.102   6.224   4.357  1.2509 -0.3761 -0.2388
  120MOL    O9226510   4.168   6.258   4.456  0.0245  0.2477  0.0367
  120MOL    C9326511   4.076   6.079   4.336 -0.5954 -0.5923 -0.2875
  120MOL    C9426512   4.160   6.424   4.222 -0.3684 -0.4083  0.3580
  120MOL    H9526513   4.031   6.273   4.173 -2.4860 -2.3311  0.7040
  120MOL    H9626514   4.089   6.047   4.232 -3.3150 -0.4692 -0.7079
  120MOL    H9726515   4.149   6.016   4.386  0.7452  0.3782 -0.9770
  120MOL    H9826516   3.974   6.056   4.368 -0.4811 -1.7927 -0.7642
  120MOL    H9926517   4.242   6.438   4.292  0.8613  1.6357 -1.4400
  120MOL   H10026518   4.107   6.519   4.222 -0.6384 -0.5449 -1.5514
  120MOL   C10126519   4.237   6.406   4.094 -0.3039  0.1163 -0.1713
  120MOL   C10226520   4.160   6.463   3.978  0.3765  0.2831 -0.4771
  120MOL   O10326521   4.067   6.397   3.926  0.5838 -0.1417  0.3902
  120MOL   C10426522   4.185   6.596   3.924 -0.7154  0.0212  0.6874
  120MOL   C10526523   4.301   6.268   4.068 -0.0195  0.1907  0.4277
  120MOL   H10626524   4.319   6.473   4.118 -1.3452  0.9937  1.0208
  120MOL   H10726525   4.113   6.676   3.944 -0.4799  0.5968 -0.6679
  120MOL   H10826526   4.282   6.628   3.962  0.5971 -1.5709 -1.2352
  120MOL   H10926527   4.200   6.595   3.816 -0.9285 -0.1850  0.6585
  120MOL   H11026528   4.325   6.253   3.963 -2.7236 -1.5390  0.0012
  120MOL   H11126529   4.225   6.194   4.094  0.0980 -0.0705  0.0191
  120MOL   C11226530   4.433   6.227   4.158 -0.3000 -0.4391 -0.1866
  120MOL   C11326531   4.538   6.339   4.147 -0.2212  0.4182  0.0702
  120MOL   O11426532   4.593   6.388   4.248  0.7370 -0.5599 -0.3978
  120MOL   C11526533   4.574   6.382   4.013  0.3446  0.3144 -0.2848
  120MOL   C11626534   4.500   6.094   4.128  0.1703 -0.2384  0.0403
  120MOL   H11726535   4.395   6.232   4.260 -0.8882 -2.4096 -0.3016
  120MOL   H11826536   4.681   6.396   4.001  0.1124  0.8876 -1.6992
  120MOL   H11926537   4.540   6.306   3.942 -0.6832  1.2113 -0.7623
  120MOL   H12026538   4.525   6.479   4.015 -0.6268 -0.1656 -0.3346
  120MOL   H12126539   4.512   6.075   4.022 -0.8780  2.4539 -0.5816
  120MOL   H12226540   4.433   6.010   4.149 -2.3051  1.8053  0.5313
  120MOL   C12326541   4.628   6.066   4.206 -0.7704 -0.5540  0.1920
  120MOL   C12426542   4.692   5.943   4.146  0.8717 -0.6207  0.3078
  120MOL   O12526543   4.811   5.949   4.119  0.3080  0.7195  0.2500
  120MOL   C12626544   4.612   5.816   4.146  0.6350 -0.1795 -0.2750
  120MOL   C12726545   4.605   6.041   4.355 -0.0842 -1.3798 -0.2710
  120MOL   H12826546   4.702   6.145   4.194 -1.5890  0.2219  0.2654
  120MOL   H12926547   4.530   5.829   4.075 -0.6768  3.0791  1.6770
  120MOL   H13026548   4.675   5.732   4.117  0.7400  0.3831 -1.6917
  120MOL   H13126549   4.571   5.806   4.247  1.4265 -1.0015 -0.0340
  120MOL   H13226550   4.537   5.958   4.369 -0.6783 -0.6619  1.2288
  120MOL   H13326551   4.532   6.120   4.375  1.2498 -0.4545  1.0144
  120MOL   C13426552   4.728   6.047   4.442 -0.6678 -0.0099 -0.3938
  120MOL   C13526553   4.695   5.991   4.581  0.4868  0.1009  0.1833
  120MOL   O13626554   4.599   6.021   4.659  0.0464  0.8228  0.0840
  120MOL   C13726555   4.796   5.886   4.631 -0.5793  0.4030 -0.5807
  120MOL   C13826556   4.784   6.194   4.455  0.1231  0.3985 -0.9355
  120MOL   H13926557   4.801   5.990   4.384  1.6153  0.2182  2.1685
  120MOL   H14026558   4.890   5.880   4.577 -1.2731 -1.2772 -1.6563
  120MOL   H14126559   4.812   5.899   4.738 -1.9137  1.7886 -0.5254
  120MOL   H14226560   4.737   5.795   4.621 -0.6193  0.4885 -1.1123
  120MOL   H14326561   4.757   6.234   4.553 -0.1569 -1.8111 -0.0615
  120MOL   H14426562   4.748   6.262   4.378 -0.7142  1.9260  0.7686
  120MOL   C14526563   4.940   6.189   4.465  0.0313  0.0844 -0.4133
  120MOL   C14626564   5.004   6.140   4.597  0.6053  0.6880 -0.7560
  120MOL   O14726565   4.939   6.153   4.706  0.4570  0.0067 -0.0847
  120MOL   C14826566   5.132   6.067   4.603 -0.7190  0.1901  0.1136
  120MOL   C14926567   5.014   6.320   4.435  0.2471 -0.4217  0.5410
  120MOL   H15026568   4.984   6.115   4.398 -0.6671  0.0578 -0.8359
  120MOL   H15126569   5.160   6.056   4.707 -1.9391  0.5919  0.4891
  120MOL   H15226570   5.117   5.968   4.561  2.6738 -0.3041 -0.1025
  120MOL   H15326571   5.206   6.125   4.547 -0.2114  0.9171  1.5163
  120MOL   H15426572   5.119   6.309   4.462  1.0348  0.3172 -2.0450
  120MOL   H15526573   4.970   6.392   4.503  0.8008  1.4054 -0.9916
  120MOL   C15626574   4.993   6.373   4.285 -0.0691  0.3321  0.4936
  120MOL   C15726575   5.053   6.283   4.175 -0.8974 -0.1956  0.0970
  120MOL   O15826576   5.157   6.221   4.186  0.0215 -0.5157 -0.3325
  120MOL   C15926577   4.970   6.270   4.047 -0.2587 -0.6180 -0.2331
  120MOL   C16026578   5.073   6.506   4.271 -0.0714 -0.3259 -0.0309
  120MOL   H16126579   4.893   6.384   4.244  0.8569  4.8675 -0.8710
  120MOL   H16226580   5.041   6.238   3.970  1.5127 -2.0061  1.9450
  120MOL   H16326581   4.903   6.187   4.066  0.8248 -1.5702 -0.5206
  120MOL   H16426582   4.909   6.356   4.017 -0.8332 -0.4237  1.4697
  120MOL   H16526583   5.091   6.527   4.166  0.4644 -1.5961 -0.2015
  120MOL   H16626584   5.172   6.475   4.303  1.9405  1.6357 -4.0045
  120MOL   C16726585   5.026   6.625   4.353  0.9523  0.6768 -0.0514
  120MOL   C16826586   4.871   6.641   4.349 -0.5944  0.7132  0.0673
  120MOL   O16926587   4.805   6.603   4.445  0.1783  0.7091  0.0792
  120MOL   C17026588   4.806   6.690   4.214 -0.1074 -0.2419  0.0650
  120MOL   C17126589   5.107   6.750   4.318  0.2911 -0.6280  0.4743
  120MOL   H17226590   5.033   6.606   4.460 -2.3722 -1.1501 -0.0922
  120MOL   H17326591   4.724   6.761   4.224 -0.7569 -0.8832 -0.6449
  120MOL   H17426592   4.881   6.735   4.149 -2.5513 -0.1483 -2.8051
  120MOL   H17526593   4.769   6.603   4.159  1.1497 -1.0379  0.4488
  120MOL   H17626594   5.067   6.833   4.376  1.8414  0.7411 -0.3660
  120MOL   H17726595   5.101   6.774   4.212 -2.5402 -2.7022  0.0958
  120MOL   C17826596   5.257   6.743   4.356 -0.5806 -0.2162 -0.1054
  120MOL   C17926597   5.274   6.704   4.506  0.3076  0.3425  0.3092
  120MOL   O18026598   5.183   6.722   4.588 -1.1120 -0.7969 -0.2262
  120MOL   C18126599   5.396   6.629   4.552 -0.4899 -1.0829 -0.7708
  120MOL   C18226600   5.331   6.876   4.337 -0.0802 -0.1974  0.2505
  120MOL   H18326601   5.312   6.671   4.296 -0.2995 -1.1537  1.2660
  120MOL   H18426602   5.483   6.695   4.551 -0.6113 -0.9252 -0.8931
  120MOL   H18526603   5.377   6.591   4.653  0.2575 -0.7632 -0.5065
  120MOL   H18626604   5.419   6.544   4.489 -2.7487 -2.2302 -0.1222
  120MOL   H18726605   5.439   6.858   4.340  0.0094  0.3386  0.2494
  120MOL   H18826606   5.322   6.935   4.428 -0.3078 -1.4565  1.0465
  120MOL   C18926607   5.286   6.967   4.219  0.2872 -0.1994 -0.2374
  120MOL   C19026608   5.305   6.889   4.089  0.3281  0.6147 -0.1870
  120MOL   O19126609   5.408   6.821   4.068 -0.3715  0.3342 -0.4722
  120MOL   C19226610   5.189   6.898   3.984 -0.4377  0.2015 -0.0157
  120MOL   C19326611   5.344   7.114   4.212  0.0305  0.3859  0.3302
  120MOL   H19426612   5.181   6.995   4.234  0.4539  0.7499 -0.8607
  120MOL   H19526613   5.097   6.935   4.029 -1.6862 -1.2655 -1.3246
  120MOL   H19626614   5.211   6.961   3.898 -0.3604 -1.3755 -1.1679
  120MOL   H19726615   5.173   6.793   3.959 -1.7039  0.4535 -0.2919
  120MOL   H19826616   5.450   7.105   4.190  0.2585 -1.2817  1.9579
  120MOL   H19926617   5.349   7.160   4.311 -0.3061 -0.1984  0.6277
  120MOL   C20026618   5.269   7.207   4.119  0.3729  0.0281  0.3876
  120MOL   C20126619   5.358   7.295   4.035  0.4215  0.0675 -0.3727
  120MOL   O20226620   5.429   7.385   4.078 -0.0635  0.9666  0.1869
  120MOL   C20326621   5.376   7.246   3.890  0.0472  0.4587  0.5414
  120MOL   C20426622   5.159   7.279   4.205  0.6832 -0.2056 -0.0713
  120MOL   H20526623   5.214   7.151   4.043  0.2871  1.5554 -0.7102
  120MOL   H20626624   5.364   7.137   3.894  2.4009  0.0849 -0.8753
  120MOL   H20726625   5.304   7.296   3.825 -0.7516 -0.2749  0.8582
  120MOL   H20826626   5.473   7.259   3.842 -0.8727  1.1670 -1.1534
  120MOL   H20926627   5.207   7.364   4.253  0.2369  2.0569 -3.4961
  120MOL   H21026628   5.121   7.220   4.289 -0.0367 -0.6107 -0.6787
  120MOL   C21126629   5.033   7.324   4.124 -0.3749 -0.2177  0.4973
  120MOL   C21226630   5.065   7.449   4.047  0.1987  0.1617  0.7300
  120MOL   O21326631   5.079   7.451   3.924  0.0612 -0.0994  0.5139
  120MOL   C21426632   5.095   7.574   4.127  0.0837  0.0926  0.3277
  120MOL   C21526633   4.905   7.341   4.203  0.9801 -0.0705 -0.4504
  120MOL   H21626634   5.019   7.242   4.054 -2.3416  0.1030  0.4998
  120MOL   H21726635   5.137   7.550   4.224  2.0163 -0.6782 -0.6888
  120MOL   H21826636   5.171   7.637   4.081 -1.9875  2.4107 -0.0348
  120MOL   H21926637   5.002   7.627   4.150 -0.6999 -0.5518 -1.2280
  120MOL   H22026638   4.870   7.245   4.239  1.8860  0.1204  0.9420
  120MOL   H22126639   4.823   7.380   4.142  0.3697 -1.4411 -0.5364
  120MOL   H22226640   4.924   7.403   4.290 -3.2805  0.1757  0.4463
  121MOL     C126641   0.184   6.621   7.335  0.1357 -0.6061  0.2719
  121MOL     C226642   0.111   6.753   7.328  0.6555  0.3156  0.5654
  121MOL     O326643   7.840   6.764   7.372 -0.0680 -0.6583 -0.2778
  121MOL     C426644   0.176   6.873   7.269 -0.9577 -0.3239  0.3235
  121MOL     C526645   0.272   6.608   7.459  0.3293 -0.4101  0.0641
  121MOL     H626646   0.104   6.547   7.331  0.9213 -1.3130 -3.9653
  121MOL     H726647   0.268   6.856   7.212 -1.1986 -0.5688  0.0048
  121MOL     H826648   0.103   6.920   7.204  2.1982  2.0211 -1.6490
  121MOL     H926649   0.188   6.959   7.334  1.2582  0.3964 -0.9665
  121MOL    H1026650   0.352   6.682   7.449  2.1518 -2.1784  1.0914
  121MOL    H1126651   0.318   6.509   7.448 -0.8583 -1.0969  1.1314
  121MOL    H1226652   0.238   6.608   7.242 -0.8347 -2.8699  0.0056
  121MOL    C1326653   0.193   6.611   7.591  0.5503  0.4568 -0.0001
  121MOL    C1426654   0.192   6.751   7.656  0.3727  0.2605 -0.0311
  121MOL    O1526655   0.290   6.823   7.631  0.5099 -0.1113  0.1407
  121MOL    C1626656   0.084   6.783   7.756  0.0522  0.3334  0.2917
  121MOL    C1726657   0.247   6.503   7.688  0.3623  0.0012  0.2434
  121MOL    H1826658   0.088   6.589   7.573  0.0034  2.3361  0.8436
  121MOL    H1926659   0.005   6.709   7.746  0.9786 -0.6432  0.2102
  121MOL    H2026660   0.119   6.786   0.017  0.1153  1.5754  0.2415
  121MOL    H2126661   0.054   6.883   7.724 -1.5768 -0.1220  0.3707
  121MOL    H2226662   0.260   6.408   7.636 -1.4562 -0.7101  1.0535
  121MOL    H2326663   0.166   6.488   7.759 -0.2444  0.0166 -0.4441
  121MOL    C2426664   0.374   6.538   7.772  0.0444  0.1170 -0.1913
  121MOL    C2526665   0.503   6.545   7.683  0.5363 -0.6694 -0.1717
  121MOL    O2626666   0.538   6.448   7.614 -0.5528  0.5693 -0.5603
  121MOL    C2726667   0.580   6.671   7.693  0.5129 -0.0495  0.4713
  121MOL    C2826668   0.382   6.427   0.046 -0.3039 -0.4917 -1.3243
  121MOL    H2926669   0.368   6.631   7.828  0.8248 -0.6325  1.1736
  121MOL    H3026670   0.685   6.643   7.689  0.1348 -1.3247 -3.2326
  121MOL    H3126671   0.560   6.744   7.614  0.5193 -1.6267 -1.0323
  121MOL    H3226672   0.568   6.704   7.796  0.4967 -0.2557  0.5355
  121MOL    H3326673   0.398   6.329   0.001  2.0796 -0.7775  0.0667
  121MOL    H3426674   0.285   6.419   0.094  0.8230 -1.0859  0.9232
  121MOL    C3526675   0.472   6.445   0.165  0.0336 -0.1153  0.0733
  121MOL    C3626676   0.621   6.426   0.124  0.0198 -0.1303  0.2051
  121MOL    O3726677   0.710   6.513   0.136  0.1043 -0.0111 -0.1645
  121MOL    C3826678   0.657   6.282   0.069 -0.9037  0.1397  0.2282
  121MOL    C3926679   0.435   6.356   0.293 -0.0119 -0.1776 -0.4644
  121MOL    H4026680   0.468   6.553   0.182  2.8107  0.0704 -0.2272
  121MOL    H4126681   0.734   6.243   0.136 -0.0337 -0.9444 -1.3608
  121MOL    H4226682   0.575   6.210   0.071 -0.1078 -0.7631  0.7383
  121MOL    H4326683   0.705   6.287   7.813  0.4141 -0.2039  0.8385
  121MOL    H4426684   0.455   6.254   0.261  1.2028 -0.6113  1.5955
  121MOL    H4526685   0.327   6.351   0.306  0.0443  1.7270  1.0097
  121MOL    C4626686   0.501   6.397   0.419 -0.4194  0.4439 -0.1180
  121MOL    C4726687   0.469   6.313   0.543  0.2644 -0.4876 -0.5460
  121MOL    O4826688   0.432   6.368   0.648  0.2186  0.5364  0.0950
  121MOL    C4926689   0.492   6.164   0.537 -0.1154 -0.1215 -0.7397
  121MOL    C5026690   0.480   6.546   0.462 -0.0724 -0.2489 -0.3813
  121MOL    H5126691   0.609   6.406   0.406 -0.2194  0.6293  1.5445
  121MOL    H5226692   0.532   6.123   0.445 -0.6012  1.1502 -1.5448
  121MOL    H5326693   0.567   6.140   0.612 -1.4028  0.4050  0.7438
  121MOL    H5426694   0.399   6.108   0.543 -0.2774  0.4349  2.5440
  121MOL    H5526695   0.541   6.599   0.388  0.2380 -1.0869 -0.7373
  121MOL    H5626696   0.527   6.570   0.557 -1.4681 -1.3123  0.5995
  121MOL    C5726697   0.330   6.596   0.474  0.2744  0.3749  0.2731
  121MOL    C5826698   0.252   6.621   0.344  0.2358  0.2886 -0.9987
  121MOL    O5926699   0.285   6.708   0.262  0.7168  0.2611 -0.2747
  121MOL    C6026700   0.117   6.551   0.343 -0.1747  0.0100  0.3144
  121MOL    C6126701   0.327   6.732   0.555  0.1237  0.8733  0.1503
  121MOL    H6226702   0.272   6.522   0.529 -0.5367  0.3098 -0.6556
  121MOL    H6326703   0.047   6.576   0.423 -1.8772 -2.8644 -0.1807
  121MOL    H6426704   0.064   6.555   0.248  2.3451 -1.7972 -1.2266
  121MOL    H6526705   0.141   6.446   0.362 -1.4435 -0.5403 -1.0255
  121MOL    H6626706   0.234   6.774   0.518 -0.9576 -1.9184 -0.4535
  121MOL    H6726707   0.412   6.796   0.531 -0.0210  1.3116  0.7850
  121MOL    C6826708   0.327   6.710   0.703 -0.6346  0.1497 -0.2512
  121MOL    C6926709   0.211   6.626   0.759 -0.4355  0.2641 -0.0363
  121MOL    O7026710   0.113   6.595   0.689 -0.1935 -0.0081 -0.0978
  121MOL    C7126711   0.216   6.577   0.903 -0.5373 -0.4225  0.7295
  121MOL    C7226712   0.358   6.832   0.790 -0.4259  0.1754  0.3270
  121MOL    H7326713   0.411   6.640   0.706 -2.7404 -2.4071  2.0744
  121MOL    H7426714   0.134   6.513   0.936 -1.2685 -0.1513 -0.5281
  121MOL    H7526715   0.308   6.523   0.924 -0.1513  0.8518  2.4485
  121MOL    H7626716   0.201   6.667   0.962 -2.5463 -1.3461  1.6696
  121MOL    H7726717   0.429   6.892   0.731  0.4441 -1.5534 -0.4274
  121MOL    H7826718   0.418   6.796   0.873 -2.5033 -1.9026  0.9442
  121MOL    C7926719   0.243   6.924   0.833 -0.2207 -0.0569 -0.1361
  121MOL    C8026720   0.146   6.957   0.725 -0.0190 -0.5478  0.3377
  121MOL    O8126721   0.041   6.900   0.711  0.2167 -0.0347 -0.7614
  121MOL    C8226722   0.196   7.048   0.615  0.5394  0.1826  0.7057
  121MOL    C8326723   0.293   7.045   0.910  0.4158  1.1537  0.5139
  121MOL    H8426724   0.187   6.861   0.903  1.1352 -0.5827  0.4950
  121MOL    H8526725   0.159   7.147   0.641 -5.4374 -1.6711 -0.0055
  121MOL    H8626726   0.304   7.043   0.604  0.7142  4.1046 -0.1649
  121MOL    H8726727   0.148   7.011   0.524  0.0447  1.4206  0.4562
  121MOL    H8826728   0.339   7.108   0.834 -1.0914 -0.5768 -1.8921
  121MOL    H8926729   0.379   7.022   0.974 -1.1595 -0.7895  1.9874
  121MOL    C9026730   0.187   7.117   0.994 -0.2811 -0.2174 -0.1707
  121MOL    C9126731   0.228   7.267   1.024 -0.2385  0.1734  0.1665
  121MOL    O9226732   0.347   7.303   1.016  0.4288 -0.2156  0.2239
  121MOL    C9326733   0.119   7.361   1.059 -0.7372 -0.0136 -0.0220
  121MOL    C9426734   0.119   7.042   1.109  0.4476 -0.2058  0.2159
  121MOL    H9526735   0.104   7.140   0.926  0.0508  1.6053 -0.0012
  121MOL    H9626736   0.115   7.450   0.996 -0.4401  0.4531  0.6191
  121MOL    H9726737   0.022   7.310   1.055 -0.7252  0.0762 -2.3859
  121MOL    H9826738   0.124   7.373   1.167  0.1321  0.2381 -0.0870
  121MOL    H9926739   0.072   6.948   1.081  0.3670 -0.2719  0.5735
  121MOL   H10026740   0.036   7.098   1.153  1.8918  0.9362  1.5324
  121MOL   C10126741   0.206   7.006   1.240 -0.3249  0.2782  0.4163
  121MOL   C10226742   0.302   6.887   1.212  0.0492 -0.8087  0.5631
  121MOL   O10326743   0.268   6.794   1.135 -0.2372 -0.5481  0.5498
  121MOL   C10426744   0.440   6.879   1.273 -0.8791 -0.3558  0.2751
  121MOL   C10526745   0.117   6.982   1.364  0.1285 -0.0168  0.0071
  121MOL   H10626746   0.264   7.093   1.267 -0.5909 -0.0425  2.0932
  121MOL   H10726747   0.422   6.916   1.374  0.3692 -0.3008  0.4767
  121MOL   H10826748   0.489   6.782   1.281 -0.8349 -0.4429 -0.9126
  121MOL   H10926749   0.505   6.946   1.218  0.4509 -2.2022 -0.4417
  121MOL   H11026750   0.040   6.910   1.336 -0.7853  0.7099  0.5997
  121MOL   H11126751   0.058   7.072   1.385  1.2423  0.4542  1.1769
  121MOL   C11226752   0.176   6.947   1.498 -0.2681 -0.4226  0.0450
  121MOL   C11326753   0.066   6.895   1.587 -0.6572  0.4161 -0.4691
  121MOL   O11426754   7.794   6.938   1.572  0.0474  0.5212  0.7569
  121MOL   C11526755   0.102   6.805   1.707  0.5910  0.2502  0.6284
  121MOL   C11626756   0.250   7.058   1.574  0.3757  0.7792  0.4884
  121MOL   H11726757   0.241   6.860   1.484  2.2019  1.4407 -0.5546
  121MOL   H11826758   0.037   6.718   1.704  2.4171 -1.1980  1.7787
  121MOL   H11926759   0.210   6.790   1.708  0.5415 -0.2370 -0.7751
  121MOL   H12026760   0.077   6.857   1.800  1.7078 -0.2750  1.2335
  121MOL   H12126761   0.306   7.106   1.493  0.2413  0.6161  0.2966
  121MOL   H12226762   0.321   7.010   1.642 -0.8239 -1.4717  0.2100
  121MOL   C12326763   0.164   7.166   1.652 -0.0583 -0.7292  0.7094
  121MOL   C12426764   0.182   7.312   1.600  0.5919  0.3563  0.3102
  121MOL   O12526765   0.233   7.404   1.670  0.3636 -0.6455  0.1182
  121MOL   C12626766   0.149   7.353   1.455 -0.0556  0.5369  1.3425
  121MOL   C12726767   0.178   7.149   1.807 -0.1977 -0.3985  0.4448
  121MOL   H12826768   0.057   7.157   1.630  0.4734 -1.5775 -1.6048
  121MOL   H12926769   0.041   7.357   1.445 -0.0425  1.0482  1.4027
  121MOL   H13026770   0.193   7.447   1.422  2.6984 -1.2825 -0.3821
  121MOL   H13126771   0.179   7.277   1.382 -1.1904  3.4855 -2.3233
  121MOL   H13226772   0.281   7.180   1.827  0.1854 -0.3966 -1.3876
  121MOL   H13326773   0.168   7.044   1.834 -4.0871 -0.2160  0.0319
  121MOL   C13426774   0.075   7.227   1.886 -0.3812 -0.6717 -0.6449
  121MOL   C13526775   0.134   7.353   1.961  0.8324 -0.3464 -0.1188
  121MOL   O13626776   0.218   7.350   2.049 -0.2511 -0.4406 -0.0091
  121MOL   C13726777   0.063   7.484   1.922 -0.3614  0.4692 -0.3389
  121MOL   C13826778   7.838   7.131   1.978 -0.6745 -0.3507 -0.5632
  121MOL   H13926779   0.002   7.256   1.810 -1.0115  0.1048  0.2500
  121MOL   H14026780   0.022   7.455   1.826 -1.8073 -0.1998  0.4582
  121MOL   H14126781   7.831   7.499   2.002  0.6010  1.4447  0.3921
  121MOL   H14226782   0.125   7.574   1.923  2.1948 -1.1903 -2.9708
  121MOL   H14326783   0.056   7.088   2.057 -0.5299 -0.1172 -0.5444
  121MOL   H14426784   7.818   7.045   1.914  1.8680  0.0083 -1.9283
  121MOL   C14526785   7.705   7.178   2.042 -0.3275 -0.2638 -0.5325
  121MOL   C14626786   7.598   7.236   1.946  0.7181  0.4186  0.1639
  121MOL   O14726787   7.572   7.352   1.938  0.1890 -0.3121 -0.4463
  121MOL   C14826788   7.540   7.138   1.845 -0.2900  0.4689  0.0853
  121MOL   C14926789   7.709   7.251   2.185  0.4152 -0.5290  0.0386
  121MOL   H15026790   7.661   7.082   2.066 -2.7483  1.1031  0.6244
  121MOL   H15126791   7.597   7.047   1.832 -0.3246  0.3969  0.4250
  121MOL   H15226792   7.443   7.101   1.878 -0.3219 -0.6677 -1.2735
  121MOL   H15326793   7.534   7.182   1.746  1.4688 -0.8212 -0.6152
  121MOL   H15426794   7.757   7.348   2.187 -2.2222  0.8117  0.8414
  121MOL   H15526795   7.787   7.195   2.237  1.4687  0.2944 -0.6471
  121MOL   C15626796   7.574   7.267   2.259 -0.2242 -0.8185 -0.0227
  121MOL   C15726797   7.598   7.351   2.386  0.0268  0.1383  0.1799
  121MOL   O15826798   7.605   7.302   2.497 -0.2029  0.2084 -0.0736
  121MOL   C15926799   7.577   7.503   2.376 -0.0751 -0.4761 -0.5431
  121MOL   C16026800   7.517   7.127   2.297  0.3102 -0.4454  0.5353
  121MOL   H16126801   7.506   7.327   2.198 -1.3640 -1.9189  0.1469
  121MOL   H16226802   7.553   7.548   2.473  0.1990 -1.9858  0.2429
  121MOL   H16326803   7.668   7.551   2.340  0.7001  0.6307  2.7150
  121MOL   H16426804   7.501   7.533   2.303 -0.1364  1.2156  0.1740
  121MOL   H16526805   7.591   7.074   2.356  2.3457  0.7127 -0.9275
  121MOL   H16626806   7.503   7.072   2.204 -1.7583  1.4073 -0.3170
  121MOL   C16726807   7.378   7.117   2.368  0.4070 -0.2598 -0.1849
  121MOL   C16826808   7.362   6.992   2.458  0.3239 -0.1778 -0.1770
  121MOL   O16926809   7.336   6.877   2.420  0.2663  0.8909 -0.0706
  121MOL   C17026810   7.348   7.017   2.606  0.5895 -0.4639 -0.5858
  121MOL   C17126811   7.264   7.126   2.266  0.0924  0.2362  0.2015
  121MOL   H17226812   7.362   7.196   2.440 -0.2661  0.5783 -1.2372
  121MOL   H17326813   7.436   7.056   2.658 -0.0233  1.7326 -1.1042
  121MOL   H17426814   7.273   7.096   2.613 -0.0290 -1.0153 -1.0102
  121MOL   H17526815   7.313   6.928   2.656  1.1361 -0.8126 -0.8166
  121MOL   H17626816   7.257   7.024   2.229  0.0481  0.5791 -0.7437
  121MOL   H17726817   7.294   7.187   2.181 -0.0441 -0.6501 -0.4863
  121MOL   C17826818   7.124   7.167   2.320  0.0068 -0.2306 -0.0803
  121MOL   C17926819   7.019   7.058   2.301  0.8789  0.3048  0.4965
  121MOL   O18026820   6.935   7.069   2.212  0.1594 -0.0970 -0.0399
  121MOL   C18126821   7.024   6.935   2.387  0.0944  0.0015 -0.0926
  121MOL   C18226822   7.084   7.304   2.271 -0.1142  1.1770  0.0173
  121MOL   H18326823   7.128   7.171   2.429 -1.2598  1.1304 -0.0727
  121MOL   H18426824   7.075   6.861   2.325  2.1429  0.3581  1.1352
  121MOL   H18526825   7.081   6.949   2.478  2.2381  1.5786 -1.6220
  121MOL   H18626826   6.925   6.898   2.412  0.2889  0.5081  1.5020
  121MOL   H18726827   6.984   7.323   2.310 -0.7993 -1.5780 -0.3249
  121MOL   H18826828   7.070   7.295   2.163 -0.3132  2.1883 -0.0452
  121MOL   C18926829   7.181   7.426   2.301 -0.0708  0.7270 -0.2261
  121MOL   C19026830   7.176   7.464   2.449 -0.4956  0.1849  0.0398
  121MOL   O19126831   7.277   7.450   2.522  0.2197 -0.2356  0.0760
  121MOL   C19226832   7.045   7.507   2.515 -0.2581 -0.7682 -1.3529
  121MOL   C19326833   7.138   7.546   2.210  0.4020  0.5961  0.3593
  121MOL   H19426834   7.282   7.393   2.278 -0.4334  0.6674 -1.7648
  121MOL   H19526835   6.974   7.425   2.510 -1.8250  0.5692 -1.5535
  121MOL   H19626836   7.065   7.540   2.617 -0.7188 -0.9008 -1.2192
  121MOL   H19726837   7.006   7.594   2.463 -0.9412 -0.3176 -0.1119
  121MOL   H19826838   7.042   7.589   2.237 -1.0559 -0.9178 -2.1850
  121MOL   H19926839   7.124   7.498   2.113 -1.9567  2.0089 -0.0268
  121MOL   C20026840   7.244   7.658   2.204 -0.1292 -0.0279  0.3571
  121MOL   C20126841   7.229   7.751   2.327 -0.1917  0.8638  0.9457
  121MOL   O20226842   7.123   7.810   2.341 -0.0318 -0.6121 -0.1165
  121MOL   C20326843   7.349   7.767   2.418 -0.2626  0.1680 -0.5161
  121MOL   C20426844   7.237   7.732   2.072  0.0407  0.7848 -0.1159
  121MOL   H20526845   7.331   7.593   2.201 -1.2990 -1.5776 -1.8052
  121MOL   H20626846   7.332   0.001   2.495  0.6760 -0.4768  0.3346
  121MOL   H20726847   7.368   7.667   2.457  1.7971  0.5165 -0.6040
  121MOL   H20826848   7.434   7.797   2.357  0.6439 -0.3728  0.4666
  121MOL   H20926849   7.131   7.741   2.049 -0.2750 -0.1723  0.9108
  121MOL   H21026850   7.254   7.659   1.993  2.0867  1.1858 -0.0819
  121MOL   C21126851   7.310   0.018   2.043 -0.5567  0.2378 -0.2988
  121MOL   C21226852   7.283   0.076   1.908  0.0476  0.4153 -0.4681
  121MOL   O21326853   7.224   0.004   1.822  0.6429  0.4370  0.1241
  121MOL   C21426854   7.322   0.222   1.870 -0.4397 -0.2480  0.2217
  121MOL   C21526855   7.459   7.834   2.056  0.1791  0.4143 -0.6517
  121MOL   H21626856   7.288   0.098   2.115  0.1006  1.0144 -0.9470
  121MOL   H21726857   7.418   0.224   1.817 -1.8836 -0.3980 -2.4993
  121MOL   H21826858   7.249   0.257   1.797 -0.9358  0.1051  0.8814
  121MOL   H21926859   7.321   0.284   1.960  1.0139  1.4050 -0.8624
  121MOL   H22026860   7.480   0.007   2.162 -1.0028  0.5335 -0.4288
  121MOL   H22126861   7.513   0.069   2.000 -0.5467  0.6779 -0.9859
  121MOL   H22226862   7.495   7.734   2.033  0.6055  0.2029  0.8271
  122MOL     C126863   0.425   7.035   5.421 -0.0277  0.7109 -0.7617
  122MOL     C226864   0.544   7.120   5.380  0.1297 -0.5347  0.4886
  122MOL     O326865   0.521   7.236   5.362 -0.5896 -0.0884  0.3221
  122MOL     C426866   0.677   7.051   5.347 -0.8256 -0.8421 -0.0214
  122MOL     C526867   0.333   7.097   5.521  0.6021 -0.2217 -0.1201
  122MOL     H626868   0.380   6.992   5.332 -0.1546 -1.8963  0.5429
  122MOL     H726869   0.751   7.125   5.317 -0.9912 -0.8806 -0.5173
  122MOL     H826870   0.712   6.997   5.435  0.6359 -0.3573 -0.2917
  122MOL     H926871   0.655   6.984   5.264 -1.2804 -1.3873  0.5365
  122MOL    H1026872   0.354   7.203   5.532  0.2678 -0.0715 -0.9550
  122MOL    H1126873   0.344   7.052   5.620  0.3469  0.1238  0.0646
  122MOL    H1226874   0.478   6.959   5.478  0.1810  0.4754 -1.2666
  122MOL    C1326875   0.181   7.086   5.475  0.0540 -0.1588 -0.7463
  122MOL    C1426876   0.097   7.209   5.522  0.4618 -0.2574 -0.2964
  122MOL    O1526877   0.122   7.271   5.626 -0.1917  0.0050 -0.1547
  122MOL    C1626878   7.814   7.253   5.449 -0.9162 -0.1952  0.7058
  122MOL    C1726879   0.119   6.950   5.527  1.2158  0.2215  0.1816
  122MOL    H1826880   0.181   7.087   5.366  0.7021  1.3733 -0.7434
  122MOL    H1926881   7.718   7.241   5.499 -1.5366 -0.7499 -0.5929
  122MOL    H2026882   7.815   7.361   5.434 -0.6221 -0.5538 -2.1478
  122MOL    H2126883   7.803   7.208   5.350  4.0064 -1.5792  0.6658
  122MOL    H2226884   0.097   6.958   5.634 -0.1210 -0.8178 -0.0068
  122MOL    H2326885   0.194   6.871   5.521  1.4591  0.5144 -0.8241
  122MOL    C2426886   7.831   6.895   5.452  0.2681 -0.2911  0.0437
  122MOL    C2526887   7.729   6.847   5.555  0.6960  0.1304 -0.5597
  122MOL    O2626888   7.716   6.731   5.587 -0.2100  0.1919  0.0182
  122MOL    C2726889   7.640   6.951   5.630 -0.1749 -0.4330 -0.0794
  122MOL    C2826890   0.026   6.775   5.360  0.2466 -0.2666  0.0795
  122MOL    H2926891   7.778   6.975   5.401  0.9217 -1.5537 -2.7139
  122MOL    H3026892   7.682   6.973   5.728  0.5406  1.7286 -0.8400
  122MOL    H3126893   7.626   7.051   5.589 -0.2445 -0.4830 -0.1802
  122MOL    H3226894   7.539   6.917   5.649  0.0578 -1.1764 -0.1508
  122MOL    H3326895   7.781   6.717   5.328  0.0190  0.0465  0.1354
  122MOL    H3426896   0.089   6.702   5.412  0.8132 -0.6462 -1.1385
  122MOL    C3526897   0.092   6.824   5.226 -0.2114  0.4717 -0.0837
  122MOL    C3626898   7.841   6.919   5.143 -0.0442 -0.1234 -0.1378
  122MOL    O3726899   0.033   7.037   5.140 -0.1758 -0.2936  0.0109
  122MOL    C3826900   7.706   6.875   5.089 -0.0765 -0.2148 -0.5056
  122MOL    C3926901   0.153   6.707   5.146 -1.1399  0.1591  0.4181
  122MOL    H4026902   0.173   6.887   5.263 -1.8841  2.1014  0.9101
  122MOL    H4126903   7.665   6.926   5.002  0.9659  0.6193 -0.5098
  122MOL    H4226904   7.711   6.767   5.070  0.2488 -0.3431  0.2815
  122MOL    H4326905   7.628   6.869   5.166  0.8684 -3.9509  0.2647
  122MOL    H4426906   0.213   6.770   5.079 -2.1196  0.7807  0.1232
  122MOL    H4526907   0.070   6.659   5.095 -1.2225  0.4659  0.2656
  122MOL    C4626908   0.240   6.608   5.223 -0.5534  0.3497 -0.4016
  122MOL    C4726909   0.345   6.682   5.305  0.2014 -0.4231  0.5049
  122MOL    O4826910   0.407   6.770   5.249 -0.2835  0.0382  0.1115
  122MOL    C4926911   0.367   6.648   5.444  0.0745  0.5710 -0.0516
  122MOL    C5026912   0.290   6.492   5.144  0.2314  0.5884 -0.5443
  122MOL    H5126913   0.175   6.554   5.292  0.0523 -0.4498 -0.4485
  122MOL    H5226914   0.473   6.625   5.459 -0.3333 -0.7553  0.8382
  122MOL    H5326915   0.347   6.734   5.508  2.9786  2.9042 -2.0947
  122MOL    H5426916   0.312   6.562   5.481  1.6746 -0.5053 -0.1056
  122MOL    H5526917   0.204   6.444   5.097  0.2587 -1.6690  1.6349
  122MOL    H5626918   0.324   6.423   5.221 -1.0479  0.6569  0.0829
  122MOL    C5726919   0.393   6.532   5.031 -0.0894  0.1014 -0.1658
  122MOL    C5826920   0.321   6.532   4.892  0.2238  0.2730  0.3114
  122MOL    O5926921   0.201   6.554   4.881  0.3634 -0.0443  0.1537
  122MOL    C6026922   0.401   6.503   4.775  0.5597 -0.1858 -0.0557
  122MOL    C6126923   0.515   6.444   5.041 -0.2303 -0.6626  0.5050
  122MOL    H6226924   0.415   6.639   5.036  0.6676 -0.0493 -0.2299
  122MOL    H6326925   0.505   6.536   4.765  0.2509  0.5836 -0.8076
  122MOL    H6426926   0.411   6.395   4.767  2.7199  0.0846 -1.3954
  122MOL    H6526927   0.352   6.538   4.684  0.4105  1.1996  0.5545
  122MOL    H6626928   0.555   6.425   4.941  0.2972 -1.5231  0.8717
  122MOL    H6726929   0.476   6.345   5.063 -0.0689 -0.9187 -0.3303
  122MOL    C6826930   0.614   6.491   5.152  0.2993  0.4580  0.1549
  122MOL    C6926931   0.680   6.623   5.114  0.1533  0.1132 -0.8952
  122MOL    O7026932   0.673   6.665   4.999 -0.4859 -0.1047  0.1690
  122MOL    C7126933   0.733   6.713   5.224  0.3156  0.3586 -0.1716
  122MOL    C7226934   0.720   6.377   5.195  0.0254 -0.5884 -0.1654
  122MOL    H7326935   0.559   6.512   5.244  0.6355  0.1747  0.4231
  122MOL    H7426936   0.675   6.714   5.316  2.4483  0.5990  1.2215
  122MOL    H7526937   0.837   6.682   5.238  0.1137 -1.5066 -2.5274
  122MOL    H7626938   0.729   6.819   5.198 -0.2278  1.0551  2.5674
  122MOL    H7726939   0.787   6.412   5.273 -0.0077 -2.6211  0.8276
  122MOL    H7826940   0.787   6.352   5.113 -0.8916 -1.6736 -0.6105
  122MOL    C7926941   0.644   6.242   5.252  0.5962  0.2552  0.2206
  122MOL    C8026942   0.563   6.269   5.376  0.3187 -0.5837  0.1129
  122MOL    O8126943   0.598   6.359   5.456  0.5917 -0.1127  0.5189
  122MOL    C8226944   0.435   6.186   5.390  0.8712 -0.7970 -0.7973
  122MOL    C8326945   0.740   6.120   5.256 -0.1493 -0.4492 -0.2401
  122MOL    H8426946   0.571   6.210   5.178 -0.8253 -1.3570  2.2405
  122MOL    H8526947   0.343   6.225   5.345  1.5217  2.0071  0.1873
  122MOL    H8626948   0.458   6.086   5.355 -0.9252 -1.5211  0.0385
  122MOL    H8726949   0.409   6.170   5.494 -2.7732 -0.4666 -1.5745
  122MOL    H8826950   0.780   6.098   5.157  2.5043  2.6055  0.0682
  122MOL    H8926951   0.675   6.034   5.272 -0.9094  0.0660 -0.5225
  122MOL    C9026952   0.848   6.118   5.374 -0.3207  0.5340 -0.6674
  122MOL    C9126953   0.990   6.121   5.324  0.0429 -0.8205 -0.4272
  122MOL    O9226954   1.034   6.046   5.237 -0.4967 -0.2138  0.0011
  122MOL    C9326955   1.072   6.235   5.399 -0.6898 -0.0691  0.1249
  122MOL    C9426956   0.806   6.003   5.468 -0.1076 -0.0484 -0.1024
  122MOL    H9526957   0.831   6.214   5.423 -0.2643 -0.7352  1.9203
  122MOL    H9626958   1.145   6.271   5.327 -3.1242 -0.1526 -2.4803
  122MOL    H9726959   1.019   6.324   5.434 -0.1093  1.4099 -2.5656
  122MOL    H9826960   1.136   6.202   5.481 -1.0137 -1.8192 -0.3016
  122MOL    H9926961   0.840   5.905   5.437 -2.3782 -0.9126  0.0274
  122MOL   H10026962   0.697   6.012   5.467 -0.1147 -0.1277 -0.0332
  122MOL   C10126963   0.841   6.020   5.624  0.4032  0.4078  0.3030
  122MOL   C10226964   0.797   6.157   5.693 -0.7735  0.5808  0.1137
  122MOL   O10326965   0.867   6.250   5.725  0.3101 -0.2102 -0.1957
  122MOL   C10426966   0.647   6.166   5.724 -0.7452  0.3054  0.2534
  122MOL   C10526967   0.984   5.980   5.658 -0.1095  0.0231 -0.2041
  122MOL   H10626968   0.784   5.943   5.674  1.9357 -0.1231  1.2677
  122MOL   H10726969   0.612   6.064   5.743  0.0795  0.1619  1.0434
  122MOL   H10826970   0.625   6.228   5.811 -0.0818  0.2211  0.4831
  122MOL   H10926971   0.588   6.204   5.640 -0.1220 -2.9018 -1.7237
  122MOL   H11026972   1.011   6.049   5.737 -1.0107  2.7406 -2.2020
  122MOL   H11126973   1.056   5.985   5.575 -1.9975 -1.2967 -1.9708
  122MOL   C11226974   1.006   5.839   5.730  0.6264  0.0889  0.1336
  122MOL   C11326975   0.976   5.722   5.640  0.4255  0.5538  0.2633
  122MOL   O11426976   0.863   5.667   5.636 -0.1918 -1.1007 -0.0121
  122MOL   C11526977   1.088   5.666   5.548  0.0176  1.3947 -0.1510
  122MOL   C11626978   0.930   5.828   5.866 -0.1767 -0.4633  0.4557
  122MOL   H11726979   1.113   5.823   5.743  1.1497 -0.5504 -4.1890
  122MOL   H11826980   1.154   5.748   5.518  2.1409  0.6318  2.2611
  122MOL   H11926981   1.148   5.589   5.597 -1.4455  0.5770  0.3665
  122MOL   H12026982   1.046   5.626   5.457  0.8388 -1.6462  0.7415
  122MOL   H12126983   0.825   5.799   5.857 -0.3713  0.4837 -0.4037
  122MOL   H12226984   0.929   5.929   5.907 -0.5573 -1.5685  3.3164
  122MOL   C12326985   1.016   5.739   5.963  0.3186 -0.7299  0.8351
  122MOL   C12426986   0.999   5.586   5.964  1.3160 -0.9055 -0.1018
  122MOL   O12526987   1.088   5.513   5.927  0.0774  0.1244 -0.0375
  122MOL   C12626988   0.864   5.533   6.012 -0.1405 -0.0626  0.3072
  122MOL   C12726989   1.017   5.800   6.112 -0.3434 -0.0395 -0.7786
  122MOL   H12826990   1.117   5.743   5.922 -1.1063  0.5217 -2.7154
  122MOL   H12926991   0.829   5.450   5.951  1.7660 -0.1735 -0.6741
  122MOL   H13026992   0.860   5.494   6.114 -0.9945 -1.7296 -0.3479
  122MOL   H13126993   0.797   5.619   6.008  0.0815  0.0389 -2.6299
  122MOL   H13226994   0.913   5.799   6.143 -0.7586  0.7128 -2.0960
  122MOL   H13326995   1.047   5.905   6.112  3.4021 -0.9989  0.8097
  122MOL   C13426996   1.112   5.737   6.217 -0.1819 -0.4473 -0.3181
  122MOL   C13526997   1.072   5.800   6.354  0.4231 -1.2472 -0.0945
  122MOL   O13626998   1.147   5.878   6.414 -0.0276  0.2289 -0.2083
  122MOL   C13726999   0.929   5.776   6.408  0.1701  0.5979 -0.1373
  122MOL   C13827000   1.264   5.744   6.179  0.3640  0.2965 -0.3246
  122MOL   H13927001   1.083   5.632   6.217 -1.5385 -0.1113  2.7063
  122MOL   H14027002   0.864   5.844   6.353  0.4321  0.1260 -1.0487
  122MOL   H14127003   0.903   5.671   6.420  1.0988  0.2932 -0.7556
  122MOL   H14227004   0.924   5.829   6.503  1.2204  0.9278 -0.2573
  122MOL   H14327005   1.302   5.841   6.213  0.7506 -0.1565  0.5571
  122MOL   H14427006   1.275   5.745   6.071  1.8004  2.1688 -0.1995
  122MOL   C14527007   1.346   5.645   6.259 -0.6511 -0.2846 -0.3022
  122MOL   C14627008   1.311   5.496   6.232  0.1753 -0.0421 -0.4523
  122MOL   O14727009   1.244   5.428   6.303 -0.1902 -0.1006  0.1896
  122MOL   C14827010   1.371   5.433   6.115 -0.4779  0.0286  0.4093
  122MOL   C14927011   1.378   5.669   6.405  0.2996  0.1955  0.5155
  122MOL   H15027012   1.445   5.658   6.213 -1.2900 -1.9977 -2.2769
  122MOL   H15127013   1.475   5.402   6.124 -0.5537  0.0684  1.4269
  122MOL   H15227014   1.307   5.353   6.078 -0.5381  1.0598 -1.8179
  122MOL   H15327015   1.367   5.508   6.035 -1.9894 -0.2083  0.2560
  122MOL   H15427016   1.296   5.630   6.466 -0.5772  2.1529  0.6121
  122MOL   H15527017   1.398   5.773   6.429  2.6399 -0.2811  0.7607
  122MOL   C15627018   1.505   5.589   6.461  0.6477  0.3958  0.1133
  122MOL   C15727019   1.481   5.570   6.617  0.1679 -0.5385 -0.6363
  122MOL   O15827020   1.534   5.649   6.698  0.0469 -0.2722  0.0893
  122MOL   C15927021   1.401   5.448   6.656 -0.5275 -1.1394 -0.3276
  122MOL   C16027022   1.640   5.659   6.424  0.0746 -0.8548  0.1552
  122MOL   H16127023   1.512   5.490   6.416  2.0550  0.7271 -0.4049
  122MOL   H16227024   1.311   5.441   6.595 -0.0739  0.4422 -1.1827
  122MOL   H16327025   1.461   5.357   6.650  1.2674 -0.0213  0.2860
  122MOL   H16427026   1.361   5.455   6.758  2.4489  2.0543  0.7013
  122MOL   H16527027   1.656   5.740   6.496  0.1535 -0.2250 -0.5625
  122MOL   H16627028   1.628   5.715   6.331 -0.4854 -2.0246 -0.4811
  122MOL   C16727029   1.758   5.564   6.407  0.3396 -0.0662  0.1210
  122MOL   C16827030   1.737   5.470   6.284 -0.1865 -0.4815 -0.6546
  122MOL   O16927031   1.723   5.523   6.169  0.0227  0.0618  0.7089
  122MOL   C17027032   1.744   5.322   6.310  0.0406 -0.8231 -0.3908
  122MOL   C17127033   1.827   5.500   6.529 -0.7438  0.1816  0.2056
  122MOL   H17227034   1.833   5.632   6.367 -1.0544  0.0043 -2.4943
  122MOL   H17327035   1.651   5.280   6.271 -0.9037  0.8326  0.0042
  122MOL   H17427036   1.827   5.275   6.257  0.2079  0.4316 -1.2912
  122MOL   H17527037   1.759   5.291   6.413  2.0007 -0.1813 -0.4701
  122MOL   H17627038   1.907   5.436   6.494 -1.1142 -0.8632  1.2556
  122MOL   H17727039   1.761   5.429   6.577 -2.0149  0.9327 -0.3900
  122MOL   C17827040   1.898   5.597   6.630  0.2733  0.1506  0.4261
  122MOL   C17927041   2.014   5.675   6.559  0.1624 -0.4566  0.8300
  122MOL   O18027042   2.065   5.626   6.457  0.1353 -0.1880  0.5124
  122MOL   C18127043   2.057   5.810   6.608  0.0843 -0.0174 -0.2277
  122MOL   C18227044   1.943   5.525   6.758 -0.2793  0.2509 -0.2144
  122MOL   H18327045   1.819   5.667   6.658  1.2270  1.1040  0.7599
  122MOL   H18427046   2.165   5.799   6.600  0.3207 -0.0277  2.4190
  122MOL   H18527047   2.014   5.894   6.553  2.4084  0.7543 -0.9173
  122MOL   H18627048   2.033   5.820   6.714  2.0447  2.5391  0.0193
  122MOL   H18727049   2.039   5.560   6.796 -0.0739 -0.4637 -0.0720
  122MOL   H18827050   1.955   5.417   6.757 -1.5554  0.1045 -1.9137
  122MOL   C18927051   1.849   5.562   6.880 -0.9551  0.3144 -0.3676
  122MOL   C19027052   1.847   5.708   6.924 -0.0286 -0.9244 -0.6734
  122MOL   O19127053   1.948   5.750   6.978  0.3951  0.7495  0.4556
  122MOL   C19227054   1.726   5.794   6.901 -0.0211  0.3664  0.6200
  122MOL   C19327055   1.885   5.476   7.004  0.4686 -0.6932  0.0682
  122MOL   H19427056   1.751   5.533   6.841 -0.4471 -1.7523 -0.1857
  122MOL   H19527057   1.726   5.867   6.981  3.5118 -0.8917  1.8948
  122MOL   H19627058   1.740   5.846   6.807 -3.6100 -1.0202 -0.7679
  122MOL   H19727059   1.633   5.738   6.890  0.7350 -0.9619  0.8782
  122MOL   H19827060   1.856   5.527   7.095  0.8551  1.5149 -1.0143
  122MOL   H19927061   1.994   5.481   6.999  0.3019  2.5829 -2.8570
  122MOL   C20027062   1.828   5.331   7.001 -0.4007  0.7215 -0.1233
  122MOL   C20127063   1.686   5.328   7.055  0.4252  0.2988 -0.0115
  122MOL   O20227064   1.664   5.343   7.179  0.4383 -0.0601 -0.0614
  122MOL   C20327065   1.572   5.332   6.956  0.3345 -0.1619 -0.2627
  122MOL   C20427066   1.925   5.234   7.083 -0.0150 -0.6735  0.0265
  122MOL   H20527067   1.836   5.296   6.898  1.1465 -0.4139  0.3793
  122MOL   H20627068   1.616   5.338   6.856  3.0806  0.3385  0.9300
  122MOL   H20727069   1.498   5.252   6.956  0.1874 -0.0334 -1.1382
  122MOL   H20827070   1.516   5.423   6.977  2.8786  1.1423  1.1275
  122MOL   H20927071   1.861   5.151   7.115 -1.4115 -0.1741 -1.4154
  122MOL   H21027072   1.958   5.301   7.163 -1.0756  1.9480 -1.6533
  122MOL   C21127073   2.050   5.184   7.006 -0.4824  0.0945 -0.2948
  122MOL   C21227074   2.013   5.080   6.898 -0.7680 -0.8144  0.2840
  122MOL   O21327075   1.914   5.017   6.908 -0.3061  1.0647  0.5104
  122MOL   C21427076   2.112   5.067   6.781  0.0950 -0.0870  0.7490
  122MOL   C21527077   2.162   5.138   7.102  0.0162  0.2021  0.2226
  122MOL   H21627078   2.097   5.268   6.954 -2.0305 -0.5465 -2.7786
  122MOL   H21727079   2.080   5.007   6.696  1.3088  2.3993 -1.4922
  122MOL   H21827080   2.152   5.165   6.754 -5.0689  1.6897 -1.0507
  122MOL   H21927081   2.197   5.018   6.829 -0.9778 -1.0712  1.6763
  122MOL   H22027082   2.112   5.057   7.154 -1.6251  2.1379  1.7297
  122MOL   H22127083   2.195   5.223   7.161  0.1376  0.6144 -0.4278
  122MOL   H22227084   2.244   5.092   7.046 -3.4562 -1.5387 -3.7438
  123MOL     C127085   6.464   4.876   0.398  0.0769  0.4295  0.7319
  123MOL     C227086   6.389   4.958   0.291 -0.2027 -0.4417 -0.1926
  123MOL     O327087   6.400   5.081   0.281  0.4590  0.3784 -0.0989
  123MOL     C427088   6.297   4.881   0.201  0.1942 -0.0918  0.5228
  123MOL     C527089   6.540   4.957   0.513  0.2847 -0.2607  0.4472
  123MOL     H627090   6.408   4.797   0.448 -2.2688  1.7912  0.3277
  123MOL     H727091   6.198   4.923   0.184  1.2668  2.5939  0.6853
  123MOL     H827092   6.329   4.898   0.098 -0.8833 -1.2548 -0.0166
  123MOL     H927093   6.300   4.772   0.210  1.1920 -0.1035  0.1844
  123MOL    H1027094   6.529   4.893   0.601  0.0135 -0.3680  0.3381
  123MOL    H1127095   6.470   5.039   0.526 -0.2847 -0.7010  0.1564
  123MOL    H1227096   6.543   4.828   0.341  0.2866  0.3757  1.0619
  123MOL    C1327097   6.678   5.013   0.485  0.1868  0.4512 -0.1348
  123MOL    C1427098   6.797   4.922   0.514  0.4331  0.7177 -0.0422
  123MOL    O1527099   6.893   4.952   0.583  0.3935 -0.5137  0.2806
  123MOL    C1627100   6.781   4.780   0.456 -0.2159 -0.2384  0.0173
  123MOL    C1727101   6.694   5.158   0.549 -0.2586  0.0987  0.6887
  123MOL    H1827102   6.681   5.030   0.378  1.7024 -1.2494 -0.3926
  123MOL    H1927103   6.746   4.801   0.355 -1.8989 -0.8312  0.4586
  123MOL    H2027104   6.879   4.734   0.446 -1.4999 -2.4553 -3.2467
  123MOL    H2127105   6.701   4.728   0.509  0.3579 -0.0984  1.0526
  123MOL    H2227106   6.797   5.172   0.582 -0.3324 -0.9035  1.3660
  123MOL    H2327107   6.643   5.161   0.645 -2.0669 -0.7755 -0.2210
  123MOL    C2427108   6.636   5.276   0.465 -0.2942  0.6131 -0.3589
  123MOL    C2527109   6.732   5.312   0.347 -0.3417 -0.6282  0.8221
  123MOL    O2627110   6.829   5.385   0.358 -0.0019  0.1837 -0.0207
  123MOL    C2727111   6.682   5.266   0.212 -0.4289  0.1485 -0.3957
  123MOL    C2827112   6.592   5.398   0.552  0.1102  0.0278  0.5618
  123MOL    H2927113   6.547   5.241   0.412 -0.1056 -1.5291  0.6949
  123MOL    H3027114   6.603   5.191   0.218 -0.7620  0.5972  0.8955
  123MOL    H3127115   6.644   5.346   0.149 -1.1264 -1.3407 -1.9161
  123MOL    H3227116   6.766   5.214   0.164  1.4162  3.0675 -0.4227
  123MOL    H3327117   6.516   5.381   0.628  1.0260 -3.2007  0.8277
  123MOL    H3427118   6.560   5.471   0.478  0.3745  0.4868  0.9045
  123MOL    C3527119   6.699   5.479   0.636  0.2193  0.1181 -0.7658
  123MOL    C3627120   6.739   5.412   0.770  0.1798 -0.0107  0.3621
  123MOL    O3727121   6.658   5.396   0.864  0.9291 -0.1671  0.4168
  123MOL    C3827122   6.883   5.379   0.791  0.0838 -0.1340  0.2851
  123MOL    C3927123   6.676   5.635   0.640 -0.2616 -0.1452 -0.2021
  123MOL    H4027124   6.785   5.481   0.569 -0.0923  3.8850 -1.1403
  123MOL    H4127125   6.928   5.311   0.719 -3.2836  0.3162 -2.3848
  123MOL    H4227126   6.946   5.466   0.806 -0.9966  1.3519 -3.2563
  123MOL    H4327127   6.894   5.331   0.888 -0.9907  0.3461  0.6549
  123MOL    H4427128   6.586   5.656   0.699 -0.5747  0.7410 -0.9787
  123MOL    H4527129   6.658   5.667   0.537 -1.2691 -3.3786 -1.0695
  123MOL    C4627130   6.781   5.723   0.707  0.3599  0.2458  0.4279
  123MOL    C4727131   6.725   5.853   0.754  0.9025  0.3827  0.0737
  123MOL    O4827132   6.716   5.952   0.691  0.3081 -0.2533 -0.1356
  123MOL    C4927133   6.644   5.842   0.886  0.3444 -0.3225 -0.2800
  123MOL    C5027134   6.907   5.739   0.608 -0.3912  1.0404 -0.9035
  123MOL    H5127135   6.818   5.685   0.802 -0.3798  1.1618  1.0952
  123MOL    H5227136   6.712   5.835   0.971 -0.4782  0.1221  0.4170
  123MOL    H5327137   6.562   5.912   0.900  0.7735  0.3011 -0.8379
  123MOL    H5427138   6.601   5.742   0.885 -0.1797 -0.0999 -0.2261
  123MOL    H5527139   6.874   5.770   0.509 -0.2748  0.3345 -1.1692
  123MOL    H5627140   6.947   5.638   0.598 -1.4193  0.6830 -1.4513
  123MOL    C5727141   7.024   5.826   0.659 -0.3336  0.8557 -0.4963
  123MOL    C5827142   7.084   5.920   0.554 -0.1927 -0.3573 -0.2625
  123MOL    O5927143   7.201   5.916   0.512 -0.4897 -0.3183 -0.6954
  123MOL    C6027144   6.993   6.032   0.505  0.1939 -0.2440  0.0240
  123MOL    C6127145   7.128   5.742   0.752  0.4346 -0.2249 -0.3280
  123MOL    H6227146   6.983   5.904   0.722 -0.5794  0.0062  0.4153
  123MOL    H6327147   7.041   6.124   0.537  3.8177 -2.1191  0.1575
  123MOL    H6427148   6.989   6.036   0.396  2.2065  2.1555 -0.0011
  123MOL    H6527149   6.890   6.017   0.539 -0.2640  0.0975 -1.1666
  123MOL    H6627150   7.210   5.704   0.691 -0.5521 -1.6542 -0.7832
  123MOL    H6727151   7.095   5.649   0.797  3.7272 -1.4629 -0.3495
  123MOL    C6827152   7.170   5.837   0.871 -0.2536  0.8524  0.0718
  123MOL    C6927153   7.316   5.825   0.928 -0.3137 -0.5811  0.7930
  123MOL    O7027154   7.343   5.845   1.047 -0.4512 -0.1227  0.0993
  123MOL    C7127155   7.429   5.799   0.835 -0.2447  0.2767 -0.6616
  123MOL    C7227156   7.059   5.842   0.982 -0.0709  0.0219  0.3596
  123MOL    H7327157   7.179   5.934   0.821 -0.1673  0.9319  0.2425
  123MOL    H7427158   7.508   5.869   0.861 -1.2772  0.0988  3.1974
  123MOL    H7527159   7.466   5.697   0.839  0.9566  0.7422  0.7173
  123MOL    H7627160   7.392   5.824   0.736 -0.4396  1.3151 -0.3389
  123MOL    H7727161   6.956   5.836   0.945 -0.1492  1.8469  0.2443
  123MOL    H7827162   7.065   5.942   1.026  1.1400  0.0010  0.2469
  123MOL    C7927163   7.052   5.748   1.101  0.5490  0.2737  0.0787
  123MOL    C8027164   7.054   5.600   1.070  0.7920  1.0088  0.5190
  123MOL    O8127165   6.950   5.547   1.033  0.0203 -0.2816 -0.5064
  123MOL    C8227166   7.186   5.518   1.054 -0.1156  0.0459 -0.8265
  123MOL    C8327167   6.938   5.780   1.203 -0.2619  0.0546 -0.0701
  123MOL    H8427168   7.145   5.766   1.155  0.1341  0.2877  0.8013
  123MOL    H8527169   7.197   5.427   1.113  0.1405  0.1193 -0.7621
  123MOL    H8627170   7.193   5.490   0.949 -0.8394  0.2965 -0.9460
  123MOL    H8727171   7.268   5.587   1.070 -0.0816  0.3221 -2.1351
  123MOL    H8827172   6.935   5.691   1.266  0.2007 -0.8606 -1.3130
  123MOL    H8927173   6.845   5.793   1.148  0.0953  1.9319 -0.2788
  123MOL    C9027174   6.961   5.909   1.286 -0.4142 -0.8317  0.5702
  123MOL    C9127175   7.092   5.889   1.372 -0.7439 -0.2523  0.1959
  123MOL    O9227176   7.115   5.780   1.421 -0.1942 -0.8162  0.4010
  123MOL    C9327177   7.197   6.002   1.371  0.2762  0.4042 -0.2141
  123MOL    C9427178   6.840   5.939   1.381  0.5772  0.5403 -1.0811
  123MOL    H9527179   6.979   5.992   1.217 -0.6938 -2.2948 -1.2798
  123MOL    H9627180   7.242   6.024   1.468  1.2301  0.8687 -0.7557
  123MOL    H9727181   7.278   5.983   1.300 -0.3320 -0.6860 -0.6216
  123MOL    H9827182   7.150   6.099   1.353  0.7690  1.0141  1.6441
  123MOL    H9927183   6.845   5.898   1.482 -0.5489 -1.6695 -1.8665
  123MOL   H10027184   6.749   5.896   1.338  1.2235 -2.3472  0.3100
  123MOL   C10127185   6.801   6.088   1.397  0.4733  0.1512 -0.0874
  123MOL   C10227186   6.790   6.161   1.265  0.9102 -0.1162 -0.4835
  123MOL   O10327187   6.871   6.247   1.233 -0.1048  0.1971  0.6748
  123MOL   C10427188   6.668   6.128   1.172 -0.3642 -0.4005 -0.7509
  123MOL   C10527189   6.884   6.156   1.509  0.1220  0.4873 -0.4808
  123MOL   H10627190   6.695   6.087   1.421  0.6454 -1.7347  0.6971
  123MOL   H10727191   6.576   6.179   1.199 -0.8276 -1.8397  0.3943
  123MOL   H10827192   6.697   6.172   1.076  1.4604  0.9320  0.3743
  123MOL   H10927193   6.665   6.020   1.162  5.0836 -0.6586 -1.1364
  123MOL   H11027194   6.990   6.143   1.491  0.1259 -1.9965  1.1563
  123MOL   H11127195   6.865   6.088   1.592 -1.4777  0.8037 -0.5661
  123MOL   C11227196   6.848   6.298   1.545 -0.3538 -0.3547  0.5598
  123MOL   C11327197   6.963   6.344   1.640 -0.0068 -0.1033  0.3789
  123MOL   O11427198   6.936   6.363   1.760 -0.3108 -0.0985  0.0549
  123MOL   C11527199   7.104   6.376   1.582  0.0856 -0.0019  0.4238
  123MOL   C11627200   6.710   6.306   1.605 -0.4263 -0.0104 -0.1255
  123MOL   H11727201   6.857   6.369   1.462 -2.8996 -1.5140 -0.7674
  123MOL   H11827202   7.121   6.325   1.487 -1.3838 -0.9632  0.6465
  123MOL   H11927203   7.121   6.483   1.585 -1.3419  0.2184  1.2477
  123MOL   H12027204   7.187   6.331   1.637  0.1708 -0.8101 -0.3566
  123MOL   H12127205   6.708   6.226   1.679  1.9003  0.7492  0.8399
  123MOL   H12227206   6.641   6.282   1.525  1.4940  1.2823 -2.2186
  123MOL   C12327207   6.660   6.443   1.665  0.2205 -0.3984  0.2907
  123MOL   C12427208   6.526   6.418   1.736 -0.0212  0.2674  0.3548
  123MOL   O12527209   6.457   6.319   1.708  0.4953 -0.6188 -0.4305
  123MOL   C12627210   6.508   6.518   1.845 -0.2723 -0.2944 -0.1279
  123MOL   C12727211   6.639   6.552   1.560  0.1940 -0.2560  0.6057
  123MOL   H12827212   6.738   6.474   1.735 -1.7058  0.0916  2.2592
  123MOL   H12927213   6.503   6.619   1.804  0.8761  0.4477  1.5241
  123MOL   H13027214   6.420   6.477   1.894 -1.5812 -0.8474 -2.7987
  123MOL   H13127215   6.589   6.506   1.916 -0.6321  1.3137  0.5720
  123MOL   H13227216   6.540   6.597   1.566 -1.0037 -2.8101  0.5460
  123MOL   H13327217   6.633   6.512   1.459  1.6020  1.7552 -0.2857
  123MOL   C13427218   6.751   6.660   1.548 -0.1240  0.2271 -0.8427
  123MOL   C13527219   6.791   6.733   1.684  0.1287 -0.3349 -0.4337
  123MOL   O13627220   6.704   6.755   1.770 -0.9029  0.1403 -0.2777
  123MOL   C13727221   6.933   6.744   1.723 -0.4304  0.2108 -0.9757
  123MOL   C13827222   6.712   6.759   1.436  0.6465  0.5014 -0.2558
  123MOL   H13927223   6.835   6.602   1.511 -0.3969 -1.6536  1.3342
  123MOL   H14027224   7.000   6.742   1.637  0.1656 -1.1001 -0.4974
  123MOL   H14127225   6.951   6.840   1.771  1.2291 -0.5363 -0.0561
  123MOL   H14227226   6.949   6.662   1.793  0.6214 -0.0289 -1.4826
  123MOL   H14327227   6.617   6.808   1.458  0.4312  1.0062 -2.1873
  123MOL   H14427228   6.689   6.699   1.348 -5.0693  1.2203  0.5700
  123MOL   C14527229   6.803   6.872   1.382 -0.1980  0.1081 -0.5810
  123MOL   C14627230   6.930   6.821   1.306 -0.9559 -0.1079  0.0969
  123MOL   O14727231   6.993   6.722   1.347 -1.0697  0.0283 -0.5656
  123MOL   C14827232   6.948   6.887   1.174  0.4250 -0.5519  0.6306
  123MOL   C14927233   6.833   6.992   1.472 -0.6273 -0.6670  0.1172
  123MOL   H15027234   6.747   6.918   1.300  1.4774  1.9775 -0.7017
  123MOL   H15127235   6.855   6.870   1.118  0.3703  2.6829 -0.3595
  123MOL   H15227236   6.943   6.995   1.186 -0.0618 -0.5258  0.2436
  123MOL   H15327237   7.028   6.857   1.106 -0.1039  0.7721 -0.6089
  123MOL   H15427238   6.884   7.065   1.408 -0.8621  0.2848  1.0014
  123MOL   H15527239   6.912   6.969   1.543  0.1767  1.4640 -0.0286
  123MOL   C15627240   6.720   7.065   1.540  0.5473 -0.9511  0.3113
  123MOL   C15727241   6.602   7.114   1.451 -0.2193  0.5586  0.2997
  123MOL   O15827242   6.625   7.158   1.339  0.5174  0.2791  0.3767
  123MOL   C15927243   6.465   7.123   1.517 -0.7964  0.4229  0.0657
  123MOL   C16027244   6.779   7.176   1.625  0.5070 -0.2445 -0.5676
  123MOL   H16127245   6.666   6.994   1.603 -0.6543  2.3422  3.1635
  123MOL   H16227246   6.392   7.182   1.461 -0.4903  0.3346 -0.4253
  123MOL   H16327247   6.415   7.027   1.525 -1.1901  0.5793 -0.4524
  123MOL   H16427248   6.457   7.154   1.621  1.1323 -0.9706  0.6547
  123MOL   H16527249   6.701   7.247   1.652  1.3825  0.4032  0.2742
  123MOL   H16627250   6.838   7.225   1.547 -0.3595  2.2376  0.2880
  123MOL   C16727251   6.844   7.137   1.761 -0.4347 -0.7622  0.1181
  123MOL   C16827252   6.736   7.096   1.859 -0.2114 -0.4921  0.4162
  123MOL   O16927253   6.620   7.145   1.849 -0.2615 -0.1587  0.9601
  123MOL   C17027254   6.765   7.008   1.970  0.1060 -0.4187 -1.0519
  123MOL   C17127255   6.922   7.264   1.818  0.0644 -0.0857 -0.3635
  123MOL   H17227256   6.907   7.050   1.738 -0.3248 -0.8071  0.5858
  123MOL   H17327257   6.870   6.979   1.961 -0.3752 -2.4372 -0.4312
  123MOL   H17427258   6.744   7.072   2.056 -0.1878 -0.9734 -0.7019
  123MOL   H17527259   6.701   6.920   1.966 -0.5133  0.0205 -0.8776
  123MOL   H17627260   6.950   7.243   1.921 -1.5880 -0.3761  0.0407
  123MOL   H17727261   6.861   7.355   1.821  0.6254  0.3151 -0.9726
  123MOL   C17827262   7.056   7.288   1.742  0.4884 -0.2288  0.5031
  123MOL   C17927263   7.166   7.182   1.780  0.1983 -0.0577 -0.4190
  123MOL   O18027264   7.216   7.193   1.893 -0.9600 -0.3606 -0.0547
  123MOL   C18127265   7.192   7.061   1.684 -0.2427 -0.3303  0.2437
  123MOL   C18227266   7.098   7.431   1.782  0.1344 -0.3504  0.4665
  123MOL   H18327267   7.055   7.284   1.633 -0.5758 -2.3445  0.5654
  123MOL   H18427268   7.164   7.091   1.583 -2.3432  1.8082  1.4050
  123MOL   H18527269   7.293   7.023   1.695 -0.1469  0.2839  1.6577
  123MOL   H18627270   7.123   6.980   1.707 -1.6873  0.1744 -2.1836
  123MOL   H18727271   7.140   7.437   1.883  1.0991  0.4421  0.0307
  123MOL   H18827272   7.009   7.493   1.768  0.0051 -1.0431 -1.8218
  123MOL   C18927273   7.206   7.498   1.691 -0.1552 -0.1673  0.3235
  123MOL   C19027274   7.163   7.509   1.545  0.2032 -0.0010 -0.2367
  123MOL   O19127275   7.173   7.409   1.469 -0.4698  0.7366  0.4737
  123MOL   C19227276   7.130   7.649   1.489 -0.0354  0.3834 -0.0427
  123MOL   C19327277   7.347   7.435   1.713  0.2976  0.0689  0.1047
  123MOL   H19427278   7.216   7.603   1.719 -1.9119  0.1254 -0.1005
  123MOL   H19527279   7.203   7.677   1.413  0.4426 -0.1006  0.2357
  123MOL   H19627280   7.027   7.652   1.453  0.7286  1.1839 -2.2335
  123MOL   H19727281   7.139   7.713   1.576  1.0992  1.8823 -1.2425
  123MOL   H19827282   7.349   7.327   1.701 -3.8916  0.0595 -1.3083
  123MOL   H19927283   7.370   7.442   1.819  2.2385 -0.2378 -0.2934
  123MOL   C20027284   7.458   7.506   1.628 -0.0679  0.8113  0.0840
  123MOL   C20127285   7.581   7.413   1.593  0.2467 -0.6938  0.4699
  123MOL   O20227286   7.694   7.433   1.633 -0.0930 -0.4666 -0.0707
  123MOL   C20327287   7.553   7.297   1.493 -0.4876  0.3032  0.1912
  123MOL   C20427288   7.493   7.646   1.689  0.3809 -0.1954  0.3223
  123MOL   H20527289   7.427   7.521   1.525  2.0274  0.8575 -0.5554
  123MOL   H20627290   7.605   7.220   1.550 -2.3053 -1.0160  0.1261
  123MOL   H20727291   7.447   7.271   1.487  0.0825 -2.5080  1.4563
  123MOL   H20827292   7.601   7.299   1.395 -1.2115 -0.2076 -0.1795
  123MOL   H20927293   7.549   7.641   1.782  0.6974 -1.8752  0.0548
  123MOL   H21027294   7.404   7.694   1.729 -0.0165  0.8027 -1.6740
  123MOL   C21127295   7.577   7.738   1.593 -0.0812  0.4407 -0.4994
  123MOL   C21227296   7.682   7.818   1.662 -0.1742 -0.9573  0.1948
  123MOL   O21327297   7.668   0.021   1.776 -0.2994  0.1747  0.2360
  123MOL   C21427298   7.804   7.834   1.571  0.4809  0.0579  0.1975
  123MOL   C21527299   7.483   7.822   1.503 -0.6506  0.2351  0.2586
  123MOL   H21627300   7.633   7.678   1.521  0.1799  0.8243 -0.6150
  123MOL   H21727301   0.040   0.046   1.624 -0.1347  1.5777 -0.4137
  123MOL   H21827302   7.831   7.736   1.532  0.1180  0.5203 -1.2452
  123MOL   H21927303   7.778   0.059   1.489  0.9086  0.4666  0.3979
  123MOL   H22027304   7.407   7.764   1.451  0.9980 -2.0598  0.3776
  123MOL   H22127305   7.535   0.028   1.420 -2.3416  0.3274 -0.7687
  123MOL   H22227306   7.426   0.061   1.549  1.3710  0.9720  1.5136
  124MOL     C127307   1.129   7.560   4.201 -0.3590  0.3858 -0.5540
  124MOL     C227308   1.081   7.415   4.210 -0.3250  0.6561  0.5432
  124MOL     O327309   1.146   7.323   4.259  0.2204 -0.1735  0.2602
  124MOL     C427310   0.946   7.401   4.144 -0.0782  0.3687 -0.6333
  124MOL     C527311   1.285   7.574   4.213  0.5847  0.5756  0.7508
  124MOL     H627312   1.102   7.609   4.107 -1.1190 -2.3965 -1.8347
  124MOL     H727313   0.873   7.468   4.191 -2.2441 -1.9696 -0.5811
  124MOL     H827314   0.954   7.431   4.039 -0.8022 -0.9295 -1.0781
  124MOL     H927315   0.907   7.300   4.154 -3.3125  1.3608 -2.3691
  124MOL    H1027316   1.329   7.555   4.115  1.7529  1.5353  1.0828
  124MOL    H1127317   1.322   7.503   4.286 -0.3411  1.5297  2.1785
  124MOL    H1227318   1.090   7.611   4.288  0.2752  0.2054 -0.1632
  124MOL    C1327319   1.315   7.711   4.265  0.7812 -1.2008 -0.0801
  124MOL    C1427320   1.236   7.828   4.196 -0.1484  0.1741  0.6476
  124MOL    O1527321   1.261   0.027   4.085 -0.0425 -0.1035 -0.1761
  124MOL    C1627322   1.130   0.045   4.294 -0.1254  0.8527 -0.6820
  124MOL    C1727323   1.469   7.732   4.278 -0.0144 -0.3355 -0.1161
  124MOL    H1827324   1.269   7.703   4.363  2.1545  1.3883  0.7997
  124MOL    H1927325   1.051   0.101   4.243  1.0227  1.5292 -1.7307
  124MOL    H2027326   1.086   7.820   4.368 -1.1526  1.0323 -1.1200
  124MOL    H2127327   1.179   0.123   4.352  1.6493 -0.5264 -0.3072
  124MOL    H2227328   1.518   7.715   4.182 -1.1757 -2.4162 -0.3697
  124MOL    H2327329   1.514   7.644   4.326  0.9919  0.0407 -0.3503
  124MOL    C2427330   1.511   0.019   4.344 -1.1821  0.0667 -0.4453
  124MOL    C2527331   1.459   0.044   4.482 -0.4247  0.5667 -0.1730
  124MOL    O2627332   1.348   0.092   4.499  0.8870  0.0316 -0.0006
  124MOL    C2727333   1.528   7.815   4.601 -0.8031 -0.1547 -0.4698
  124MOL    C2827334   1.527   0.146   4.253 -0.3602 -0.1166  0.3276
  124MOL    H2927335   1.614   7.833   4.369 -0.8209  0.1292 -1.8203
  124MOL    H3027336   1.448   7.752   4.640 -0.3693 -0.4857 -0.1207
  124MOL    H3127337   1.616   7.753   4.584 -0.7013 -0.8221  2.3182
  124MOL    H3227338   1.553   0.051   4.673  0.8183 -0.6038 -0.5162
  124MOL    H3327339   1.560   0.230   4.315 -1.1675  1.4706 -1.3229
  124MOL    H3427340   1.425   0.178   4.230  0.7456  2.4692 -1.2098
  124MOL    C3527341   1.607   0.125   4.115 -0.0014  0.0541 -0.2401
  124MOL    C3627342   1.758   0.112   4.130 -0.6375  0.3214 -0.5462
  124MOL    O3727343   1.825   0.050   4.047  0.1300  0.4757 -0.5668
  124MOL    C3827344   1.831   0.171   4.251  0.3342  0.5878  0.7578
  124MOL    C3927345   1.572   0.236   4.013  0.1637  0.0008 -0.1513
  124MOL    H4027346   1.575   0.032   4.069 -0.0465 -0.1759  0.2470
  124MOL    H4127347   1.876   0.264   4.218  0.7507 -0.8566 -2.9234
  124MOL    H4227348   1.788   0.155   4.350 -1.2069 -0.3115 -0.0327
  124MOL    H4327349   1.920   0.109   4.247  0.1197  0.4441 -2.5038
  124MOL    H4427350   1.597   0.332   4.059  0.7558  0.1658 -0.8100
  124MOL    H4527351   1.464   0.241   3.998  0.2641 -0.7650 -1.1497
  124MOL    C4627352   1.630   0.236   3.872 -0.5097 -0.3587 -0.7949
  124MOL    C4727353   1.730   0.355   3.848  0.3194 -0.0596 -0.4559
  124MOL    O4827354   1.693   0.473   3.825  0.4278  0.5142 -0.1159
  124MOL    C4927355   1.885   0.332   3.864  0.0428  0.0489  0.0382
  124MOL    C5027356   1.523   0.242   3.758 -0.2405  0.1603 -0.1538
  124MOL    H5127357   1.702   0.157   3.853 -0.3910 -0.5255  0.3093
  124MOL    H5227358   1.926   0.261   3.793 -0.4742  1.2747 -1.4986
  124MOL    H5327359   1.930   0.425   3.831  0.4025 -0.3050 -0.4625
  124MOL    H5427360   1.922   0.299   3.961 -1.7878 -0.4254  0.5936
  124MOL    H5527361   1.575   0.253   3.662 -0.7325  0.1195 -0.4263
  124MOL    H5627362   1.456   0.328   3.767  0.6999  0.7349  1.6123
  124MOL    C5727363   1.425   0.124   3.744 -0.5303 -0.4620 -0.2065
  124MOL    C5827364   1.502   7.831   3.739  0.0782  0.6000 -0.2778
  124MOL    O5927365   1.542   7.771   3.642  0.2179  0.0354 -0.0651
  124MOL    C6027366   1.498   7.743   3.866 -0.0428  0.3379 -0.1513
  124MOL    C6127367   1.334   0.148   3.617  0.4121  0.3118  0.1321
  124MOL    H6227368   1.351   0.122   3.823 -0.5822 -0.9653 -0.2697
  124MOL    H6327369   1.458   7.644   3.846 -1.2775  0.9793 -0.8995
  124MOL    H6427370   1.596   7.726   3.910 -0.3793  1.1472  0.9671
  124MOL    H6527371   1.443   7.794   3.946 -1.1888  0.7239 -1.1583
  124MOL    H6627372   1.366   0.091   3.530 -2.4767 -0.6281 -0.3849
  124MOL    H6727373   1.335   0.250   3.579 -2.5681 -1.0487 -3.9557
  124MOL    C6827374   1.186   0.102   3.649  0.5025  0.6224  0.1141
  124MOL    C6927375   1.167   7.790   3.644  0.1736 -0.5135 -0.7982
  124MOL    O7027376   1.170   7.729   3.535  0.1089  0.2138  0.1349
  124MOL    C7127377   1.144   7.714   3.779 -0.0306 -0.3703  0.2391
  124MOL    C7227378   1.088   0.184   3.555  0.6174  0.0418 -0.2665
  124MOL    H7327379   1.165   0.115   3.755  2.9528 -2.4135  1.0388
  124MOL    H7427380   1.242   7.688   3.819  0.7387  2.7771  0.5920
  124MOL    H7527381   1.079   7.759   3.854  0.2984  0.5197 -0.0037
  124MOL    H7627382   1.082   7.630   3.748  2.2812 -0.3721 -4.9178
  124MOL    H7727383   1.050   0.132   3.467 -1.4229 -1.0862  1.2253
  124MOL    H7827384   1.146   0.261   3.505 -0.7328  0.1080 -1.7556
  124MOL    C7927385   0.967   0.233   3.628  0.0941  0.5393 -0.0346
  124MOL    C8027386   0.859   0.125   3.646 -0.2352  0.2783 -0.1289
  124MOL    O8127387   0.800   0.082   3.549  0.0654 -0.1171 -0.3051
  124MOL    C8227388   0.834   0.072   3.781 -0.0953  0.1733 -0.0863
  124MOL    C8327389   0.914   0.360   3.560 -0.1876  0.4522 -0.3566
  124MOL    H8427390   0.990   0.256   3.732 -1.1457  1.0128  0.1402
  124MOL    H8527391   0.863   7.809   3.780  3.4433  1.1141 -1.7492
  124MOL    H8627392   0.895   0.120   3.858  1.9251  0.4792 -1.8384
  124MOL    H8727393   0.726   0.079   3.798 -0.5826 -0.2196 -2.7345
  124MOL    H8827394   0.852   0.339   3.474 -1.4040 -0.0142  0.6277
  124MOL    H8927395   1.003   0.409   3.520 -1.5026  2.8555 -0.4608
  124MOL    C9027396   0.836   0.467   3.639 -1.0022 -0.2991 -0.5782
  124MOL    C9127397   0.920   0.543   3.752 -0.3498  0.2623 -0.3594
  124MOL    O9227398   1.012   0.491   3.815 -0.2361  0.0203  0.2332
  124MOL    C9327399   0.872   0.679   3.800 -0.4105 -0.5678 -0.0317
  124MOL    C9427400   0.705   0.414   3.699  0.6788  0.6093 -0.0965
  124MOL    H9527401   0.814   0.537   3.559 -1.6261 -0.3063 -0.4145
  124MOL    H9627402   0.950   0.744   3.840 -0.6272  0.2571 -0.9442
  124MOL    H9727403   0.822   0.727   3.716  1.1992  0.2823 -0.5262
  124MOL    H9827404   0.797   0.663   3.878 -1.4331 -1.7564 -1.2383
  124MOL    H9927405   0.669   0.486   3.772 -0.0772 -0.4188  0.5547
  124MOL   H10027406   0.706   0.323   3.759 -0.8290  1.6232  1.5346
  124MOL   C10127407   0.604   0.386   3.582 -0.1504  0.0809  0.7470
  124MOL   C10227408   0.556   0.525   3.532  0.6345  0.7848  0.2848
  124MOL   O10327409   0.591   0.562   3.426 -0.0254  0.3070  0.8307
  124MOL   C10427410   0.456   0.593   3.626 -0.2425 -0.3919 -0.3027
  124MOL   C10527411   0.490   0.294   3.628  0.2216  0.3591 -1.3346
  124MOL   H10627412   0.649   0.326   3.503  2.2320  2.3348  0.3276
  124MOL   H10727413   0.469   0.701   3.617 -0.4866 -0.5149 -2.4572
  124MOL   H10827414   0.355   0.568   3.593 -0.2689 -0.3186 -0.2770
  124MOL   H10927415   0.478   0.562   3.728  3.2338  1.3964 -0.4324
  124MOL   H11027416   0.429   0.338   3.708  0.1450  0.0094 -1.1988
  124MOL   H11127417   0.531   0.204   3.674  0.2086 -0.3948 -2.7857
  124MOL   C11227418   0.382   0.254   3.524  0.3045  0.1542 -0.1230
  124MOL   C11327419   0.247   0.201   3.589 -0.1519  0.7462 -0.4167
  124MOL   O11427420   0.143   0.267   3.566 -0.4799  0.2184 -0.0468
  124MOL   C11527421   0.242   0.073   3.681 -0.6325  0.1906  0.3531
  124MOL   C11627422   0.435   0.149   3.428  0.6438  0.4383 -0.3106
  124MOL   H11727423   0.351   0.341   3.465 -0.7705 -1.7435 -2.4922
  124MOL   H11827424   0.177   7.840   3.635  1.6155 -1.9905  0.6253
  124MOL   H11927425   0.344   0.038   3.696 -0.3723  0.4671 -0.7050
  124MOL   H12027426   0.206   0.107   3.778 -1.6993  0.5195 -0.1565
  124MOL   H12127427   0.366   0.065   3.427 -0.5715  1.3976  1.2252
  124MOL   H12227428   0.523   0.102   3.470 -0.0347 -0.6437 -0.0847
  124MOL   C12327429   0.464   0.186   3.275 -0.2182 -0.6085 -0.4542
  124MOL   C12427430   0.343   0.257   3.208  0.4351  0.2715 -0.3484
  124MOL   O12527431   0.228   0.257   3.256  0.0938  0.0479 -0.1907
  124MOL   C12627432   0.380   0.327   3.078 -0.4873  0.6754 -0.0823
  124MOL   C12727433   0.506   0.054   3.190 -0.5500 -0.2281  0.2557
  124MOL   H12827434   0.548   0.255   3.271 -1.7024  1.2258 -0.7147
  124MOL   H12927435   0.338   0.270   2.994  1.2588  1.4868 -1.5375
  124MOL   H13027436   0.319   0.417   3.074  1.3841  1.9166 -1.5898
  124MOL   H13127437   0.484   0.349   3.053 -0.7331 -0.5636 -2.3718
  124MOL   H13227438   0.478   0.070   3.086  0.6220  2.2638  0.2708
  124MOL   H13327439   0.440   7.813   3.216 -1.2201 -0.3516 -1.7705
  124MOL   C13427440   0.661   0.020   3.194  0.1564  0.8205  0.0521
  124MOL   C13527441   0.753   0.133   3.141 -0.0046 -0.0851  0.1418
  124MOL   O13627442   0.715   0.214   3.059 -0.2771 -0.0740 -0.3140
  124MOL   C13727443   0.899   0.134   3.186  0.2302 -0.0775 -0.1290
  124MOL   C13827444   0.708   7.745   3.096  0.0851  0.1981 -0.1081
  124MOL   H13927445   0.689   0.006   3.298 -1.6561  0.0754  0.4532
  124MOL   H14027446   0.918   0.181   3.282  0.5472  2.4847 -1.4161
  124MOL   H14127447   0.944   0.034   3.191 -3.5986 -2.0095 -2.0645
  124MOL   H14227448   0.946   0.193   3.107  0.2475 -0.1663 -0.1853
  124MOL   H14327449   0.814   7.724   3.090  0.5162  1.8705  1.2305
  124MOL   H14427450   0.698   7.780   2.993 -0.0490 -0.5673 -0.3602
  124MOL   C14527451   0.640   7.607   3.119  0.4386  0.4657 -0.3747
  124MOL   C14627452   0.666   7.546   3.262  0.0395  0.3286  1.1865
  124MOL   O14727453   0.780   7.514   3.296 -0.0003  0.2753  0.4178
  124MOL   C14827454   0.558   7.581   3.364 -0.1043 -0.9304 -0.1577
  124MOL   C14927455   0.683   7.510   3.003 -0.2796 -0.7464 -1.0295
  124MOL   H15027456   0.533   7.629   3.115  0.4246  0.5045  0.2078
  124MOL   H15127457   0.580   7.674   3.417 -1.5925 -0.8825  0.4048
  124MOL   H15227458   0.458   7.597   3.323  0.6282  0.1202 -1.5934
  124MOL   H15327459   0.545   7.511   3.447  2.4139 -0.8245  0.3727
  124MOL   H15427460   0.687   7.406   3.037 -1.4367 -1.0229 -1.6984
  124MOL   H15527461   0.791   7.526   2.997 -0.5273  1.3825  0.0040
  124MOL   C15627462   0.614   7.523   2.862  0.0302  0.3014 -0.7988
  124MOL   C15727463   0.472   7.456   2.871  0.2372  0.1161 -0.1933
  124MOL   O15827464   0.450   7.353   2.934  0.0616  0.1495 -0.0235
  124MOL   C15927465   0.354   7.542   2.821 -0.5711  0.0564  0.0738
  124MOL   C16027466   0.705   7.466   2.746  0.7286 -0.1565 -0.1637
  124MOL   H16127467   0.586   7.626   2.838  1.5042  0.9677  0.2370
  124MOL   H16227468   0.375   7.647   2.839  1.3676 -0.6859  2.4545
  124MOL   H16327469   0.344   7.519   2.714 -1.0419  2.8698 -0.5057
  124MOL   H16427470   0.268   7.507   2.877 -0.8317  2.1332  0.9769
  124MOL   H16527471   0.706   7.357   2.751  0.2783 -0.0577  3.7312
  124MOL   H16627472   0.809   7.497   2.754  0.5268  0.5478 -0.2355
  124MOL   C16727473   0.663   7.518   2.609  0.4137 -0.1671  0.5594
  124MOL   C16827474   0.723   7.417   2.503  0.4452  0.1317  0.1801
  124MOL   O16927475   0.639   7.355   2.434  0.0341 -0.0433 -0.0689
  124MOL   C17027476   0.870   7.386   2.505 -0.2881  0.3024  0.1458
  124MOL   C17127477   0.700   7.666   2.578 -0.8922  0.3591  0.2364
  124MOL   H17227478   0.557   7.499   2.594  0.3366 -0.8452  1.9301
  124MOL   H17327479   0.889   7.326   2.594 -0.5728 -2.2404 -1.4757
  124MOL   H17427480   0.893   7.314   2.426  1.0054  1.1694 -0.2887
  124MOL   H17527481   0.937   7.472   2.497  0.3719 -0.3990 -2.4898
  124MOL   H17627482   0.809   7.662   2.581 -0.8462 -1.3816 -2.4957
  124MOL   H17727483   0.670   7.724   2.666  0.5384 -0.7737  1.5124
  124MOL   C17827484   0.640   7.720   2.440  0.5540 -0.2620 -0.2369
  124MOL   C17927485   0.746   7.766   2.341  0.0871 -0.3194 -0.7718
  124MOL   O18027486   0.801   0.031   2.342  0.1104  0.1367  0.2203
  124MOL   C18127487   0.778   7.670   2.231 -0.7200 -0.4546  0.2664
  124MOL   C18227488   0.531   7.825   2.475  0.1441  0.4755  0.2383
  124MOL   H18327489   0.589   7.635   2.395 -1.2167  0.1026  1.0239
  124MOL   H18427490   0.727   7.705   2.141 -1.6888 -0.1834  0.9038
  124MOL   H18527491   0.885   7.666   2.213 -0.7281  2.3503 -0.6296
  124MOL   H18627492   0.731   7.573   2.250  0.7173 -0.9681  1.2332
  124MOL   H18727493   0.576   0.058   2.539  0.3108 -0.2971  1.0309
  124MOL   H18827494   0.456   7.774   2.536  1.0080 -0.6837  0.3598
  124MOL   C18927495   0.463   0.054   2.359 -0.4857  1.5655  0.2735
  124MOL   C19027496   0.386   0.177   2.401 -0.0642  0.4879  0.1972
  124MOL   O19127497   0.262   0.178   2.401 -0.3440  0.3665 -0.0221
  124MOL   C19227498   0.467   0.301   2.422  0.4938 -0.1882 -0.3660
  124MOL   C19327499   0.385   7.806   2.258 -0.2882  0.3194 -0.4413
  124MOL   H19427500   0.545   0.101   2.305 -0.4694  0.6398 -0.5060
  124MOL   H19527501   0.469   0.311   2.530  1.9748 -1.5086 -0.2569
  124MOL   H19627502   0.569   0.285   2.387 -0.2665  1.3049 -3.5055
  124MOL   H19727503   0.416   0.382   2.370  1.5825  0.9448  0.2939
  124MOL   H19827504   0.457   7.733   2.221  1.6025  2.0614 -0.3082
  124MOL   H19927505   0.344   0.032   2.183 -2.1998 -0.0267  0.2615
  124MOL   C20027506   0.254   7.738   2.304 -0.1462 -0.1935 -0.2774
  124MOL   C20127507   0.272   7.614   2.387  0.4011 -0.5940  0.1128
  124MOL   O20227508   0.268   7.619   2.511  0.1177  0.3552  0.1482
  124MOL   C20327509   0.316   7.486   2.316  0.0891  0.2340  0.3604
  124MOL   C20427510   0.165   7.716   2.183  0.4969  0.6720  0.4519
  124MOL   H20527511   0.199   7.799   2.376  0.1399 -0.4699  0.1782
  124MOL   H20627512   0.397   7.443   2.376  0.2598 -1.1422 -0.8261
  124MOL   H20727513   0.240   7.408   2.321 -0.9208  1.2581  1.2379
  124MOL   H20827514   0.359   7.498   2.216  1.4926 -3.7805  0.3821
  124MOL   H20927515   0.099   7.633   2.211  2.5741 -1.4724 -0.8135
  124MOL   H21027516   0.222   7.674   2.100  0.8431  2.9024 -0.4521
  124MOL   C21127517   0.080   0.002   2.138 -0.5264  0.0309 -0.3891
  124MOL   C21227518   7.786   7.835   2.208  0.3622  0.2860  0.2711
  124MOL   O21327519   7.719   7.727   2.206  0.1573 -0.1570 -0.4971
  124MOL   C21427520   7.728   0.115   2.277  0.6491  0.2504  0.3283
  124MOL   C21527521   0.076   7.840   1.983 -0.4395  0.4085  0.5718
  124MOL   H21627522   0.130   0.094   2.169 -1.2068  0.3007 -0.0656
  124MOL   H21727523   7.791   0.130   2.365  0.2635 -0.5224  0.7466
  124MOL   H21827524   7.738   0.207   2.219 -1.0763  0.3145  0.0989
  124MOL   H21927525   7.623   0.112   2.306  0.7693 -2.3286  0.6033
  124MOL   H22027526   0.051   0.094   1.935 -0.0157  0.0279 -0.4313
  124MOL   H22127527   7.841   7.774   1.944  0.3838 -0.2282  0.0286
  124MOL   H22227528   0.174   7.818   1.941  0.1408  0.2954  1.9691
  125MOL     C127529   4.582   2.457   7.671  0.2148 -0.7395 -0.0752
  125MOL     C227530   4.475   2.455   7.556 -0.1027  0.1845  0.3446
  125MOL     O327531   4.484   2.366   7.476 -0.1310 -0.4418 -0.8439
  125MOL     C427532   4.371   2.564   7.556  0.2253  0.4743  0.4393
  125MOL     C527533   4.714   2.544   7.641  0.1714  0.3312 -0.7613
  125MOL     H627534   4.533   2.501   7.758  0.3687 -2.1540  0.7540
  125MOL     H727535   4.300   2.541   7.635 -0.7041  1.0186 -0.2178
  125MOL     H827536   4.416   2.663   7.567  0.8011  0.6678 -2.9079
  125MOL     H927537   4.323   2.568   7.458 -1.3599 -2.8822  1.0235
  125MOL    H1027538   4.757   2.556   7.740  0.1261 -0.2659 -0.6668
  125MOL    H1127539   4.677   2.643   7.612 -0.3992 -0.0541 -1.3745
  125MOL    H1227540   4.602   2.355   7.704 -0.4063 -0.9808 -0.4391
  125MOL    C1327541   4.815   2.498   7.539 -0.0334  0.2300 -0.5385
  125MOL    C1427542   4.863   2.354   7.546 -0.0024  0.4304  0.6266
  125MOL    O1527543   4.949   2.315   7.622  0.7336 -0.5695  0.1624
  125MOL    C1627544   4.801   2.252   7.452  0.2839 -0.1271  0.5531
  125MOL    C1727545   4.929   2.605   7.534 -0.5831 -0.1350  0.4152
  125MOL    H1827546   4.753   2.500   7.449 -2.2395 -0.7530  0.9152
  125MOL    H1927547   4.849   2.155   7.464  0.4410  0.1683  2.3738
  125MOL    H2027548   4.696   2.229   7.471 -0.0814  1.8782  1.0099
  125MOL    H2127549   4.817   2.281   7.348  1.3887  2.4601  1.4165
  125MOL    H2227550   5.007   2.570   7.602 -0.1485 -1.7541 -0.8688
  125MOL    H2327551   4.891   2.700   7.572 -1.3739 -0.3860  0.2731
  125MOL    C2427552   4.987   2.634   7.394  0.2674 -0.0894 -0.2653
  125MOL    C2527553   4.878   2.688   7.299 -0.9037  0.2019  0.4571
  125MOL    O2627554   4.792   2.621   7.248 -0.6081 -0.1248  0.9526
  125MOL    C2727555   4.895   2.833   7.254  0.3023 -0.6005  1.1002
  125MOL    C2827556   5.066   2.514   7.341  0.1556  0.1757  0.1060
  125MOL    H2927557   5.063   2.712   7.403  0.6736 -0.5893  0.7319
  125MOL    H3027558   4.907   2.845   7.146  2.8398 -0.8715  1.3110
  125MOL    H3127559   4.818   2.901   7.290 -0.1315  0.2092 -1.2283
  125MOL    H3227560   4.991   2.867   7.294  1.8838  0.5879 -3.3465
  125MOL    H3327561   4.997   2.432   7.318 -0.0305  0.2787  0.2996
  125MOL    H3427562   5.132   2.476   7.418  0.4825 -1.6651 -1.0533
  125MOL    C3527563   5.154   2.531   7.220  0.1308 -0.3060 -0.3197
  125MOL    C3627564   5.236   2.660   7.232 -0.2140  0.3741  0.7594
  125MOL    O3727565   5.191   2.759   7.177  0.1415  0.5275 -0.0410
  125MOL    C3827566   5.357   2.668   7.321  0.1129 -0.2845 -0.2602
  125MOL    C3927567   5.078   2.520   7.087 -0.3130 -0.4629 -0.6529
  125MOL    H4027568   5.214   2.440   7.213  0.0093 -0.2860 -1.9797
  125MOL    H4127569   5.453   2.650   7.274 -0.3081 -0.6118 -1.0061
  125MOL    H4227570   5.344   2.770   7.357  0.2623  0.4656 -2.2626
  125MOL    H4327571   5.354   2.600   7.407 -1.6410 -0.5293 -0.4949
  125MOL    H4427572   5.035   2.613   7.051  2.0719  1.0319  0.2175
  125MOL    H4527573   4.992   2.457   7.108 -1.6775  2.1926  2.0043
  125MOL    C4627574   5.145   2.460   6.966  0.4925 -0.5256 -0.3270
  125MOL    C4727575   5.198   2.318   7.004 -0.2555 -0.1314  0.3040
  125MOL    O4827576   5.320   2.295   7.019 -0.2688  0.4182 -0.5362
  125MOL    C4927577   5.090   2.210   7.029 -0.8226  0.4070 -0.0222
  125MOL    C5027578   5.258   2.551   6.912 -0.0948 -0.4059  0.0743
  125MOL    H5127579   5.067   2.445   6.891  0.7168 -0.2436 -0.6198
  125MOL    H5227580   5.133   2.112   7.050 -0.9237  0.0317 -1.5496
  125MOL    H5327581   5.007   2.239   7.094  0.6769  1.7485  1.3411
  125MOL    H5427582   5.042   2.189   6.934 -0.7347  0.0058  0.0208
  125MOL    H5527583   5.312   2.498   6.833 -0.5985  0.2246 -0.7109
  125MOL    H5627584   5.337   2.575   6.983  0.1356 -2.4433  0.5374
  125MOL    C5727585   5.209   2.679   6.837 -0.3597  0.0820 -0.7124
  125MOL    C5827586   5.118   2.644   6.719  0.2834 -0.5302 -0.0415
  125MOL    O5927587   5.127   2.537   6.657 -0.1013  0.0555  0.1412
  125MOL    C6027588   5.014   2.743   6.679 -0.1899 -0.1521 -0.1161
  125MOL    C6127589   5.323   2.773   6.785  0.5109  0.5966 -0.0375
  125MOL    H6227590   5.129   2.731   6.890  0.2143 -0.1068  0.3433
  125MOL    H6327591   5.070   2.836   6.670  1.0029 -0.5142  2.8908
  125MOL    H6427592   4.962   2.715   6.588  0.5743 -2.5026  0.1375
  125MOL    H6527593   4.940   2.745   6.759 -0.1103  0.6211 -0.0599
  125MOL    H6627594   5.296   2.812   6.687 -0.3662 -0.2516 -0.1320
  125MOL    H6727595   5.407   2.706   6.766 -1.1541 -2.0960  1.8235
  125MOL    C6827596   5.375   2.875   6.892 -0.3077  0.8103 -0.5893
  125MOL    C6927597   5.262   2.970   6.934  0.3564 -0.4229  0.2472
  125MOL    O7027598   5.156   2.978   6.866  0.0311  0.6045  0.0670
  125MOL    C7127599   5.273   3.045   7.063  0.1416  0.5106 -0.7837
  125MOL    C7227600   5.492   2.957   6.846 -0.0061 -0.4966 -0.5868
  125MOL    H7327601   5.404   2.819   6.981  0.1892  0.8342 -0.7328
  125MOL    H7427602   5.197   3.005   7.130  0.8417  1.5313  0.6485
  125MOL    H7527603   5.374   3.044   7.104 -0.3205  0.7075  0.3806
  125MOL    H7627604   5.248   3.149   7.042  0.8456  0.5263 -1.5426
  125MOL    H7727605   5.479   3.060   6.880 -0.2729 -0.6519 -0.2103
  125MOL    H7827606   5.498   2.948   6.738 -0.8931  0.7430 -0.7466
  125MOL    C7927607   5.627   2.913   6.906  0.0331 -0.0682  0.2450
  125MOL    C8027608   5.657   2.764   6.885  0.0358 -0.3598 -0.2141
  125MOL    O8127609   5.632   2.688   6.978 -0.4990 -0.4324 -0.2001
  125MOL    C8227610   5.701   2.710   6.749  0.5427  0.5554  0.3513
  125MOL    C8327611   5.646   2.969   7.056 -0.4305 -0.4913 -0.0903
  125MOL    H8427612   5.710   2.955   6.850  0.8561 -1.3955  0.4567
  125MOL    H8527613   5.728   2.604   6.755  0.9988  0.7235  1.4567
  125MOL    H8627614   5.611   2.689   6.691  1.0867  0.1923 -0.3582
  125MOL    H8727615   5.777   2.772   6.703  2.3274  0.4225  2.9893
  125MOL    H8827616   5.574   2.911   7.114 -1.8488  0.3931 -0.9285
  125MOL    H8927617   5.613   3.073   7.057  0.5145 -0.1880  0.5205
  125MOL    C9027618   5.788   2.952   7.125  0.1496 -0.4363 -0.1421
  125MOL    C9127619   5.794   2.994   7.270  0.7291 -0.0672 -0.0469
  125MOL    O9227620   5.733   3.090   7.319  0.1512  0.1082  0.1286
  125MOL    C9327621   5.894   2.920   7.356 -0.4807  0.0796  0.4178
  125MOL    C9427622   5.904   3.014   7.040 -0.5466 -0.7969 -0.9974
  125MOL    H9527623   5.810   2.846   7.137  0.8039 -0.3040 -0.1789
  125MOL    H9627624   5.959   2.998   7.394 -1.7004  1.0343  0.5899
  125MOL    H9727625   5.856   2.861   7.439  0.2561 -0.4985  0.3449
  125MOL    H9827626   5.964   2.861   7.297 -0.7315  1.1482 -0.9816
  125MOL    H9927627   5.919   2.966   6.943 -1.0613 -1.6651 -0.6521
  125MOL   H10027628   5.993   2.995   7.100 -0.2075  3.0077 -0.1628
  125MOL   C10127629   5.896   3.166   7.019 -0.2624 -0.5065 -0.5900
  125MOL   C10227630   5.921   3.201   6.871 -0.4033 -0.0158 -0.4734
  125MOL   O10327631   6.035   3.203   6.829 -0.4620 -0.2404 -0.8218
  125MOL   C10427632   5.809   3.229   6.771 -0.1345 -0.0116 -0.2997
  125MOL   C10527633   5.980   3.256   7.105 -0.6915  0.0895 -0.0034
  125MOL   H10627634   5.791   3.197   7.023  0.1992  0.9084  0.8466
  125MOL   H10727635   5.730   3.154   6.758  0.6632 -0.8816 -0.2155
  125MOL   H10827636   5.763   3.324   6.797  0.0011  0.1853 -0.7683
  125MOL   H10927637   5.849   3.238   6.670 -0.6779  1.3657 -0.3989
  125MOL   H11027638   6.080   3.238   7.066 -1.1888 -1.8701 -0.4297
  125MOL   H11127639   5.991   3.227   7.209 -0.0453 -0.2729 -0.1729
  125MOL   C11227640   5.949   3.410   7.095  0.2825  0.0431  0.2289
  125MOL   C11327641   6.067   3.496   7.109 -0.0466 -0.3962 -1.0194
  125MOL   O11427642   6.171   3.460   7.155  0.1063 -0.3580  0.1891
  125MOL   C11527643   6.060   3.640   7.055 -0.1708 -0.3989  0.6871
  125MOL   C11627644   5.849   3.436   7.215 -0.3517  0.3341 -0.1597
  125MOL   H11727645   5.903   3.432   6.998 -0.0003 -1.9232 -0.1062
  125MOL   H11827646   5.965   3.672   7.014 -0.3508 -2.1243 -0.2964
  125MOL   H11927647   6.085   3.705   7.139 -0.3555 -1.6569  1.7276
  125MOL   H12027648   6.143   3.648   6.984  0.2107  1.3923  1.3160
  125MOL   H12127649   5.907   3.444   7.307 -0.3221 -1.4474 -0.0137
  125MOL   H12227650   5.775   3.362   7.245 -0.6354  0.1534 -1.2972
  125MOL   C12327651   5.774   3.575   7.197 -0.4804 -0.2465 -0.6925
  125MOL   C12427652   5.746   3.637   7.338 -0.0923  0.1343 -0.2370
  125MOL   O12527653   5.730   3.565   7.437  0.2277  0.0982  0.0943
  125MOL   C12627654   5.775   3.781   7.356  0.0676 -0.7424  0.5247
  125MOL   C12727655   5.656   3.579   7.100 -0.3968  0.1059  0.7729
  125MOL   H12827656   5.840   3.648   7.150  0.2610  0.1242  0.8985
  125MOL   H12927657   5.688   3.825   7.306 -0.1915  1.2884  2.6373
  125MOL   H13027658   5.770   3.813   7.460  0.2082 -1.1353  0.6527
  125MOL   H13127659   5.874   3.806   7.319 -0.0965  1.3309  1.3867
  125MOL   H13227660   5.691   3.517   7.017 -1.0719 -1.2346  1.4639
  125MOL   H13327661   5.647   3.683   7.071 -0.0917  0.1543  0.8464
  125MOL   C13427662   5.519   3.528   7.142 -0.3083  0.4079 -0.2730
  125MOL   C13527663   5.502   3.377   7.128 -0.4074  0.5886 -0.2281
  125MOL   O13627664   5.492   3.312   7.022 -0.0875  0.2248  0.9153
  125MOL   C13727665   5.501   3.290   7.256 -1.0886 -0.0502 -0.3466
  125MOL   C13827666   5.416   3.603   7.060  0.5536  0.0052  0.6870
  125MOL   H13927667   5.497   3.558   7.245 -0.7953 -0.3477 -0.1502
  125MOL   H14027668   5.528   3.187   7.231  0.7037  0.2987  0.0497
  125MOL   H14127669   5.568   3.332   7.331 -0.5632  1.1670 -1.4802
  125MOL   H14227670   5.400   3.275   7.294 -1.2880  0.0582 -0.8321
  125MOL   H14327671   5.445   3.577   6.958 -0.2726  2.2502 -0.1601
  125MOL   H14427672   5.430   3.711   7.064 -0.2523  0.1682 -0.8000
  125MOL   C14527673   5.261   3.587   7.080  0.1305  0.2192 -0.2551
  125MOL   C14627674   5.198   3.676   6.970 -0.2110  0.4797 -0.7359
  125MOL   O14727675   5.253   3.773   6.931  0.4456 -0.0332 -0.3030
  125MOL   C14827676   5.065   3.639   6.907 -1.1996  0.4061  0.1332
  125MOL   C14927677   5.199   3.604   7.217 -0.4705  0.0624 -0.2609
  125MOL   H15027678   5.237   3.488   7.041  0.4696  0.1866 -0.3835
  125MOL   H15127679   4.995   3.681   6.978 -0.1082 -1.2643  2.2413
  125MOL   H15227680   5.046   3.664   6.802  0.3585  0.6399 -0.1053
  125MOL   H15327681   5.065   3.530   6.912  4.0441  0.0463 -3.3484
  125MOL   H15427682   5.228   3.518   7.278 -1.4013 -0.8293 -1.0573
  125MOL   H15527683   5.092   3.592   7.198 -0.7348  5.2942 -3.0756
  125MOL   C15627684   5.225   3.731   7.298 -0.0053 -0.6927  0.8487
  125MOL   C15727685   5.356   3.726   7.369  0.2949 -0.0138 -0.0337
  125MOL   O15827686   5.460   3.783   7.333  1.2625 -0.1050 -0.6448
  125MOL   C15927687   5.362   3.643   7.495  1.0584 -0.0179 -0.7366
  125MOL   C16027688   5.106   3.752   7.401 -0.3870 -0.4181  0.5534
  125MOL   H16127689   5.218   3.812   7.226  0.8922  0.1046  1.6489
  125MOL   H16227690   5.463   3.605   7.515  1.7375  1.8208 -0.5396
  125MOL   H16327691   5.338   3.707   7.580  1.2220  1.4731 -1.7837
  125MOL   H16427692   5.297   3.557   7.489  2.8400 -1.4394 -0.1285
  125MOL   H16527693   5.104   3.674   7.476 -0.0048 -0.3957  0.5874
  125MOL   H16627694   5.013   3.741   7.344  0.6569  0.9739 -1.4804
  125MOL   C16727695   5.088   3.883   7.470 -1.2335 -0.2811 -0.5364
  125MOL   C16827696   4.978   3.866   7.582  0.0029  0.0746  0.2109
  125MOL   O16927697   4.859   3.887   7.553  0.0021  0.7392  0.1001
  125MOL   C17027698   5.029   3.830   7.722  0.1923  0.1957 -0.1889
  125MOL   C17127699   5.063   3.998   7.374  0.3956 -0.0719  0.1436
  125MOL   H17227700   5.175   3.908   7.531 -0.5345  0.0022 -1.6384
  125MOL   H17327701   4.947   3.846   7.792  1.1970 -0.2932  1.1131
  125MOL   H17427702   5.068   3.729   7.729 -1.2016 -0.2274  1.5866
  125MOL   H17527703   5.113   3.894   7.751 -0.2280  0.4205  0.5481
  125MOL   H17627704   5.008   4.076   7.426 -1.3340 -1.0235 -0.2335
  125MOL   H17727705   5.001   3.975   7.288 -0.7650  1.1179  0.6486
  125MOL   C17827706   5.191   4.076   7.337  0.4614  0.1819 -0.3240
  125MOL   C17927707   5.270   4.130   7.451 -0.1702  0.5196 -0.5208
  125MOL   O18027708   5.214   4.189   7.543  0.3344 -0.5865 -0.8771
  125MOL   C18127709   5.421   4.111   7.453 -0.3126 -0.3073  0.2061
  125MOL   C18227710   5.169   4.170   7.217 -0.0374 -0.8907  0.7336
  125MOL   H18327711   5.247   3.985   7.311 -0.1939 -0.5161  0.6885
  125MOL   H18427712   5.465   4.021   7.410  1.1160  0.8106 -0.7471
  125MOL   H18527713   5.458   4.192   7.390 -0.2971  0.7855  1.6206
  125MOL   H18627714   5.466   4.112   7.552  0.9793 -4.2736 -0.2336
  125MOL   H18727715   5.210   4.266   7.248  0.9096 -0.2003 -2.5355
  125MOL   H18827716   5.064   4.197   7.200  0.2664  0.4874  1.0073
  125MOL   C18927717   5.236   4.122   7.086  0.0792 -0.0107  0.7024
  125MOL   C19027718   5.386   4.137   7.100  0.0473 -0.5130  0.7954
  125MOL   O19127719   5.436   4.242   7.135 -0.4431  0.3062  0.7798
  125MOL   C19227720   5.470   4.018   7.067  0.2919 -0.3937  0.4771
  125MOL   C19327721   5.184   4.210   6.968 -0.7515  0.0284 -0.5582
  125MOL   H19427722   5.212   4.017   7.070  0.6798 -0.3608  1.9788
  125MOL   H19527723   5.410   3.927   7.065  1.1442 -0.9358 -2.3821
  125MOL   H19627724   5.513   4.024   6.967 -0.5111 -2.3974 -0.0141
  125MOL   H19727725   5.544   3.989   7.142  0.1878 -0.2287  0.6440
  125MOL   H19827726   5.234   4.175   6.878 -1.7850 -0.2579 -1.0274
  125MOL   H19927727   5.213   4.315   6.982 -0.0917 -0.3902  1.4184
  125MOL   C20027728   5.037   4.210   6.927 -0.3909 -0.0252  0.0470
  125MOL   C20127729   4.967   4.071   6.908 -0.4685  0.3134 -0.6364
  125MOL   O20227730   4.959   4.011   6.800 -0.0964  0.1830  0.3560
  125MOL   C20327731   4.905   3.998   7.025  0.7027 -0.3416 -0.0002
  125MOL   C20427732   5.031   4.291   6.796 -0.0635  0.3896 -0.5831
  125MOL   H20527733   4.981   4.261   7.006 -1.5452  1.0139 -1.4166
  125MOL   H20627734   4.979   3.932   7.072 -1.3532 -0.8380  2.6386
  125MOL   H20727735   4.856   4.068   7.093 -0.9371 -0.4917 -1.0043
  125MOL   H20827736   4.838   3.924   6.982  1.4113 -1.7189  1.2175
  125MOL   H20927737   5.086   4.233   6.721  0.4442 -2.5460  1.9589
  125MOL   H21027738   5.090   4.381   6.813  1.9100 -0.7439 -1.3076
  125MOL   C21127739   4.888   4.335   6.765  0.2168 -0.0198 -0.0860
  125MOL   C21227740   4.878   4.376   6.624  0.6861  0.0096 -0.5580
  125MOL   O21327741   4.889   4.491   6.586 -0.5305 -0.2480  0.1421
  125MOL   C21427742   4.838   4.263   6.524 -0.2911 -0.3970  0.4100
  125MOL   C21527743   4.848   4.463   6.840 -0.0985 -0.6639 -0.4928
  125MOL   H21627744   4.821   4.253   6.790  0.2903  0.6872  2.5543
  125MOL   H21727745   4.838   4.313   6.428  0.7119 -0.8725  0.1532
  125MOL   H21827746   4.901   4.175   6.527  0.7996  0.3951  1.4469
  125MOL   H21927747   4.733   4.243   6.545  0.1551 -0.9455  2.2085
  125MOL   H22027748   4.744   4.489   6.821  0.3811  1.3096 -0.5024
  125MOL   H22127749   4.916   4.545   6.817  1.4151 -1.4281  1.1509
  125MOL   H22227750   4.856   4.439   6.946 -1.7753  2.4756  0.3895
  126MOL     C127751   3.165   3.579   3.635  0.1370 -0.0226  0.0151
  126MOL     C227752   3.297   3.632   3.665 -0.4696 -0.2674 -0.9751
  126MOL     O327753   3.403   3.610   3.601 -0.2108 -0.0293  0.2684
  126MOL     C427754   3.300   3.711   3.802  0.6413 -0.2006 -0.5611
  126MOL     C527755   3.168   3.467   3.528  0.3978  0.5519 -0.0607
  126MOL     H627756   3.118   3.539   3.724  0.6047 -1.6153 -0.4274
  126MOL     H727757   3.214   3.677   3.860  0.7083 -0.9083 -0.8665
  126MOL     H827758   3.389   3.695   3.861 -0.6765 -1.3879  1.1478
  126MOL     H927759   3.293   3.819   3.786  0.2736  0.2761  2.5996
  126MOL    H1027760   3.255   3.408   3.557  0.4451  1.3991  1.6079
  126MOL    H1127761   3.195   3.505   3.430 -0.6769  0.6318 -0.3346
  126MOL    H1227762   3.102   3.656   3.591  1.5550  1.6784  0.8908
  126MOL    C1327763   3.034   3.382   3.524 -0.5026 -0.1475  0.3271
  126MOL    C1427764   3.018   3.294   3.648 -0.3821  0.7070 -0.2438
  126MOL    O1527765   3.110   3.282   3.730 -0.2830  0.2333 -0.0292
  126MOL    C1627766   2.894   3.207   3.664 -0.1233  0.4100  0.1540
  126MOL    C1727767   3.029   3.301   3.395 -0.6989  0.0207 -0.0290
  126MOL    H1827768   2.955   3.457   3.524  0.7055  1.1798  2.1586
  126MOL    H1927769   2.809   3.242   3.605 -1.8172  0.2438  2.4181
  126MOL    H2027770   2.912   3.110   3.618 -0.1047  1.2241 -1.6071
  126MOL    H2127771   2.861   3.187   3.766 -1.9106  0.0542 -0.4766
  126MOL    H2227772   3.069   3.202   3.414 -0.7351  0.2247  1.1677
  126MOL    H2327773   3.100   3.346   3.325  0.1120 -1.9026 -0.4698
  126MOL    C2427774   2.891   3.290   3.321 -0.1513  0.1005  0.3997
  126MOL    C2527775   2.910   3.180   3.220  0.3862  0.5907 -0.1966
  126MOL    O2627776   2.912   3.203   3.101  0.2763  0.0216 -0.7228
  126MOL    C2727777   2.914   3.036   3.266 -0.9939 -0.2321  0.2833
  126MOL    C2827778   2.857   3.428   3.253  0.1074  0.1854  0.1436
  126MOL    H2927779   2.811   3.260   3.389 -2.7918  0.5352 -2.4005
  126MOL    H3027780   2.875   2.961   3.197 -1.2593 -0.5399  0.7604
  126MOL    H3127781   3.018   3.008   3.284 -0.4911  1.4354  0.1031
  126MOL    H3227782   2.870   3.016   3.364 -1.1796 -1.9420 -0.1289
  126MOL    H3327783   2.933   3.465   3.184  1.1848 -0.0723  1.1725
  126MOL    H3427784   2.860   3.502   3.333 -2.4650  0.0257  0.4322
  126MOL    C3527785   2.715   3.446   3.200  0.0680 -0.0707 -0.6923
  126MOL    C3627786   2.727   3.504   3.055  0.3453 -0.4314 -0.0512
  126MOL    O3727787   2.809   3.595   3.039  0.0597  0.1888  0.1893
  126MOL    C3827788   2.634   3.451   2.940 -0.6813 -0.3013  0.1475
  126MOL    C3927789   2.632   3.542   3.288  0.3351 -0.1987 -0.0935
  126MOL    H4027790   2.667   3.348   3.203  2.0637 -1.0453  0.2907
  126MOL    H4127791   2.702   3.404   2.868 -3.1962 -2.8143 -0.7079
  126MOL    H4227792   2.567   3.379   2.988 -0.1625 -0.3124  0.8460
  126MOL    H4327793   2.579   3.533   2.894  0.3658  0.8989  1.0294
  126MOL    H4427794   2.682   3.639   3.295 -0.6815  0.3163  0.0302
  126MOL    H4527795   2.642   3.511   3.392 -0.6578 -0.4343 -0.0710
  126MOL    C4627796   2.484   3.573   3.241 -0.7788  0.5743  0.7364
  126MOL    C4727797   2.410   3.684   3.318  0.0307 -0.6855  0.5918
  126MOL    O4827798   2.442   3.696   3.440  0.0334  0.3583 -0.4707
  126MOL    C4927799   2.300   3.765   3.245  0.2361 -0.2477  0.0062
  126MOL    C5027800   2.398   3.449   3.240  0.1216  0.7776 -0.3365
  126MOL    H5127801   2.487   3.611   3.139 -2.9060  0.1546  0.5134
  126MOL    H5227802   2.338   3.791   3.147  0.1788 -1.2240 -0.2809
  126MOL    H5327803   2.208   3.710   3.223  0.0215 -0.7998  2.1734
  126MOL    H5427804   2.276   3.855   3.302  0.7351 -0.8612  1.2001
  126MOL    H5527805   2.443   3.371   3.179 -0.9341  1.3565 -1.9122
  126MOL    H5627806   2.311   3.487   3.185 -0.6641 -0.1583  0.2479
  126MOL    C5727807   2.341   3.379   3.367 -0.2376 -0.7622 -0.3738
  126MOL    C5827808   2.455   3.308   3.444  0.1804  0.6289  0.2629
  126MOL    O5927809   2.543   3.235   3.383  0.0843  0.0377  0.0341
  126MOL    C6027810   2.453   3.322   3.599  0.2114 -0.7227  0.4601
  126MOL    C6127811   2.232   3.279   3.320  0.0184 -0.5674 -0.7462
  126MOL    H6227812   2.305   3.456   3.435  0.4090 -1.7622  1.1547
  126MOL    H6327813   2.420   3.422   3.627 -3.2195 -1.7594  0.4092
  126MOL    H6427814   2.388   3.252   3.651 -0.8045 -0.6351 -0.6668
  126MOL    H6527815   2.554   3.301   3.634  0.1454 -3.0054 -0.6455
  126MOL    H6627816   2.270   3.179   3.342  0.1587 -0.4001 -0.2149
  126MOL    H6727817   2.220   3.290   3.213  0.2216  0.8946 -0.6229
  126MOL    C6827818   2.096   3.294   3.394  0.0076  0.1248  0.5250
  126MOL    C6927819   2.017   3.409   3.348 -0.0330  0.6686  0.1663
  126MOL    O7027820   2.056   3.524   3.374  0.2359 -0.4663  0.4038
  126MOL    C7127821   1.896   3.375   3.262  0.4595  0.4630 -0.3427
  126MOL    C7227822   2.106   3.276   3.546  0.0609  0.1462  0.4906
  126MOL    H7327823   2.035   3.212   3.358  0.1224 -0.0409  0.7032
  126MOL    H7427824   1.940   3.320   3.179  0.2113  0.2492 -0.3350
  126MOL    H7527825   1.816   3.329   3.320  2.1363  1.4576  2.8752
  126MOL    H7627826   1.855   3.467   3.221 -0.8239 -0.4074 -1.0543
  126MOL    H7727827   2.153   3.369   3.578 -1.2790  0.6188  1.1017
  126MOL    H7827828   2.180   3.199   3.567 -2.1278 -2.1425 -0.0301
  126MOL    C7927829   1.968   3.244   3.604  0.6306  0.4262 -0.2042
  126MOL    C8027830   1.986   3.271   3.754  0.7463 -0.7799  0.3125
  126MOL    O8127831   2.010   3.180   3.834  0.2017 -0.6263 -0.1070
  126MOL    C8227832   1.979   3.421   3.797 -0.4504 -0.2359  0.3977
  126MOL    C8327833   1.927   3.098   3.579 -0.3357 -0.3453 -0.4200
  126MOL    H8427834   1.891   3.310   3.566  0.3564 -0.2732 -0.8675
  126MOL    H8527835   1.915   3.435   3.884  0.5459  1.6160  0.8462
  126MOL    H8627836   2.081   3.456   3.813 -0.1912 -0.2065 -1.2384
  126MOL    H8727837   1.932   3.485   3.723  1.0595  1.0143  0.4849
  126MOL    H8827838   2.009   3.037   3.617  0.4509  1.4571  0.8186
  126MOL    H8927839   1.924   3.069   3.473 -0.0169  0.0203 -0.5315
  126MOL    C9027840   1.798   3.048   3.643 -0.0186 -0.5390 -0.1238
  126MOL    C9127841   1.801   2.898   3.678  0.0032  0.1031 -0.4013
  126MOL    O9227842   1.761   2.810   3.602 -0.6482 -0.0241 -0.5446
  126MOL    C9327843   1.872   2.848   3.807  0.4126 -0.1434  0.1999
  126MOL    C9427844   1.681   3.094   3.551 -0.2344  0.3163  0.1600
  126MOL    H9527845   1.784   3.098   3.739  2.3830 -0.3166  0.1611
  126MOL    H9627846   1.798   2.841   3.887 -0.4233 -2.8713 -0.7177
  126MOL    H9727847   1.921   2.750   3.800 -0.3909 -0.4807 -0.9469
  126MOL    H9827848   1.939   2.925   3.845 -0.4514  1.9001 -2.2605
  126MOL    H9927849   1.706   3.056   3.452  2.4038  0.1539  0.8488
  126MOL   H10027850   1.691   3.199   3.521 -0.2127  0.4211  0.5278
  126MOL   C10127851   1.536   3.074   3.597  0.2253 -0.5783 -0.3358
  126MOL   C10227852   1.440   3.064   3.476  0.0756  0.2079  0.0837
  126MOL   O10327853   1.440   3.134   3.376  0.4505  0.0836  0.2203
  126MOL   C10427854   1.335   2.958   3.498 -0.7097 -0.6137  0.1234
  126MOL   C10527855   1.480   3.172   3.706 -0.1503 -0.7296  0.0442
  126MOL   H10627856   1.541   2.975   3.642  2.8009 -0.4428 -0.2257
  126MOL   H10727857   1.334   2.904   3.404 -0.6836 -1.0357  0.3635
  126MOL   H10827858   1.338   2.895   3.587 -2.0109  0.3495  0.8755
  126MOL   H10927859   1.240   3.009   3.514 -0.6640 -0.6296  0.4619
  126MOL   H11027860   1.559   3.207   3.772 -1.1342  1.1799  0.2822
  126MOL   H11127861   1.409   3.120   3.770 -0.4664  0.5474  0.7596
  126MOL   C11227862   1.414   3.307   3.653  0.4854 -0.0131  0.3425
  126MOL   C11327863   1.521   3.413   3.619 -0.3569 -0.3596  0.6895
  126MOL   O11427864   1.637   3.410   3.661 -0.9334 -0.3438  0.1217
  126MOL   C11527865   1.479   3.517   3.518  0.0425 -0.2021 -0.1559
  126MOL   C11627866   1.315   3.365   3.758 -0.2385  0.0460 -0.2897
  126MOL   H11727867   1.359   3.288   3.561  0.2855  2.5562 -0.0898
  126MOL   H11827868   1.542   3.605   3.533 -2.2776  1.8423 -2.1041
  126MOL   H11927869   1.495   3.478   3.418 -3.2233  1.1467 -1.2621
  126MOL   H12027870   1.374   3.539   3.532  0.5533  1.6177  0.9478
  126MOL   H12127871   1.323   3.472   3.776 -2.8914  0.1476  0.4830
  126MOL   H12227872   1.330   3.323   3.857  0.3414  0.2611 -0.2819
  126MOL   C12327873   1.163   3.325   3.721 -0.3988 -0.0103 -0.4018
  126MOL   C12427874   1.090   3.430   3.634  0.3564  0.9526 -0.3027
  126MOL   O12527875   1.122   3.548   3.636  0.4192  0.2031  0.0660
  126MOL   C12627876   0.981   3.379   3.545  0.1598 -0.1719  0.4346
  126MOL   C12727877   1.081   3.301   3.853 -0.3752  0.5899 -0.2849
  126MOL   H12827878   1.170   3.232   3.663 -0.3330  1.1031 -2.2307
  126MOL   H12927879   0.914   3.311   3.598 -0.9549  1.2968  0.9332
  126MOL   H13027880   0.934   3.460   3.489  0.7804  1.3854  2.0984
  126MOL   H13127881   1.019   3.304   3.476 -2.2905  0.3548 -1.5551
  126MOL   H13227882   0.981   3.343   3.855 -0.3303  0.6981 -0.2896
  126MOL   H13327883   1.133   3.351   3.935 -1.9230  2.4201 -0.3791
  126MOL   C13427884   1.064   3.148   3.878 -0.4102  0.2738 -0.0443
  126MOL   C13527885   0.985   3.073   3.776 -0.1736 -0.4532 -0.2553
  126MOL   O13627886   0.895   3.128   3.722  0.0952 -0.1044 -0.0905
  126MOL   C13727887   1.011   2.924   3.741  0.6549  0.1379  0.3840
  126MOL   C13827888   1.012   3.113   4.018 -0.0252 -0.2110 -0.3224
  126MOL   H13927889   1.163   3.103   3.877 -0.3233  0.4763 -0.4006
  126MOL   H14027890   1.011   2.853   3.823  1.4259 -0.5970 -0.2404
  126MOL   H14127891   0.948   2.891   3.658  0.3562 -1.9785  1.4189
  126MOL   H14227892   1.110   2.912   3.697 -0.2349 -1.4972 -1.2551
  126MOL   H14327893   1.068   3.150   4.103 -1.2045  1.8747 -0.4398
  126MOL   H14427894   1.043   3.010   4.038  1.8312  0.2539 -0.7057
  126MOL   C14527895   0.860   3.121   4.046  0.7002  0.0732  0.1045
  126MOL   C14627896   0.815   3.257   4.059  0.5006  0.2132 -0.3844
  126MOL   O14727897   0.889   3.334   4.125 -0.4463 -0.5041  0.0631
  126MOL   C14827898   0.704   3.314   3.970 -0.7903  0.8256 -0.3377
  126MOL   C14927899   0.817   3.034   4.174  0.4332 -0.3673 -0.0197
  126MOL   H15027900   0.814   3.074   3.958  0.3206 -1.0134  0.8638
  126MOL   H15127901   0.729   3.412   3.929  0.3013  1.1324  1.0112
  126MOL   H15227902   0.678   3.248   3.888 -1.4791 -0.3856  0.8407
  126MOL   H15327903   0.618   3.328   4.034  0.7660  0.6284  1.8711
  126MOL   H15427904   0.708   3.041   4.176  0.4515  0.3973 -1.0844
  126MOL   H15527905   0.863   3.083   4.260 -0.4670 -0.4416  0.5211
  126MOL   C15627906   0.855   2.887   4.180 -0.0751 -0.0833  0.0130
  126MOL   C15727907   0.814   2.800   4.060  0.0603  0.1763  0.4102
  126MOL   O15827908   0.755   2.844   3.965  0.0357 -0.1302  0.3285
  126MOL   C15927909   0.846   2.651   4.060  0.3303 -0.0122 -0.2947
  126MOL   C16027910   0.825   2.821   4.311 -0.2825 -0.1553 -0.1872
  126MOL   H16127911   0.964   2.886   4.172  0.0422 -0.2083  1.5082
  126MOL   H16227912   0.947   2.631   4.097 -0.1630  0.5787  1.4313
  126MOL   H16327913   0.772   2.586   4.106 -1.3469  1.7335 -0.4628
  126MOL   H16427914   0.863   2.638   3.953 -3.0768 -1.0093 -0.7588
  126MOL   H16527915   0.860   2.718   4.319  0.2945  0.1381  1.2590
  126MOL   H16627916   0.718   2.804   4.324 -0.3618  1.7160  1.9109
  126MOL   C16727917   0.863   2.894   4.444  0.2368 -0.1569  0.2982
  126MOL   C16827918   1.007   2.942   4.446  0.1614 -0.3834  0.1858
  126MOL   O16927919   1.093   2.878   4.386 -0.4859  0.0397 -0.0663
  126MOL   C17027920   1.036   3.062   4.538 -0.2759  0.1619  0.4068
  126MOL   C17127921   0.815   2.808   4.564 -0.1526  0.0694 -0.5106
  126MOL   H17227922   0.803   2.983   4.428 -0.1129 -0.0133  2.3245
  126MOL   H17327923   1.092   3.028   4.625  0.5612  0.7548  0.1087
  126MOL   H17427924   1.103   3.128   4.482 -0.0020  0.4715  1.1050
  126MOL   H17527925   0.939   3.107   4.561  0.2545  1.0892  0.8592
  126MOL   H17627926   0.886   2.733   4.599 -1.0231 -0.8692 -0.7216
  126MOL   H17727927   0.725   2.752   4.540  0.1757  0.2056 -2.1380
  126MOL   C17827928   0.752   2.895   4.681  1.5050  0.6573  0.0619
  126MOL   C17927929   0.657   3.009   4.636 -0.2352  0.4766  0.3708
  126MOL   O18027930   0.677   3.128   4.673  0.0574 -0.0362  0.2047
  126MOL   C18127931   0.533   2.975   4.560  0.6965 -0.3413 -0.1117
  126MOL   C18227932   0.853   2.937   4.786 -0.0765  0.0275 -0.3529
  126MOL   H18327933   0.677   2.834   4.731  1.0379  0.6162 -0.6867
  126MOL   H18427934   0.546   2.958   4.453 -3.1124  0.2656 -0.7370
  126MOL   H18527935   0.494   2.877   4.585 -0.8495 -0.0108 -1.1535
  126MOL   H18627936   0.452   3.040   4.594  1.8426  0.5391  1.0035
  126MOL   H18727937   0.827   3.023   4.848  2.1533 -1.5204  2.8643
  126MOL   H18827938   0.951   2.955   4.741 -0.1697 -0.8168 -0.9003
  126MOL   C18927939   0.853   2.830   4.902 -0.2704  0.6652  0.1526
  126MOL   C19027940   0.720   2.827   4.990 -0.4249 -0.5499 -0.6949
  126MOL   O19127941   0.658   2.933   5.004  0.1464 -0.5355  0.0616
  126MOL   C19227942   0.664   2.695   5.049  0.0980  0.2736 -0.4177
  126MOL   C19327943   0.978   2.848   4.987 -0.2225  0.0427  0.4709
  126MOL   H19427944   0.862   2.732   4.855  1.1824  0.5549  0.6099
  126MOL   H19527945   0.693   2.607   4.992 -0.8403 -1.0458  1.1012
  126MOL   H19627946   0.668   2.688   5.158  1.1510 -2.3760 -0.6112
  126MOL   H19727947   0.557   2.689   5.030 -0.2038 -1.4120  1.6562
  126MOL   H19827948   0.972   2.784   5.075  1.1596  0.5009  0.8974
  126MOL   H19927949   0.977   2.946   5.035 -0.2786  0.0255  0.5046
  126MOL   C20027950   1.121   2.842   4.923 -0.4285  1.1660  0.1978
  126MOL   C20127951   1.139   2.704   4.863 -0.2970  0.1225 -0.5282
  126MOL   O20227952   1.145   2.602   4.928 -0.4199 -0.0504 -0.4829
  126MOL   C20327953   1.150   2.688   4.719 -0.4559  0.8270  0.1725
  126MOL   C20427954   1.227   2.858   5.041 -0.8569 -0.8116 -0.0462
  126MOL   H20527955   1.130   2.924   4.852  0.3052  0.8601 -0.0759
  126MOL   H20627956   1.254   2.690   4.688 -0.1869 -1.7731  0.7834
  126MOL   H20727957   1.098   2.600   4.683  1.7692  0.6216 -2.7327
  126MOL   H20827958   1.111   2.779   4.673 -1.9518  0.3647  0.4980
  126MOL   H20927959   1.217   2.772   5.107  0.4257 -3.4074 -3.0998
  126MOL   H21027960   1.202   2.942   5.107 -1.2108 -0.8372 -0.1530
  126MOL   C21127961   1.373   2.882   4.999 -0.1112  0.2449  0.0568
  126MOL   C21227962   1.403   2.998   4.905  0.0582  0.2808 -0.0629
  126MOL   O21327963   1.386   2.977   4.785  0.7199 -0.3966 -0.2555
  126MOL   C21427964   1.448   3.132   4.959 -0.3744  0.5259  0.7436
  126MOL   C21527965   1.446   2.751   4.970 -0.4472  0.2659 -0.0240
  126MOL   H21627966   1.413   2.912   5.095 -1.8685  0.8335  0.6273
  126MOL   H21727967   1.525   3.112   5.034 -0.7723  1.8963  1.5404
  126MOL   H21827968   1.477   3.208   4.887 -2.2524 -0.0778 -0.6780
  126MOL   H21927969   1.361   3.172   5.010 -1.6623 -1.3405  0.0342
  126MOL   H22027970   1.423   2.675   5.044  1.0382  1.0894  1.3186
  126MOL   H22127971   1.555   2.742   4.964 -0.7169 -3.1072 -1.0432
  126MOL   H22227972   1.409   2.700   4.881  1.9433 -1.0199 -0.3441
  127MOL     C127973   0.598   4.083   3.853 -0.3656  0.0702 -0.4173
  127MOL     C227974   0.709   4.113   3.948 -0.1225  0.1632  0.6563
  127MOL     O327975   0.821   4.128   3.907 -0.2879 -0.4735  0.4010
  127MOL     C427976   0.664   4.119   4.090 -0.6119 -0.2602 -0.1250
  127MOL     C527977   0.662   4.044   3.714 -0.4154 -0.0551 -0.0734
  127MOL     H627978   0.516   4.020   3.888  0.6742 -0.2172  1.5968
  127MOL     H727979   0.618   4.030   4.133  4.6829 -2.8954  0.5354
  127MOL     H827980   0.751   4.144   4.151 -2.0315  2.6229  0.8149
  127MOL     H927981   0.603   4.205   4.119  0.9641  0.3878  1.3975
  127MOL    H1027982   0.599   3.973   3.661 -1.3050  0.8376 -0.2295
  127MOL    H1127983   0.758   3.995   3.728  0.2816  1.6838  1.5256
  127MOL    H1227984   0.555   4.183   3.850  1.8963  1.2108  2.8792
  127MOL    C1327985   0.676   4.158   3.611  0.3835  0.2248  0.1252
  127MOL    C1427986   0.537   4.204   3.557 -0.2008 -0.6578 -0.0338
  127MOL    O1527987   0.436   4.150   3.587 -0.5541 -0.2188 -0.2452
  127MOL    C1627988   0.538   4.323   3.473  0.2978  0.1951  0.4622
  127MOL    C1727989   0.770   4.107   3.494 -0.4308 -0.1168 -0.5770
  127MOL    H1827990   0.715   4.248   3.658 -1.3967  2.4942 -2.5938
  127MOL    H1927991   0.459   4.393   3.499 -0.0662 -0.0802  0.1021
  127MOL    H2027992   0.633   4.376   3.474 -1.0128  2.6245  1.2854
  127MOL    H2127993   0.508   4.283   3.376  1.3113 -2.2023  1.0989
  127MOL    H2227994   0.738   4.157   3.402  2.9379  1.4831 -0.9395
  127MOL    H2327995   0.750   4.001   3.480 -1.2214  0.2507 -2.4421
  127MOL    C2427996   0.921   4.131   3.502 -0.4444 -0.3729 -0.1578
  127MOL    C2527997   0.956   4.274   3.467 -0.3841  0.1965 -0.1003
  127MOL    O2627998   0.881   4.348   3.408 -0.9929 -0.3771  0.0682
  127MOL    C2727999   1.087   4.335   3.522 -0.3314 -0.5024 -0.2698
  127MOL    C2828000   0.999   4.030   3.418 -0.0997 -0.0315 -0.1854
  127MOL    H2928001   0.962   4.115   3.602 -0.5769  0.0619 -0.0359
  127MOL    H3028002   1.158   4.252   3.519  1.9878  1.1785  3.9173
  127MOL    H3128003   1.127   4.418   3.464  2.0506 -1.6154 -0.3074
  127MOL    H3228004   1.069   4.370   3.624 -1.2935  0.4549 -0.7682
  127MOL    H3328005   1.099   4.067   3.393  0.1232  0.2072  1.0390
  127MOL    H3428006   0.945   4.018   3.324  0.8043 -1.7797 -0.5025
  127MOL    C3528007   1.020   3.893   3.485  0.3424 -0.5138 -0.4221
  127MOL    C3628008   1.122   3.891   3.594  0.5312  1.6262  0.1065
  127MOL    O3728009   1.239   3.924   3.575 -0.3372  0.1540 -0.0274
  127MOL    C3828010   1.075   3.834   3.727 -0.5761 -0.2270  0.0595
  127MOL    C3928011   1.040   3.767   3.393  0.0799 -0.0091  0.8021
  127MOL    H4028012   0.919   3.874   3.521  0.5452 -0.6478  0.0870
  127MOL    H4128013   0.990   3.765   3.728 -0.4609 -0.3633  1.6124
  127MOL    H4228014   1.158   3.785   3.778 -0.2531 -0.5224 -0.7544
  127MOL    H4328015   1.036   3.913   3.792  0.7211 -1.1985  2.0821
  127MOL    H4428016   0.945   3.763   3.339  0.3113  1.1403  0.3010
  127MOL    H4528017   1.041   3.675   3.452  0.0284 -0.6350 -0.1610
  127MOL    C4628018   1.163   3.766   3.295  0.2012  0.0145  0.3300
  127MOL    C4728019   1.163   3.849   3.167 -0.0697  0.1503  0.3041
  127MOL    O4828020   1.063   3.881   3.106  0.1213  0.2219 -0.2211
  127MOL    C4928021   1.297   3.897   3.117 -0.1479 -0.9117  0.6326
  127MOL    C5028022   1.200   3.622   3.258 -0.6724 -0.2552 -0.2396
  127MOL    H5128023   1.242   3.810   3.356  0.0886  0.1727  0.3624
  127MOL    H5228024   1.354   3.937   3.201 -0.5571 -1.2293  1.0681
  127MOL    H5328025   1.350   3.815   3.068  0.4757  0.6091 -1.2925
  127MOL    H5428026   1.288   3.962   3.031  0.2999 -2.2958 -0.4842
  127MOL    H5528027   1.187   3.561   3.348 -1.2258 -0.3351 -0.3718
  127MOL    H5628028   1.306   3.617   3.235 -0.4776 -0.1437  0.6163
  127MOL    C5728029   1.128   3.539   3.149  0.0095 -1.0565  0.2773
  127MOL    C5828030   0.975   3.516   3.173  0.3309  0.4533  0.1891
  127MOL    O5928031   0.939   3.422   3.240  0.8963 -0.2940 -0.1938
  127MOL    C6028032   0.870   3.609   3.106  0.1560  0.5542  0.3758
  127MOL    C6128033   1.207   3.408   3.132  0.2326 -0.0351  0.5028
  127MOL    H6228034   1.136   3.596   3.057  1.4328 -1.7045 -0.0126
  127MOL    H6328035   0.774   3.592   3.155 -0.2441 -0.8238 -0.8805
  127MOL    H6428036   0.886   3.716   3.120  0.8765  0.5541 -0.3956
  127MOL    H6528037   0.858   3.604   2.998 -0.1621 -2.2495  0.5107
  127MOL    H6628038   1.204   3.367   3.233  0.8422  0.2366  0.6349
  127MOL    H6728039   1.312   3.420   3.103 -0.4779  1.8665 -1.3779
  127MOL    C6828040   1.154   3.294   3.049 -0.2268 -0.4613 -0.0098
  127MOL    C6928041   1.185   3.159   3.110  0.8830  0.5211  1.2469
  127MOL    O7028042   1.264   3.082   3.054  0.1788 -0.1665 -0.1085
  127MOL    C7128043   1.096   3.105   3.219  0.1264  0.4377  0.0267
  127MOL    C7228044   1.204   3.309   2.899 -0.5138  0.0130 -0.5293
  127MOL    H7328045   1.046   3.308   3.054 -0.8097 -4.4862  0.2297
  127MOL    H7428046   1.055   3.013   3.178 -0.9159  0.2774  1.3812
  127MOL    H7528047   1.146   3.087   3.314  0.4008 -0.2316 -0.2438
  127MOL    H7628048   1.003   3.156   3.246  0.8421  1.6336  0.2360
  127MOL    H7728049   1.312   3.303   2.904 -0.4328 -0.5488 -2.7272
  127MOL    H7828050   1.186   3.405   2.852  0.2105  0.4093  0.0022
  127MOL    C7928051   1.144   3.204   2.796  0.0442  0.0825 -0.0920
  127MOL    C8028052   1.254   3.178   2.686 -1.1082 -0.5626  0.9706
  127MOL    O8128053   1.365   3.229   2.688  0.1908 -0.0103  0.3379
  127MOL    C8228054   1.219   3.092   2.569  0.0301 -0.8307  0.0795
  127MOL    C8328055   1.016   3.253   2.734  0.2708 -0.3002  0.6126
  127MOL    H8428056   1.122   3.112   2.849 -0.2733 -0.2267 -0.7652
  127MOL    H8528057   1.241   3.145   2.476 -0.7486  0.0120  0.3750
  127MOL    H8628058   1.283   3.004   2.554  0.6065 -0.3389 -0.4096
  127MOL    H8728059   1.114   3.063   2.562  0.7521 -3.4022 -0.7645
  127MOL    H8828060   0.987   3.209   2.639 -0.3651  1.7055 -0.1459
  127MOL    H8928061   1.025   3.359   2.711 -1.9640 -0.0357  0.8706
  127MOL    C9028062   0.889   3.239   2.827  0.4628  0.3628  0.2211
  127MOL    C9128063   0.849   3.092   2.835 -0.8830 -0.2424 -0.2061
  127MOL    O9228064   0.873   3.030   2.937 -0.4217  0.3888  0.3377
  127MOL    C9328065   0.777   3.013   2.727 -0.3543  0.1073 -0.2265
  127MOL    C9428066   0.780   3.337   2.786  0.5389 -0.2325  0.1839
  127MOL    H9528067   0.914   3.278   2.926  0.1593  2.9345 -0.6602
  127MOL    H9628068   0.742   2.920   2.770 -1.7020  0.2608 -0.9933
  127MOL    H9728069   0.707   3.062   2.659 -0.3004  2.0247  1.0406
  127MOL    H9828070   0.853   2.984   2.654 -0.5048 -1.3509  0.1917
  127MOL    H9928071   0.774   3.337   2.677  0.1237 -2.6291  0.1772
  127MOL   H10028072   0.809   3.436   2.820 -1.3693  0.8031 -1.1461
  127MOL   C10128073   0.636   3.327   2.846 -0.1215  0.3386  0.1536
  127MOL   C10228074   0.544   3.435   2.793  0.3311  0.1025  0.1027
  127MOL   O10328075   0.504   3.536   2.858  0.1876 -0.1108 -0.1025
  127MOL   C10428076   0.486   3.419   2.651  0.5466 -0.1581  0.8473
  127MOL   C10528077   0.639   3.312   3.003  0.4072 -0.4621 -0.5892
  127MOL   H10628078   0.596   3.236   2.801  0.1498  0.2542  0.0792
  127MOL   H10728079   0.378   3.428   2.654  0.4136 -0.8971 -1.0976
  127MOL   H10828080   0.517   3.500   2.585  1.2498 -0.5781  0.6570
  127MOL   H10928081   0.499   3.321   2.606  1.7282  0.3685  0.0146
  127MOL   H11028082   0.641   3.410   3.052  0.9882 -0.1700 -1.1865
  127MOL   H11128083   0.729   3.272   3.048  0.4050 -1.4819 -1.4693
  127MOL   C11228084   0.528   3.221   3.061 -0.3410  0.2625 -0.2213
  127MOL   C11328085   0.549   3.075   3.022  0.1911 -0.0392  0.0558
  127MOL   O11428086   0.502   3.033   2.918  0.0713  0.1032  0.3552
  127MOL   C11528087   0.634   2.981   3.120  0.0728 -0.5725 -0.0660
  127MOL   C11628088   0.386   3.277   3.043  0.3374  0.6078  0.5274
  127MOL   H11728089   0.537   3.226   3.170  0.9511 -1.1402 -0.2457
  127MOL   H11828090   0.563   2.971   3.201 -1.1884 -0.6500 -1.1593
  127MOL   H11928091   0.660   2.882   3.083  1.5146 -0.0221 -0.5691
  127MOL   H12028092   0.724   3.023   3.165 -0.7647  0.0754  1.0307
  127MOL   H12128093   0.354   3.277   2.939 -2.0734 -0.2923  1.2214
  127MOL   H12228094   0.390   3.385   3.054 -0.1221  0.6273  0.5065
  127MOL   C12328095   0.267   3.217   3.132 -0.6913 -1.0462  0.3621
  127MOL   C12428096   0.300   3.208   3.281  0.4725  0.2692  0.2040
  127MOL   O12528097   0.294   3.097   3.336  0.1856  0.0830  0.1342
  127MOL   C12628098   0.314   3.339   3.359  0.1813 -0.3056  0.0371
  127MOL   C12728099   0.205   3.088   3.071  0.1646 -0.1688 -0.3648
  127MOL   H12828100   0.192   3.296   3.139  1.7545  1.3836 -0.1619
  127MOL   H12928101   0.231   3.409   3.343  1.1509  0.6252 -1.0784
  127MOL   H13028102   0.339   3.327   3.464  0.4100  0.0848  0.0314
  127MOL   H13128103   0.410   3.375   3.320  0.8981 -2.9725 -0.7225
  127MOL   H13228104   0.274   3.004   3.076  0.0458 -0.2041  1.0288
  127MOL   H13328105   0.200   3.111   2.965  1.0102 -0.7310 -0.5285
  127MOL   C13428106   0.061   3.050   3.120 -0.3000 -0.1384  0.3672
  127MOL   C13528107   0.023   2.914   3.052 -1.1133  0.2956  0.1862
  127MOL   O13628108   7.787   2.908   2.956  0.0391  0.8867 -0.4386
  127MOL   C13728109   0.089   2.790   3.108  0.0751  0.7693  0.1571
  127MOL   C13828110   7.795   3.156   3.089  0.3252  0.2799 -0.8729
  127MOL   H13928111   0.063   3.042   3.229  1.7557 -2.1988  0.2173
  127MOL   H14028112   0.012   2.719   3.137 -0.8940  1.0276 -1.7118
  127MOL   H14128113   0.151   2.743   3.031 -0.8921 -1.7211  0.8758
  127MOL   H14228114   0.169   2.821   3.176  0.6320  0.1793 -0.2159
  127MOL   H14328115   7.700   3.110   3.060  0.1356 -0.3251  0.6795
  127MOL   H14428116   7.822   3.208   2.997 -0.1863 -0.0416 -1.2079
  127MOL   C14528117   7.752   3.250   3.205  0.0586  0.5984 -0.3816
  127MOL   C14628118   7.700   3.169   3.325 -0.6123 -0.2216  0.3251
  127MOL   O14728119   7.599   3.097   3.325 -0.0667  0.1181 -0.6430
  127MOL   C14828120   7.788   3.159   3.448  0.4115  0.0069 -0.8213
  127MOL   C14928121   7.666   3.361   3.153 -0.1682 -0.8266  0.1924
  127MOL   H15028122   0.000   3.308   3.225  1.8022 -1.8661 -0.8222
  127MOL   H15128123   7.780   3.058   3.490  0.2377  1.3701  2.5612
  127MOL   H15228124   0.049   3.193   3.432  0.1543 -0.2695 -3.2151
  127MOL   H15328125   7.754   3.219   3.532  2.3407  0.2184 -0.1551
  127MOL   H15428126   7.570   3.309   3.144  0.2092 -1.3827 -0.6814
  127MOL   H15528127   7.691   3.399   3.055 -1.5234 -0.2504  0.0519
  127MOL   C15628128   7.656   3.489   3.238 -0.2777  0.5770 -0.1558
  127MOL   C15728129   7.784   3.578   3.210  0.0769  0.0244  0.1584
  127MOL   O15828130   0.041   3.539   3.142  0.3295 -0.0457  0.2502
  127MOL   C15928131   7.788   3.718   3.274 -0.2299 -0.0922 -0.3262
  127MOL   C16028132   7.612   3.473   3.379  0.4955 -0.0206 -0.5239
  127MOL   H16128133   7.578   3.548   3.191 -1.3293 -1.3275 -0.8671
  127MOL   H16228134   7.828   3.712   3.376 -0.1545 -2.1486 -0.4469
  127MOL   H16328135   0.028   3.775   3.231  1.7546 -0.8882  2.2310
  127MOL   H16428136   7.705   3.784   3.251 -0.8797 -0.7142  0.2328
  127MOL   H16528137   7.702   3.492   3.437 -0.2490 -0.9919  1.0027
  127MOL   H16628138   7.568   3.375   3.400 -0.9935  0.6335 -0.4810
  127MOL   C16728139   7.500   3.578   3.417 -0.0852  0.5294  0.0368
  127MOL   C16828140   7.543   3.668   3.543  0.1214  0.3253 -0.1414
  127MOL   O16928141   7.652   3.657   3.605 -0.0387  0.4282 -0.1353
  127MOL   C17028142   7.432   3.755   3.595 -0.1621 -0.0270  0.3004
  127MOL   C17128143   7.360   3.509   3.445 -0.2141  0.1843  0.0294
  127MOL   H17228144   7.497   3.654   3.338 -0.5910  1.2758  0.7665
  127MOL   H17328145   7.474   3.840   3.650 -0.5057 -1.6435  3.1186
  127MOL   H17428146   7.388   3.788   3.501 -0.4995 -1.2288  0.0346
  127MOL   H17528147   7.361   3.699   3.656  0.2857 -1.5586 -0.5713
  127MOL   H17628148   7.282   3.584   3.447 -0.6520 -0.2941  1.5787
  127MOL   H17728149   7.366   3.466   3.545  1.3004  1.2133  0.3968
  127MOL   C17828150   7.305   3.406   3.334 -0.6659 -0.2908 -0.0074
  127MOL   C17928151   7.241   3.474   3.211  0.9337  0.2389 -0.0028
  127MOL   O18028152   7.120   3.485   3.197  0.0587  0.7146 -0.2784
  127MOL   C18128153   7.329   3.523   3.103  0.6004  0.3656  0.4975
  127MOL   C18228154   7.212   3.297   3.403 -0.8110 -0.4006  0.1918
  127MOL   H18328155   7.396   3.361   3.295 -0.0104  1.2256 -0.2697
  127MOL   H18428156   7.390   3.603   3.146 -0.9920  1.7229  0.2810
  127MOL   H18528157   7.394   3.441   3.073 -0.6041 -0.7991  1.0469
  127MOL   H18628158   7.272   3.561   3.018 -0.7642  0.0651  1.2688
  127MOL   H18728159   7.107   3.326   3.400 -0.7582 -0.3415 -1.6580
  127MOL   H18828160   7.227   3.289   3.511 -0.7990  0.6857  0.2764
  127MOL   C18928161   7.236   3.158   3.337 -0.7190  0.0639  0.1549
  127MOL   C19028162   7.161   3.131   3.202 -0.1395 -0.4431  0.1130
  127MOL   O19128163   7.037   3.134   3.201 -0.2094  0.1830 -0.8328
  127MOL   C19228164   7.239   3.118   3.076 -0.0671  0.4967 -0.5654
  127MOL   C19328165   7.205   3.035   3.437  0.4297  0.4792 -0.3005
  127MOL   H19428166   7.342   3.162   3.311 -0.0389 -1.1141  2.6715
  127MOL   H19528167   7.263   3.013   3.063 -3.4046 -0.3743 -0.0974
  127MOL   H19628168   7.186   3.153   2.987 -0.4215  1.6797  0.0947
  127MOL   H19728169   7.336   3.167   3.087  1.5463 -3.2278  2.9550
  127MOL   H19828170   7.276   3.045   3.519 -1.5564 -2.5077  1.8867
  127MOL   H19928171   7.223   2.936   3.396  0.2558  0.6358 -0.7717
  127MOL   C20028172   7.063   3.047   3.500  0.0229  0.4080  1.2195
  127MOL   C20128173   7.056   3.070   3.654 -0.0632 -0.1906 -0.7117
  127MOL   O20228174   7.093   2.986   3.732  0.2193 -0.2485  0.3373
  127MOL   C20328175   6.993   3.189   3.706 -0.2499  0.0049 -0.3182
  127MOL   C20428176   6.976   2.927   3.456  0.3274 -0.3345  0.1434
  127MOL   H20528177   7.012   3.136   3.465 -3.2328 -0.7745  2.7100
  127MOL   H20628178   7.023   3.274   3.644 -1.0138 -1.2621 -2.4589
  127MOL   H20728179   6.884   3.184   3.707 -0.1277 -3.3985  1.2997
  127MOL   H20828180   7.006   3.203   3.814 -0.9755 -0.3078 -0.1847
  127MOL   H20928181   7.037   2.837   3.451  0.9155  0.1195 -1.1176
  127MOL   H21028182   6.922   2.948   3.364 -1.5138 -0.1076  1.2342
  127MOL   C21128183   6.841   2.895   3.533  0.8776 -0.3421 -0.6056
  127MOL   C21228184   6.792   2.756   3.486  0.3232 -0.1348 -0.5722
  127MOL   O21328185   6.771   2.729   3.367  0.3398  0.2326 -1.3336
  127MOL   C21428186   6.754   2.650   3.589 -0.1159  0.6081 -0.0136
  127MOL   C21528187   6.718   3.006   3.517 -1.4087  0.3046  0.3626
  127MOL   H21628188   6.865   2.884   3.639 -2.9764 -1.9693  0.1715
  127MOL   H21728189   6.785   2.549   3.562 -0.4723 -0.7394  4.2184
  127MOL   H21828190   6.791   2.677   3.688 -1.2091  0.6193  0.3980
  127MOL   H21928191   6.646   2.655   3.602 -0.2056  0.1124 -0.5866
  127MOL   H22028192   6.754   3.101   3.556  0.1144  0.1518 -0.6089
  127MOL   H22128193   6.635   2.985   3.584  0.7521 -1.0277  2.7171
  127MOL   H22228194   6.689   3.031   3.415  0.8676  2.7444  0.2641
  128MOL     C128195   4.879   2.583   5.113  0.0912  0.3398 -0.1608
  128MOL     C228196   4.879   2.428   5.100  0.4392 -0.1792 -0.5771
  128MOL     O328197   4.930   2.361   5.011 -0.5213  0.0244 -0.2120
  128MOL     C428198   4.802   2.366   5.209 -0.2609  0.4258 -0.2446
  128MOL     C528199   5.025   2.646   5.099 -0.3242  0.7340  0.0023
  128MOL     H628200   4.806   2.608   5.036 -1.3451 -1.2431  0.6423
  128MOL     H728201   4.810   2.423   5.302 -0.7852 -0.0640  0.1105
  128MOL     H828202   4.697   2.366   5.179 -0.5991  0.6724  0.9081
  128MOL     H928203   4.834   2.263   5.225 -0.7198  0.4189  0.6872
  128MOL    H1028204   5.052   2.629   4.995 -0.3756 -0.8752  0.2380
  128MOL    H1128205   5.091   2.585   5.160 -0.4380  3.1587  2.6758
  128MOL    H1228206   4.828   2.604   5.208  1.7440 -0.2193  0.8624
  128MOL    C1328207   5.053   2.790   5.156  0.0319 -0.6683  0.3083
  128MOL    C1428208   5.203   2.817   5.139 -0.1847  0.3732 -0.3763
  128MOL    O1528209   5.277   2.804   5.234 -0.4703  0.4548 -0.0864
  128MOL    C1628210   5.248   2.868   5.009 -0.1877 -0.1219  0.3701
  128MOL    C1728211   4.990   2.804   5.301 -0.6176 -0.1440  0.1284
  128MOL    H1828212   4.992   2.857   5.096  0.9514  1.5960  1.8296
  128MOL    H1928213   5.346   2.912   5.028 -1.0232  1.6588  0.5559
  128MOL    H2028214   5.265   2.788   4.936  0.6559 -1.5061  2.0399
  128MOL    H2128215   5.180   2.948   4.980 -1.1160 -0.8078  0.6222
  128MOL    H2228216   5.012   2.705   5.341  2.9540  1.3424  2.0211
  128MOL    H2328217   4.882   2.817   5.303 -0.9219 -2.6014  1.9256
  128MOL    C2428218   5.026   2.928   5.389 -0.2422  0.3976 -0.1389
  128MOL    C2528219   5.019   2.894   5.534 -0.3210 -0.3904 -0.2794
  128MOL    O2628220   4.915   2.849   5.584 -0.1249 -0.1195 -0.5812
  128MOL    C2728221   5.144   2.908   5.621 -0.0531 -0.1614 -0.1716
  128MOL    C2828222   4.943   3.059   5.360  0.0430  0.6809  1.0162
  128MOL    H2928223   5.131   2.950   5.372  0.5048 -2.3627  0.7942
  128MOL    H3028224   5.122   2.991   5.689 -1.0786 -0.0985 -0.5726
  128MOL    H3128225   5.165   2.825   5.687 -1.6059  0.8603  1.6725
  128MOL    H3228226   5.237   2.942   5.576 -0.3660  0.7158 -0.1858
  128MOL    H3328227   4.849   3.049   5.416  0.4413 -0.4774  1.4997
  128MOL    H3428228   4.914   3.060   5.255 -0.3558  1.5489  1.1265
  128MOL    C3528229   5.010   3.193   5.383 -0.2121 -0.7653 -0.7129
  128MOL    C3628230   5.160   3.191   5.357 -0.0196 -0.4558  0.2419
  128MOL    O3728231   5.235   3.182   5.451 -0.2111  0.1588 -0.0425
  128MOL    C3828232   5.211   3.210   5.213  0.4845  0.1662 -0.1682
  128MOL    C3928233   4.967   3.258   5.516 -0.1070 -0.1165 -0.3019
  128MOL    H4028234   4.969   3.257   5.305  1.3163  2.9010  1.4040
  128MOL    H4128235   5.183   3.121   5.156  0.3863  1.3044 -1.9600
  128MOL    H4228236   5.172   3.301   5.166  1.3249  0.4002 -0.4194
  128MOL    H4328237   5.319   3.216   5.220  0.3919  0.1772  1.4290
  128MOL    H4428238   5.017   3.207   5.599  0.9122  0.0903 -0.7757
  128MOL    H4528239   4.860   3.238   5.520 -0.0415 -1.2751 -2.9238
  128MOL    C4628240   4.996   3.411   5.527  0.5645 -0.3244 -0.5363
  128MOL    C4728241   5.032   3.449   5.671  0.0520  0.5455  0.1740
  128MOL    O4828242   4.947   3.449   5.767  0.2208 -0.4273 -0.3031
  128MOL    C4928243   5.180   3.486   5.693 -0.1975 -0.3326 -0.2875
  128MOL    C5028244   4.863   3.482   5.461  0.3115 -0.4190  0.1511
  128MOL    H5128245   5.086   3.441   5.474 -0.2151  1.5545 -0.8264
  128MOL    H5228246   5.207   3.475   5.798 -0.4346  1.2167 -0.0599
  128MOL    H5328247   5.245   3.432   5.624  0.1400 -2.2448  1.4437
  128MOL    H5428248   5.190   3.591   5.669 -0.9817 -0.4161 -0.9857
  128MOL    H5528249   4.792   3.471   5.542  1.3548  0.5422  1.2228
  128MOL    H5628250   4.815   3.425   5.382 -0.6612  3.0747 -1.8893
  128MOL    C5728251   4.892   3.632   5.436 -1.5450 -0.2901  0.1169
  128MOL    C5828252   4.807   3.724   5.522 -0.1804  0.1651 -0.7375
  128MOL    O5928253   4.716   3.784   5.464  0.2348 -0.1891  0.1966
  128MOL    C6028254   4.833   3.735   5.674 -0.2515  0.0373 -0.1692
  128MOL    C6128255   4.878   3.639   5.281 -0.0970 -0.1667 -0.2579
  128MOL    H6228256   4.999   3.641   5.455 -1.9597  1.3917  1.8632
  128MOL    H6328257   4.742   3.732   5.735  1.2054  1.1079  2.1027
  128MOL    H6428258   4.896   3.652   5.706 -2.4143 -1.1317  1.1643
  128MOL    H6528259   4.897   3.820   5.698 -0.1113  0.2155 -1.1699
  128MOL    H6628260   4.773   3.622   5.255  0.5747  0.4466 -3.5537
  128MOL    H6728261   4.946   3.566   5.236  1.0632  1.1086 -0.5886
  128MOL    C6828262   4.936   3.763   5.211 -0.2451 -0.2076 -0.2190
  128MOL    C6928263   4.830   3.822   5.117  0.4557  0.3502 -0.3300
  128MOL    O7028264   4.798   3.760   5.015  0.8157 -0.3760 -0.0572
  128MOL    C7128265   4.753   3.946   5.161  0.5440  0.0362  0.3738
  128MOL    C7228266   5.067   3.732   5.138  0.2357  0.3400 -0.5739
  128MOL    H7328267   4.949   3.849   5.277  0.3052 -0.5839  0.1620
  128MOL    H7428268   4.784   3.978   5.260 -1.7433  1.3480  0.7200
  128MOL    H7528269   4.759   4.039   5.104  0.1059 -0.0479  0.1862
  128MOL    H7628270   4.651   3.907   5.164 -0.1815  1.6836 -1.2104
  128MOL    H7728271   5.051   3.647   5.071  0.6082 -0.7902  0.7424
  128MOL    H7828272   5.138   3.706   5.216 -0.5990  0.1585  0.1294
  128MOL    C7928273   5.136   3.851   5.067  0.2510 -0.1826 -0.6958
  128MOL    C8028274   5.202   3.803   4.943 -0.3046  0.2820 -0.2737
  128MOL    O8128275   5.326   3.783   4.936 -0.4842  0.2811  0.4492
  128MOL    C8228276   5.115   3.773   4.827  0.2204 -0.6879  0.1145
  128MOL    C8328277   5.234   3.924   5.161  0.7521 -0.1067 -0.6268
  128MOL    H8428278   5.055   3.920   5.044 -0.1928 -0.2637  0.6010
  128MOL    H8528279   5.111   3.846   4.746  0.3000 -0.0172  0.7114
  128MOL    H8628280   5.157   3.687   4.774 -2.1153 -1.7202 -0.1090
  128MOL    H8728281   5.021   3.743   4.873  0.3416 -1.1380  0.0667
  128MOL    H8828282   5.319   3.855   5.169  1.0868  0.3833  0.0313
  128MOL    H8928283   5.201   3.931   5.264  0.5153  1.3795 -0.7990
  128MOL    C9028284   5.270   4.071   5.119 -0.5961 -0.3867  0.3430
  128MOL    C9128285   5.423   4.099   5.132  0.4974  0.4297 -0.4918
  128MOL    O9228286   5.458   4.189   5.205 -0.2685 -0.4234 -0.1250
  128MOL    C9328287   5.515   4.024   5.041  0.1367 -0.7543  0.0703
  128MOL    C9428288   5.182   4.184   5.186  0.2532 -0.4711 -0.1917
  128MOL    H9528289   5.250   4.057   5.013  0.7956 -0.8506  0.1189
  128MOL    H9628290   5.583   3.967   5.105 -2.5470 -2.5151  1.4525
  128MOL    H9728291   5.458   3.960   4.974 -0.8500  1.1486 -0.9557
  128MOL    H9828292   5.570   4.095   4.979 -0.1925 -0.4114  0.1716
  128MOL    H9928293   5.232   4.217   5.277  0.7506  1.4638 -1.1445
  128MOL   H10028294   5.078   4.155   5.198  0.7973 -2.1630  0.5311
  128MOL   C10128295   5.175   4.317   5.110 -0.7874 -0.4166  0.5501
  128MOL   C10228296   5.260   4.438   5.157  0.5082  0.2699  0.4277
  128MOL   O10328297   5.354   4.484   5.087  0.2666 -0.2837 -0.0802
  128MOL   C10428298   5.227   4.513   5.287 -0.0069 -0.2948 -0.5834
  128MOL   C10528299   5.033   4.370   5.061 -0.6516  0.5069  0.1668
  128MOL   H10628300   5.230   4.295   5.018 -1.5469 -0.1253  0.0231
  128MOL   H10728301   5.169   4.458   5.360  1.1281 -0.8652 -0.0942
  128MOL   H10828302   5.313   4.559   5.336 -1.7280  2.5300 -0.0954
  128MOL   H10928303   5.158   4.593   5.261  0.4632  0.5665  0.7976
  128MOL   H11028304   5.048   4.473   5.029 -0.3266  0.2322 -0.5773
  128MOL   H11128305   4.976   4.372   5.154 -0.1388 -0.4705  0.5135
  128MOL   C11228306   4.956   4.273   4.959  0.3013 -0.1017  0.2405
  128MOL   C11328307   5.055   4.241   4.850 -1.0248 -0.4806 -0.7595
  128MOL   O11428308   5.092   4.124   4.835 -0.3211 -0.3985 -0.0893
  128MOL   C11528309   5.113   4.346   4.753  0.2430 -0.6219  0.0362
  128MOL   C11628310   4.826   4.352   4.919  0.1493 -0.1985 -0.6953
  128MOL   H11728311   4.931   4.187   5.020 -0.8662 -1.3527 -1.9536
  128MOL   H11828312   5.050   4.396   4.680 -1.9382 -1.5068  1.2753
  128MOL   H11928313   5.154   4.426   4.815  1.1718  0.1874 -1.5578
  128MOL   H12028314   5.203   4.304   4.707  0.7090  0.5785 -0.1663
  128MOL   H12128315   4.843   4.440   4.856 -0.3703  0.2923 -0.1494
  128MOL   H12228316   4.781   4.393   5.009  1.0074 -0.9249  0.0768
  128MOL   C12328317   4.718   4.266   4.851  0.4207  0.3771 -0.1400
  128MOL   C12428318   4.756   4.209   4.710  0.5123  0.1411 -0.2415
  128MOL   O12528319   4.808   4.282   4.629 -0.3050  0.6190 -0.3383
  128MOL   C12628320   4.723   4.063   4.685  1.1432  0.3706  0.0720
  128MOL   C12728321   4.596   4.359   4.827 -0.4439  0.5660 -0.4815
  128MOL   H12828322   4.697   4.180   4.914  0.7416  0.3434 -0.0841
  128MOL   H12928323   4.626   4.026   4.717  2.0368 -3.5671 -1.5885
  128MOL   H13028324   4.744   4.037   4.581  2.1265 -3.0379  1.0822
  128MOL   H13128325   4.789   4.009   4.752 -0.6599 -1.7492  0.1749
  128MOL   H13228326   4.608   4.419   4.737 -2.1484 -1.1203 -1.8762
  128MOL   H13328327   4.584   4.434   4.906 -0.2076 -0.8181  0.8925
  128MOL   C13428328   4.467   4.281   4.798 -0.4480  0.2237  0.5760
  128MOL   C13528329   4.351   4.366   4.753  0.0270  0.6186 -0.4575
  128MOL   O13628330   4.343   4.487   4.774  0.4993 -0.2447 -0.2886
  128MOL   C13728331   4.230   4.298   4.692  0.3729  0.0636 -0.5530
  128MOL   C13828332   4.420   4.171   4.897 -0.2950 -0.3997  0.5059
  128MOL   H13928333   4.485   4.231   4.703 -2.0911  1.1847 -0.2549
  128MOL   H14028334   4.165   4.351   4.622  1.4114  0.4651 -1.2349
  128MOL   H14128335   4.251   4.199   4.650 -2.7049 -0.8082 -0.2059
  128MOL   H14228336   4.175   4.295   4.786  1.1853  0.2369 -0.0724
  128MOL   H14328337   4.505   4.104   4.911  2.2033  2.8461  1.5463
  128MOL   H14428338   4.349   4.109   4.843 -0.3948  0.2002 -0.0490
  128MOL   C14528339   4.349   4.198   5.038  0.9482 -0.4649  0.4168
  128MOL   C14628340   4.440   4.265   5.145  0.5451 -0.3446  0.0232
  128MOL   O14728341   4.564   4.253   5.137 -0.0966  0.0538 -0.2105
  128MOL   C14828342   4.373   4.329   5.264  0.8158  0.1293 -0.3466
  128MOL   C14928343   4.296   4.063   5.084 -0.9186 -0.8209  0.4114
  128MOL   H15028344   4.264   4.265   5.027  0.8470 -0.7695 -0.7404
  128MOL   H15128345   4.273   4.363   5.237  0.0733 -0.8091  1.1489
  128MOL   H15228346   4.371   4.256   5.345 -1.9752 -0.0930 -0.5585
  128MOL   H15328347   4.428   4.416   5.299  2.4556 -0.1656 -2.0602
  128MOL   H15428348   4.384   4.010   5.120 -1.2872 -0.8842  1.2318
  128MOL   H15528349   4.261   4.009   4.996 -0.7284  1.3611 -1.0355
  128MOL   C15628350   4.202   4.057   5.208 -0.3633  0.1472 -0.4695
  128MOL   C15728351   4.244   3.936   5.298  0.1226  0.1761  0.8603
  128MOL   O15828352   4.182   3.829   5.297 -0.2929  0.1888 -0.6240
  128MOL   C15928353   4.368   3.951   5.378 -0.4209 -0.0353 -0.4320
  128MOL   C16028354   4.050   4.067   5.170 -0.4621  0.0708  0.2783
  128MOL   H16128355   4.222   4.142   5.274 -0.1094 -0.9011  0.8305
  128MOL   H16228356   4.346   3.978   5.481  3.0191  0.8894  0.1145
  128MOL   H16328357   4.418   3.854   5.381  0.4327  0.3984 -0.6588
  128MOL   H16428358   4.427   4.034   5.342 -1.0974  0.9580  0.7182
  128MOL   H16528359   4.028   3.972   5.121 -2.4522  0.4043  0.4676
  128MOL   H16628360   4.025   4.137   5.090  1.4507 -1.2220 -1.4952
  128MOL   C16728361   3.958   4.080   5.291 -0.3759 -0.2004 -0.7682
  128MOL   C16828362   3.822   4.005   5.267 -0.3701 -0.3275 -0.5449
  128MOL   O16928363   3.726   4.058   5.216  0.0721  0.7885  0.8208
  128MOL   C17028364   3.819   3.864   5.320 -0.6814  0.1251 -0.6136
  128MOL   C17128365   3.940   4.228   5.326 -0.1592 -1.0561 -0.7915
  128MOL   H17228366   4.002   4.032   5.378 -1.7005 -3.0448 -1.6320
  128MOL   H17328367   3.855   3.798   5.241 -0.3443 -0.3469 -0.0763
  128MOL   H17428368   3.881   3.852   5.409 -2.0592  0.0040  0.3473
  128MOL   H17528369   3.720   3.825   5.342 -0.2219 -2.0153 -2.2296
  128MOL   H17628370   3.850   4.272   5.285 -0.5566  0.2364  1.3768
  128MOL   H17728371   4.030   4.284   5.296  0.1854  0.1725  2.3089
  128MOL   C17828372   3.938   4.256   5.480 -0.1991 -0.9223 -0.5404
  128MOL   C17928373   4.083   4.259   5.533  0.0118  0.3190  0.0577
  128MOL   O18028374   4.140   4.158   5.579 -0.2142 -0.6661  0.1756
  128MOL   C18128375   4.141   4.398   5.537 -0.0753  0.2129 -0.5999
  128MOL   C18228376   3.843   4.169   5.564 -0.3240 -0.3882  0.7712
  128MOL   H18328377   3.897   4.357   5.484  0.6918 -0.6220  2.2382
  128MOL   H18428378   4.100   4.449   5.450  1.9763 -0.1217 -1.8189
  128MOL   H18528379   4.104   4.461   5.618 -0.8695 -1.5734  0.4599
  128MOL   H18628380   4.249   4.416   5.540  0.2862 -1.9911  2.8002
  128MOL   H18728381   3.896   4.095   5.623  1.0473  0.5708  0.7834
  128MOL   H18828382   3.762   4.128   5.503 -1.2871 -0.5024  2.1218
  128MOL   C18928383   3.767   4.246   5.675  0.0102 -0.1996 -0.1617
  128MOL   C19028384   3.857   4.288   5.790  0.2065  0.3253  0.1561
  128MOL   O19128385   3.912   4.210   5.856 -0.3604 -0.0639  0.0613
  128MOL   C19228386   3.867   4.439   5.814 -0.0244 -0.1093 -0.6948
  128MOL   C19328387   3.642   4.166   5.725  0.0198 -0.3675 -0.3454
  128MOL   H19428388   3.725   4.342   5.644  0.2901  0.6734  2.0765
  128MOL   H19528389   3.916   4.491   5.731 -1.2234  0.2629 -1.1717
  128MOL   H19628390   3.775   4.497   5.825  1.0190  1.2866  1.1910
  128MOL   H19728391   3.924   4.454   5.906 -2.0164 -0.4267  0.6259
  128MOL   H19828392   3.691   4.082   5.775 -0.1114  0.3652  1.0478
  128MOL   H19928393   3.578   4.131   5.643 -0.7551  0.8258 -0.2683
  128MOL   C20028394   3.553   4.245   5.825 -0.4563 -0.2479  0.1956
  128MOL   C20128395   3.462   4.146   5.903 -0.1671 -0.2137  0.4885
  128MOL   O20228396   3.413   4.051   5.841  0.5660 -0.0748  0.7595
  128MOL   C20328397   3.439   4.172   6.056  0.4794  0.7105  0.3182
  128MOL   C20428398   3.478   4.348   5.730  0.0797 -0.1210 -0.2606
  128MOL   H20528399   3.609   4.312   5.890 -0.6573  0.1720 -0.0570
  128MOL   H20628400   3.525   4.129   6.107 -1.0184 -1.6675  0.8991
  128MOL   H20728401   3.429   4.280   6.057  3.1611  0.9788  1.0263
  128MOL   H20828402   3.346   4.121   6.081  0.0930  0.0501 -2.2779
  128MOL   H20928403   3.408   4.293   5.666  1.0018 -2.6890  0.8885
  128MOL   H21028404   3.535   4.400   5.653  0.3251 -0.2346 -0.1574
  128MOL   C21128405   3.387   4.457   5.794  0.2973 -1.1134 -0.1491
  128MOL   C21228406   3.294   4.521   5.685 -0.4334 -0.2918 -0.0518
  128MOL   O21328407   3.330   4.539   5.568  0.6774 -0.1300  0.3125
  128MOL   C21428408   3.165   4.578   5.737  0.3911 -0.1525  0.2156
  128MOL   C21528409   3.474   4.572   5.852  0.5352  0.0428  0.2881
  128MOL   H21628410   3.327   4.405   5.869  1.3058 -3.3034 -0.8028
  128MOL   H21728411   3.169   4.643   5.825  0.7427  3.2574 -2.2224
  128MOL   H21828412   3.119   4.635   5.657  0.5093  0.1566  0.3681
  128MOL   H21928413   3.100   4.497   5.772  0.4362  0.0882  0.8591
  128MOL   H22028414   3.509   4.543   5.951 -0.7298 -0.2165  0.6655
  128MOL   H22128415   3.419   4.666   5.863 -1.1159 -0.9410  0.6978
  128MOL   H22228416   3.564   4.592   5.795  1.7573 -1.4536  1.6523
  129MOL     C128417   4.046   1.755   0.074 -1.2897 -0.0746 -0.5388
  129MOL     C228418   4.029   1.893   0.142  0.9708 -0.0707 -0.7442
  129MOL     O328419   3.924   1.916   0.200 -0.4097  0.4644 -0.2245
  129MOL     C428420   4.149   1.991   0.151 -0.2803 -0.1020 -0.1159
  129MOL     C528421   3.973   1.637   0.157  0.3238 -0.6184 -0.3439
  129MOL     H628422   4.008   1.763   7.815 -0.3316  0.4333 -0.8627
  129MOL     H728423   4.237   1.959   0.095  0.2239  1.8752 -0.5035
  129MOL     H828424   4.122   2.094   0.128  1.7308  0.1392 -1.5334
  129MOL     H928425   4.198   1.989   0.248 -3.1733 -1.3461  1.4059
  129MOL    H1028426   3.882   1.681   0.199 -1.6946 -3.1573 -1.8620
  129MOL    H1128427   4.035   1.627   0.247  1.5353  1.8126 -0.8910
  129MOL    H1228428   4.151   1.733   0.055 -1.0228  0.2647  0.5087
  129MOL    C1328429   3.967   1.505   0.083 -0.2914  0.7216 -0.1006
  129MOL    C1428430   3.869   1.511   7.810 -0.0198  0.0496 -0.5730
  129MOL    O1528431   3.908   1.525   7.699 -0.3973 -0.0444 -0.4253
  129MOL    C1628432   3.717   1.501   7.841  0.4410 -0.0176  0.2138
  129MOL    C1728433   3.938   1.383   0.167  0.3767 -0.9165 -0.6613
  129MOL    H1828434   4.063   1.493   0.032 -1.0812 -1.5271 -1.1332
  129MOL    H1928435   3.659   1.590   7.819  2.1918  0.4935 -2.4163
  129MOL    H2028436   3.662   1.429   7.780 -0.4317 -0.2088  1.1930
  129MOL    H2128437   3.688   1.493   0.104 -0.7861  1.4860  0.0080
  129MOL    H2228438   3.921   1.291   0.110  1.0502 -1.4525 -0.0132
  129MOL    H2328439   3.847   1.395   0.225  0.7094 -0.5125 -0.2181
  129MOL    C2428440   4.039   1.355   0.276  0.6631  0.5119 -0.0363
  129MOL    C2528441   4.187   1.339   0.221 -0.3473 -0.8372  0.3908
  129MOL    O2628442   4.228   1.253   0.144  0.4415 -0.1373 -0.0091
  129MOL    C2728443   4.277   1.449   0.277 -0.2810  0.5825 -0.5424
  129MOL    C2828444   4.007   1.221   0.350  1.1189  0.1199 -0.2802
  129MOL    H2928445   4.047   1.431   0.353 -1.6814 -0.1170  0.8841
  129MOL    H3028446   4.258   1.549   0.239  2.4515  1.7103  0.9438
  129MOL    H3128447   4.261   1.465   0.383 -0.4922  0.2142 -0.5171
  129MOL    H3228448   4.383   1.438   0.258 -0.3745 -0.3045 -0.5648
  129MOL    H3328449   4.034   1.138   0.286  0.6786 -1.2011  1.1985
  129MOL    H3428450   3.900   1.201   0.351  0.7333  1.9940  1.5865
  129MOL    C3528451   4.072   1.195   0.486  0.6759 -0.1140 -0.2348
  129MOL    C3628452   4.110   1.046   0.506  0.1545 -0.1246  0.1905
  129MOL    O3728453   4.037   0.974   0.573  0.0842 -0.1545  0.1730
  129MOL    C3828454   4.237   0.995   0.444 -0.1391 -0.3264  0.1468
  129MOL    C3928455   3.989   1.252   0.603 -0.0594  0.3268 -0.0379
  129MOL    H4028456   4.168   1.247   0.494  0.5236 -0.0786  1.7175
  129MOL    H4128457   4.226   0.992   0.336  0.7572  1.0504 -0.0007
  129MOL    H4228458   4.320   1.060   0.471  0.3555 -0.2368 -1.5384
  129MOL    H4328459   4.260   0.893   0.476  0.3741 -0.0612  0.6558
  129MOL    H4428460   3.928   1.176   0.652 -2.0959  0.5562 -2.1292
  129MOL    H4528461   3.909   1.312   0.560 -0.1405  0.9162  0.9311
  129MOL    C4628462   4.082   1.324   0.706  0.2468  0.1119  0.6525
  129MOL    C4728463   4.138   1.457   0.655  0.3988 -0.2924 -0.1799
  129MOL    O4828464   4.264   1.477   0.651 -0.1175 -0.0439  0.0653
  129MOL    C4928465   4.049   1.573   0.616  0.3202 -0.8680  0.2775
  129MOL    C5028466   4.171   1.234   0.779  0.0262  0.1413 -0.1398
  129MOL    H5128467   4.007   1.352   0.780 -2.8064 -0.1569 -2.1994
  129MOL    H5228468   4.096   1.669   0.637 -2.5678  0.0947  2.8988
  129MOL    H5328469   4.020   1.559   0.512  0.8505  1.7662 -0.2655
  129MOL    H5428470   3.957   1.551   0.671 -0.3352 -0.2136 -0.5573
  129MOL    H5528471   4.264   1.232   0.723  1.2403 -0.1989  1.8306
  129MOL    H5628472   4.116   1.139   0.778  2.2463 -1.1740 -0.5929
  129MOL    C5728473   4.195   1.275   0.924  0.3046  0.0371  0.2655
  129MOL    C5828474   4.336   1.240   0.957  0.3053  0.0784  0.3788
  129MOL    O5928475   4.365   1.132   1.014  0.7155 -0.0006 -0.0844
  129MOL    C6028476   4.441   1.334   0.891 -0.4404  0.7193 -0.0437
  129MOL    C6128477   4.081   1.230   1.022 -0.5321  0.2558  0.1919
  129MOL    H6228478   4.195   1.384   0.933  0.7685  0.0083  0.6220
  129MOL    H6328479   4.408   1.429   0.849  0.5223  0.6924 -0.8869
  129MOL    H6428480   4.530   1.356   0.949 -0.3087 -0.6084  0.2836
  129MOL    H6528481   4.479   1.274   0.807 -1.1267 -0.6549  0.6110
  129MOL    H6628482   4.079   1.122   1.005 -0.6138  0.6119 -2.2830
  129MOL    H6728483   3.986   1.271   0.987 -2.0561 -3.8895 -0.8796
  129MOL    C6828484   4.110   1.251   1.171  0.8794 -0.1634  0.9519
  129MOL    C6928485   3.985   1.192   1.245 -0.3937 -0.4464 -0.5051
  129MOL    O7028486   3.869   1.237   1.223  0.1484 -0.3051 -0.1481
  129MOL    C7128487   4.002   1.086   1.354 -0.8008  0.1924 -0.1527
  129MOL    C7228488   4.136   1.399   1.201 -0.8672 -0.7489  0.2033
  129MOL    H7328489   4.194   1.188   1.198  1.0220 -0.6558 -0.6118
  129MOL    H7428490   4.008   0.989   1.305 -0.5434 -0.3022  0.8565
  129MOL    H7528491   4.095   1.113   1.404 -1.9127 -0.8654  2.5947
  129MOL    H7628492   3.921   1.088   1.427  0.4858  1.1372  1.2650
  129MOL    H7728493   4.060   1.463   1.156 -0.0750 -0.5573 -0.8929
  129MOL    H7828494   4.227   1.425   1.147 -0.4390 -1.0829  0.7648
  129MOL    C7928495   4.147   1.439   1.343 -0.1016 -0.1969  0.0516
  129MOL    C8028496   4.152   1.593   1.346  0.3354 -0.6577  0.3361
  129MOL    O8128497   4.066   1.661   1.395 -0.1085 -0.0025 -0.1747
  129MOL    C8228498   4.261   1.665   1.272 -0.1608  0.4469  0.1210
  129MOL    C8328499   4.273   1.367   1.412  0.2575 -0.0185  0.0777
  129MOL    H8428500   4.064   1.394   1.398 -1.0985  0.0986 -1.1743
  129MOL    H8528501   4.269   1.769   1.305 -1.3250  0.5170  0.2238
  129MOL    H8628502   4.350   1.604   1.286 -1.4157 -1.3119  0.5310
  129MOL    H8728503   4.226   1.671   1.169 -2.4335  0.9405  0.8934
  129MOL    H8828504   4.365   1.409   1.373  0.0128 -1.0116 -1.6030
  129MOL    H8928505   4.270   1.261   1.387 -0.8383  0.3036 -1.2429
  129MOL    C9028506   4.274   1.368   1.562  0.1602  0.1238  0.1452
  129MOL    C9128507   4.421   1.349   1.605  0.8788  0.0749  0.0202
  129MOL    O9228508   4.463   1.234   1.621 -0.3788 -0.3961 -0.4727
  129MOL    C9328509   4.518   1.463   1.608 -0.5282 -0.2712  0.5210
  129MOL    C9428510   4.175   1.267   1.635 -0.1204 -0.1427  0.3102
  129MOL    H9528511   4.246   1.468   1.594 -0.5142 -0.1078  0.2918
  129MOL    H9628512   4.603   1.447   1.675  0.2457 -1.5582 -0.7463
  129MOL    H9728513   4.576   1.473   1.517 -0.0814 -0.2936  0.8002
  129MOL    H9828514   4.467   1.556   1.634 -1.2544 -0.5837  0.2333
  129MOL    H9928515   4.188   1.170   1.587  1.1565  0.3202 -0.3002
  129MOL   H10028516   4.075   1.297   1.607 -0.2521 -0.5347  0.3639
  129MOL   C10128517   4.178   1.260   1.790 -1.2378  0.2324  0.4343
  129MOL   C10228518   4.115   1.129   1.839  0.8224  0.2804  0.6314
  129MOL   O10328519   4.006   1.132   1.893 -0.3227 -0.2632 -0.0402
  129MOL   C10428520   4.185   0.996   1.806 -0.2742  0.1690 -0.2508
  129MOL   C10528521   4.121   1.384   1.858  0.6414  0.3225 -0.2875
  129MOL   H10628522   4.285   1.250   1.812 -1.0816 -0.7548 -0.7255
  129MOL   H10728523   4.267   0.967   1.871 -1.8881 -0.6416  1.4760
  129MOL   H10828524   4.110   0.917   1.819  1.1247 -0.8268  2.0194
  129MOL   H10928525   4.225   0.992   1.704  0.6162  1.8039  0.0232
  129MOL   H11028526   4.012   1.389   1.866  0.5292 -0.3451 -1.4064
  129MOL   H11128527   4.147   1.469   1.794  1.1151  1.2309  1.0749
  129MOL   C11228528   4.178   1.428   2.001 -0.9526  0.6150 -0.4400
  129MOL   C11328529   4.070   1.497   2.087 -0.1722  0.2930 -0.0232
  129MOL   O11428530   4.059   1.620   2.101  0.1324 -0.1724  0.6093
  129MOL   C11528531   3.973   1.399   2.150 -0.3026 -0.0752  0.5161
  129MOL   C11628532   4.309   1.505   1.997  0.1684 -0.2135  0.3786
  129MOL   H11728533   4.199   1.332   2.048  0.2658  1.1626  0.1534
  129MOL   H11828534   4.032   1.307   2.149  0.3075  0.3116 -0.6252
  129MOL   H11928535   3.930   1.428   2.246 -0.2003  2.8687 -0.2851
  129MOL   H12028536   3.895   1.370   2.079  0.8291 -1.7270 -0.0942
  129MOL   H12128537   4.286   1.601   1.952 -0.2278 -0.5611 -0.1675
  129MOL   H12228538   4.368   1.451   1.922 -1.4528 -1.1253 -0.2717
  129MOL   C12328539   4.390   1.518   2.127  0.8124  0.5447 -0.0935
  129MOL   C12428540   4.514   1.604   2.102  0.8071 -0.2236  0.2133
  129MOL   O12528541   4.600   1.584   2.010 -0.0412  0.3798  0.0059
  129MOL   C12628542   4.552   1.710   2.203 -0.2803 -0.5533  0.1995
  129MOL   C12728543   4.439   1.379   2.183 -0.4296  0.8773  0.2600
  129MOL   H12828544   4.326   1.559   2.204  0.9984 -1.6474  1.2578
  129MOL   H12928545   4.597   1.803   2.168 -0.9086 -0.4604 -0.3665
  129MOL   H13028546   4.457   1.740   2.249 -0.9724 -0.2655 -1.3889
  129MOL   H13128547   4.611   1.672   2.286 -1.3580 -0.5581  0.9848
  129MOL   H13228548   4.346   1.333   2.218 -1.1078  1.5936 -0.5712
  129MOL   H13328549   4.494   1.399   2.274  2.8894  0.6673 -1.6170
  129MOL   C13428550   4.537   1.283   2.093  0.4965 -0.1103  0.2209
  129MOL   C13528551   4.464   1.170   2.015  0.4399 -0.6648  0.4235
  129MOL   O13628552   4.368   1.108   2.064  0.4260  0.7954 -0.3984
  129MOL   C13728553   4.540   1.109   1.892 -0.5964  0.3831 -0.2924
  129MOL   C13828554   4.666   1.232   2.167 -0.4093 -0.0023  0.3346
  129MOL   H13928555   4.581   1.349   2.018  1.1328 -0.4067  0.3248
  129MOL   H14028556   4.468   1.058   1.828  0.2429 -0.1872 -0.7823
  129MOL   H14128557   4.576   1.193   1.833 -1.3184  1.9104  1.3661
  129MOL   H14228558   4.621   1.046   1.925  0.3979  1.7835 -0.0231
  129MOL   H14328559   4.712   1.306   2.232 -1.1097  0.4560  0.3181
  129MOL   H14428560   4.735   1.200   2.089 -1.6684 -2.3317  0.1268
  129MOL   C14528561   4.661   1.105   2.248 -0.1663  0.3468  0.2148
  129MOL   C14628562   4.566   1.114   2.367 -0.4256  0.3030 -0.2171
  129MOL   O14728563   4.592   1.184   2.466  0.3245  0.0700  0.2182
  129MOL   C14828564   4.437   1.039   2.355  0.4337  0.7046 -0.0583
  129MOL   C14928565   4.806   1.070   2.289  0.3039 -0.2496  0.0604
  129MOL   H15028566   4.623   1.023   2.187  0.5241 -0.8778  1.4106
  129MOL   H15128567   4.446   0.975   2.266  2.9972  0.9010  0.0091
  129MOL   H15228568   4.444   0.976   2.443 -0.3149  0.4437 -0.1844
  129MOL   H15328569   4.347   1.099   2.342  0.6808  1.1557  0.3473
  129MOL   H15428570   4.827   1.106   2.390 -2.7086 -0.7876  0.9192
  129MOL   H15528571   4.879   1.135   2.242 -0.8086  0.4032 -0.7910
  129MOL   C15628572   4.855   0.923   2.280  0.1447 -0.2993 -0.8199
  129MOL   C15728573   4.869   0.867   2.137 -0.2434 -0.2220 -0.2149
  129MOL   O15828574   4.840   0.928   2.038  0.0048 -0.2114  0.5186
  129MOL   C15928575   4.940   0.734   2.113 -0.3594  0.3666  0.4709
  129MOL   C16028576   4.772   0.844   2.379  0.7289  0.3126  0.0152
  129MOL   H16128577   4.954   0.932   2.324  1.9887 -0.5934 -4.7761
  129MOL   H16228578   4.876   0.647   2.122 -0.0637 -0.1348 -1.8681
  129MOL   H16328579   4.990   0.732   2.016 -0.1809 -2.8037  0.5700
  129MOL   H16428580   5.022   0.726   2.184 -0.3109 -0.4729  0.3161
  129MOL   H16528581   4.685   0.812   2.321  0.6919  0.7432 -0.1703
  129MOL   H16628582   4.734   0.911   2.456 -1.3823  1.2721 -1.7988
  129MOL   C16728583   4.836   0.714   2.429  0.5779 -0.6953  0.5327
  129MOL   C16828584   4.751   0.641   2.532  0.4147 -0.5092 -0.2949
  129MOL   O16928585   4.668   0.707   2.600 -0.1933  0.3576  0.1632
  129MOL   C17028586   4.765   0.494   2.551  0.2167 -0.2231 -0.0492
  129MOL   C17128587   4.981   0.730   2.486 -0.1704 -0.0082  0.0297
  129MOL   H17228588   4.847   0.660   2.336  0.0228  1.8693 -1.0860
  129MOL   H17328589   4.672   0.445   2.523 -0.6903  1.6083 -0.3266
  129MOL   H17428590   4.838   0.444   2.487 -1.5069 -1.0949 -1.3544
  129MOL   H17528591   4.790   0.473   2.655  1.8659 -2.2903 -0.8261
  129MOL   H17628592   5.039   0.792   2.418 -0.3170  1.1703  0.9847
  129MOL   H17728593   5.013   0.626   2.476 -0.0273  0.0487 -0.0952
  129MOL   C17828594   5.000   0.774   2.628  0.1328  0.3165 -0.1414
  129MOL   C17928595   4.950   0.917   2.651  0.3689  0.3747 -0.1544
  129MOL   O18028596   4.988   1.009   2.579  0.0365 -0.6821  0.2760
  129MOL   C18128597   4.838   0.939   2.756  0.2131 -0.0683  0.5294
  129MOL   C18228598   5.141   0.742   2.669  0.9025  0.2916  0.1104
  129MOL   H18328599   4.937   0.711   2.691  2.4283 -0.6832  1.2493
  129MOL   H18428600   4.754   0.980   2.701  0.3471 -0.8130 -0.2473
  129MOL   H18528601   4.797   0.848   2.799 -1.8390  1.0515  0.9977
  129MOL   H18628602   4.853   1.020   2.827 -0.9977  0.5848  0.0509
  129MOL   H18728603   5.174   0.811   2.747 -0.3362  1.5719 -0.4878
  129MOL   H18828604   5.215   0.761   2.591 -1.0562 -0.0589 -1.8763
  129MOL   C18928605   5.150   0.596   2.727 -0.0515  0.5611 -0.0488
  129MOL   C19028606   5.105   0.577   2.875  0.2718  0.5023  0.4824
  129MOL   O19128607   5.171   0.591   2.973  0.1046  0.3849 -0.3072
  129MOL   C19228608   4.965   0.516   2.884  0.2161  0.7424  0.6497
  129MOL   C19328609   5.293   0.538   2.706 -0.1177  0.4903  0.1359
  129MOL   H19428610   5.087   0.524   2.676  0.9921  2.0992 -3.6472
  129MOL   H19528611   4.968   0.430   2.817  1.6320  1.3792 -0.1461
  129MOL   H19628612   4.912   0.489   2.975  2.4587  2.3468  2.4842
  129MOL   H19728613   4.892   0.584   2.839  0.8577  0.2173 -1.2271
  129MOL   H19828614   5.302   0.449   2.768 -1.7770 -0.0739 -0.4033
  129MOL   H19928615   5.359   0.612   2.752  1.2367  0.0315 -1.0413
  129MOL   C20028616   5.342   0.519   2.558 -0.7493 -1.3220 -0.7839
  129MOL   C20128617   5.262   0.427   2.474  1.0202  0.4057  0.4829
  129MOL   O20228618   5.197   0.334   2.519  0.2899  0.4465 -0.7650
  129MOL   C20328619   5.256   0.443   2.324 -0.0005 -0.1477  0.1670
  129MOL   C20428620   5.484   0.461   2.551  0.4177  0.9452 -0.1516
  129MOL   H20528621   5.346   0.619   2.513  0.6610 -0.9748  0.0920
  129MOL   H20628622   5.188   0.523   2.297  0.8162  0.6999  0.5941
  129MOL   H20728623   5.358   0.461   2.290  0.0982  0.3846  0.7345
  129MOL   H20828624   5.212   0.351   2.284 -0.4451  0.0386  0.2345
  129MOL   H20928625   5.502   0.432   2.448 -1.6329 -0.0679 -0.2491
  129MOL   H21028626   5.483   0.366   2.604 -1.1256  0.6150 -0.7456
  129MOL   C21128627   5.594   0.558   2.601  0.4934  0.2097  0.1018
  129MOL   C21228628   5.617   0.678   2.503 -0.2083  0.0500  0.8229
  129MOL   O21328629   5.591   0.659   2.388 -0.0166 -0.4265 -0.1049
  129MOL   C21428630   5.676   0.814   2.557 -0.2527 -0.2416  0.0297
  129MOL   C21528631   5.718   0.478   2.644  0.6672  0.0045  0.1920
  129MOL   H21628632   5.547   0.584   2.696 -1.6343  1.3142 -1.2143
  129MOL   H21728633   5.741   0.797   2.642 -0.4287  1.7406  0.5821
  129MOL   H21828634   5.723   0.854   2.467 -0.8126  1.3996  0.4565
  129MOL   H21928635   5.602   0.891   2.580  1.1558  1.8226 -2.1773
  129MOL   H22028636   5.770   0.436   2.558 -0.7269 -1.2015 -0.0811
  129MOL   H22128637   5.685   0.393   2.704 -1.1735 -0.8141 -1.8955
  129MOL   H22228638   5.785   0.529   2.713  1.3931 -0.2721 -0.3102
  130MOL     C128639   0.402   3.410   1.259  0.3369 -0.2596 -0.3226
  130MOL     C228640   0.376   3.434   1.404 -0.0059 -0.1427 -0.8231
  130MOL     O328641   0.267   3.464   1.452  0.2608  0.2216  0.2214
  130MOL     C428642   0.488   3.419   1.496 -0.5730  0.5490  0.4365
  130MOL     C528643   0.268   3.410   1.181  0.3754 -0.0868  0.6379
  130MOL     H628644   0.468   3.493   1.234 -0.6900  0.2042 -1.5830
  130MOL     H728645   0.461   3.452   1.596 -0.6710  3.1256 -0.3994
  130MOL     H828646   0.525   3.317   1.495 -0.3035  0.6502 -0.6953
  130MOL     H928647   0.563   3.494   1.469 -0.0184 -0.4584 -0.8836
  130MOL    H1028648   0.190   3.482   1.205  0.4800  0.3044 -0.1599
  130MOL    H1128649   0.226   3.312   1.203  1.1028 -0.8538 -1.2339
  130MOL    H1228650   0.452   3.318   1.229  1.0631  0.0269  0.0002
  130MOL    C1328651   0.292   3.421   1.026 -0.0791 -0.7213 -0.0935
  130MOL    C1428652   0.326   3.563   0.991 -0.4738  0.1875  0.1750
  130MOL    O1528653   0.437   3.599   0.955 -0.1246 -0.2507  0.0654
  130MOL    C1628654   0.214   3.670   0.986  0.3857 -0.1455  0.4407
  130MOL    C1728655   0.178   3.365   0.947 -0.0813 -0.5463 -0.0164
  130MOL    H1828656   0.385   3.370   0.999  1.9842  1.4702  2.4585
  130MOL    H1928657   0.148   3.663   1.072 -0.0259 -0.0490  0.1325
  130MOL    H2028658   0.267   3.764   0.976 -2.5574  1.1917 -3.6541
  130MOL    H2128659   0.153   3.657   0.896 -0.4666  1.5466  0.7665
  130MOL    H2228660   0.155   3.426   0.859  0.5467 -0.7206 -0.3005
  130MOL    H2328661   0.088   3.376   1.008 -1.9572  1.0612 -2.9354
  130MOL    C2428662   0.190   3.218   0.919  0.0271  0.4481  0.2787
  130MOL    C2528663   0.301   3.193   0.811  0.3259 -0.2486 -0.7967
  130MOL    O2628664   0.397   3.120   0.838 -0.0060  0.0292  0.1809
  130MOL    C2728665   0.299   3.260   0.680 -0.2711 -0.9666 -0.2940
  130MOL    C2828666   0.056   3.161   0.867  0.0109  0.0845 -0.9377
  130MOL    H2928667   0.223   3.158   1.004  1.3614  1.8817  0.8117
  130MOL    H3028668   0.195   3.290   0.666 -0.1801 -0.0077  1.1229
  130MOL    H3128669   0.356   3.352   0.685 -0.9751 -0.5863  0.7513
  130MOL    H3228670   0.322   3.188   0.600  0.4614  1.6487 -2.5216
  130MOL    H3328671   0.032   3.215   0.776 -0.8458  3.1654  1.0492
  130MOL    H3428672   7.813   3.191   0.928 -1.6177  0.4893 -3.3192
  130MOL    C3528673   0.054   3.006   0.847 -0.1303  0.2896 -0.3867
  130MOL    C3628674   7.773   2.965   0.758 -0.0315 -0.2175 -0.3106
  130MOL    O3728675   7.678   3.043   0.733 -0.3610  0.2691 -0.2783
  130MOL    C3828676   7.793   2.842   0.678 -0.1745  0.2657  0.7957
  130MOL    C3928677   0.064   2.928   0.982 -0.1597 -0.4429  0.2716
  130MOL    H4028678   0.142   2.982   0.787  0.5383  0.6347  0.4457
  130MOL    H4128679   7.705   2.817   0.620 -0.2323  0.6747  0.7039
  130MOL    H4228680   0.035   2.871   0.614 -0.3725 -0.9571 -0.0246
  130MOL    H4328681   7.813   2.757   0.744  1.4178  0.3237  0.4060
  130MOL    H4428682   7.825   2.860   1.009  1.7368 -2.8152  0.2119
  130MOL    H4528683   0.090   3.006   1.052 -2.4624  0.9634 -0.3706
  130MOL    C4628684   0.188   2.833   0.976 -0.5552 -0.4118 -0.5701
  130MOL    C4728685   0.178   2.714   0.888  0.3951  0.4002 -0.1013
  130MOL    O4828686   0.097   2.636   0.915 -0.0236  0.3928 -0.5272
  130MOL    C4928687   0.253   2.715   0.761 -0.0682 -0.2330 -0.3013
  130MOL    C5028688   0.227   2.781   1.118 -0.8423 -0.7176 -0.0351
  130MOL    H5128689   0.269   2.899   0.946  0.6377 -1.2609  0.7331
  130MOL    H5228690   0.202   2.785   0.694  0.4842 -0.6894 -1.2090
  130MOL    H5328691   0.360   2.729   0.773  0.2154 -1.7500 -0.9587
  130MOL    H5428692   0.246   2.618   0.712  1.1022  0.4314 -1.8491
  130MOL    H5528693   0.156   2.703   1.142 -0.3407 -0.4060  2.5705
  130MOL    H5628694   0.202   2.860   1.189 -0.9460 -0.7190 -0.0702
  130MOL    C5728695   0.380   2.758   1.137  0.0888 -0.4187  0.8047
  130MOL    C5828696   0.404   2.696   1.278  0.8121 -0.4210  0.2048
  130MOL    O5928697   0.355   2.739   1.378 -0.0237 -0.0393  0.4080
  130MOL    C6028698   0.482   2.568   1.290  0.0594 -0.4400  0.7023
  130MOL    C6128699   0.455   2.896   1.139  0.5008 -0.0608  0.2629
  130MOL    H6228700   0.417   2.685   1.065  1.0526  0.5283  0.3250
  130MOL    H6328701   0.497   2.542   1.394 -0.8909 -1.6862  0.5446
  130MOL    H6428702   0.428   2.495   1.229  0.5367 -0.9962  0.9458
  130MOL    H6528703   0.584   2.582   1.256 -0.6341  0.3206 -1.1680
  130MOL    H6628704   0.492   2.912   1.241 -3.4246  0.8272  1.6135
  130MOL    H6728705   0.389   2.982   1.131  0.4195 -0.1382  0.1060
  130MOL    C6828706   0.569   2.913   1.034  0.7993 -0.3542 -0.1707
  130MOL    C6928707   0.659   2.790   1.020  0.5191 -0.0409 -0.4785
  130MOL    O7028708   0.732   2.754   1.109 -0.0913  0.2977 -0.2582
  130MOL    C7128709   0.654   2.725   0.887 -0.1945 -0.3212 -0.6469
  130MOL    C7228710   0.649   3.043   1.044 -1.1604  0.4306 -0.0663
  130MOL    H7328711   0.509   2.923   0.944 -1.5354  2.5069  1.6356
  130MOL    H7428712   0.612   2.628   0.911  1.5073 -0.9647 -0.1459
  130MOL    H7528713   0.583   2.767   0.816 -0.4272 -0.4724 -0.5034
  130MOL    H7628714   0.755   2.729   0.845 -0.8959  2.5526 -2.1387
  130MOL    H7728715   0.683   3.051   1.147  1.4768  0.6730 -0.9166
  130MOL    H7828716   0.580   3.125   1.024 -0.8990  1.1118  1.7868
  130MOL    C7928717   0.765   3.065   0.955  0.2354 -0.1984 -0.0640
  130MOL    C8028718   0.908   3.022   1.006  0.0796 -0.2111 -0.0830
  130MOL    O8128719   0.972   3.078   1.094  0.0538 -0.3386  0.1334
  130MOL    C8228720   0.969   2.903   0.939 -0.1817  0.7924  0.0213
  130MOL    C8328721   0.790   3.198   0.871 -0.2439  0.0917 -0.1356
  130MOL    H8428722   0.743   2.996   0.874 -0.6755  0.9368 -0.7829
  130MOL    H8528723   0.912   2.871   0.852  0.6549 -1.4293  0.2563
  130MOL    H8628724   1.071   2.926   0.910  0.2018  1.7425  2.0693
  130MOL    H8728725   0.973   2.816   1.006 -1.4853 -0.5306 -1.5703
  130MOL    H8828726   0.703   3.221   0.810 -0.4388  1.6701  0.7036
  130MOL    H8928727   0.876   3.180   0.806  0.5585 -0.9996  1.2021
  130MOL    C9028728   0.833   3.332   0.943 -0.2730  0.4311  0.0425
  130MOL    C9128729   0.735   3.371   1.058  0.1602 -0.1857 -0.1043
  130MOL    O9228730   0.613   3.377   1.040 -0.2836 -0.2295  0.1418
  130MOL    C9328731   0.793   3.409   1.195  0.5882  0.1157  0.4841
  130MOL    C9428732   0.866   3.450   0.843 -0.3111 -0.4022 -0.8937
  130MOL    H9528733   0.927   3.312   0.993  0.2173  0.7358 -0.7590
  130MOL    H9628734   0.894   3.443   1.171 -0.4111  0.4691 -3.5260
  130MOL    H9728735   0.735   3.494   1.231 -1.8472 -1.4853  0.4234
  130MOL    H9828736   0.790   3.322   1.261 -2.1949 -0.5522 -0.4671
  130MOL    H9928737   0.954   3.425   0.784  0.6303  1.8047 -0.4908
  130MOL   H10028738   0.903   3.539   0.894  0.7717 -1.6627  0.6086
  130MOL   C10128739   0.747   3.497   0.750 -0.5066 -0.5286 -0.1594
  130MOL   C10228740   0.756   3.442   0.605  0.4925 -0.6797 -0.1437
  130MOL   O10328741   0.862   3.443   0.547  0.7258  0.2748 -0.1521
  130MOL   C10428742   0.629   3.386   0.545  0.0552 -0.1857 -0.3488
  130MOL   C10528743   0.701   3.651   0.762 -0.1056  0.6116 -0.7928
  130MOL   H10628744   0.668   3.450   0.808 -1.0137  1.1996  0.5564
  130MOL   H10728745   0.545   3.444   0.583 -0.3581 -1.8179  1.3344
  130MOL   H10828746   0.619   3.391   0.437  0.1630 -2.1563 -0.4698
  130MOL   H10928747   0.620   3.282   0.577  3.3180  0.4179  2.9799
  130MOL   H11028748   0.720   3.694   0.860 -0.7751 -1.6250  0.3707
  130MOL   H11128749   0.593   3.642   0.752 -0.2600 -1.6252  2.2216
  130MOL   C11228750   0.747   3.745   0.653  0.1281  0.5059  0.4419
  130MOL   C11328751   0.893   3.773   0.662 -0.4883 -0.2057  0.0895
  130MOL   O11428752   0.958   3.766   0.770 -0.3636  0.2109  0.1948
  130MOL   C11528753   0.956   3.824   0.542 -0.4898 -0.0520 -0.5039
  130MOL   C11628754   0.661   3.875   0.652 -0.4546 -0.0788  0.2196
  130MOL   H11728755   0.749   3.696   0.556  0.5799  0.5504  0.4282
  130MOL   H11828756   1.060   3.853   0.557 -0.3870 -0.8810  0.4677
  130MOL   H11928757   0.968   3.741   0.472  1.8572 -1.3927  1.3955
  130MOL   H12028758   0.899   3.905   0.497  1.0682  0.0181 -2.4161
  130MOL   H12128759   0.711   3.958   0.601 -0.8141 -0.2345 -0.3877
  130MOL   H12228760   0.650   3.910   0.755  0.2398 -0.3461  0.3825
  130MOL   C12328761   0.526   3.868   0.589  0.3972  0.4282 -0.2541
  130MOL   C12428762   0.530   3.817   0.446  0.1267 -0.2469  0.4961
  130MOL   O12528763   0.616   3.864   0.370  0.7778  0.1863  0.0497
  130MOL   C12628764   0.447   3.691   0.413 -0.5665 -0.3122  0.1308
  130MOL   C12728765   0.450   4.006   0.600  0.1052 -0.7751 -0.1492
  130MOL   H12828766   0.467   3.799   0.650 -0.5103  0.3352 -1.2120
  130MOL   H12928767   0.502   3.612   0.364 -3.5973 -1.7571 -1.0936
  130MOL   H13028768   0.402   3.641   0.499  0.3825 -1.6067 -0.1154
  130MOL   H13128769   0.363   3.723   0.350 -0.0246  1.6040  0.3567
  130MOL   H13228770   0.511   4.073   0.540 -1.8348  0.4519 -0.8086
  130MOL   H13328771   0.455   4.043   0.702  0.2297  2.4452 -1.2671
  130MOL   C13428772   0.301   4.022   0.550  0.2686 -0.1791 -0.4476
  130MOL   C13528773   0.277   4.173   0.524 -0.3611  0.8497 -0.2845
  130MOL   O13628774   0.228   4.243   0.608 -0.1029  0.0254 -0.1063
  130MOL   C13728775   0.311   4.230   0.388  0.1437  0.2895 -0.6326
  130MOL   C13828776   0.218   3.952   0.653 -0.4543 -0.2719 -0.1619
  130MOL   H13928777   0.291   3.966   0.457  2.6381 -0.9998 -0.2434
  130MOL   H14028778   0.367   4.319   0.416  0.6526 -0.4377  0.7031
  130MOL   H14128779   0.380   4.171   0.329 -0.6318 -1.7140  0.4149
  130MOL   H14228780   0.224   4.257   0.329 -1.2967 -2.5976  0.0699
  130MOL   H14328781   0.237   4.004   0.747  2.0915 -5.2175  2.2450
  130MOL   H14428782   0.244   3.847   0.661 -1.0396 -0.2952  1.5438
  130MOL   C14528783   0.063   3.948   0.615  0.1116  0.2791 -0.0037
  130MOL   C14628784   7.833   3.957   0.748  0.2731  0.4550 -0.2692
  130MOL   O14728785   7.777   3.859   0.799  0.6903 -0.2479  0.5804
  130MOL   C14828786   7.835   4.090   0.817  0.0549  0.6564 -0.3982
  130MOL   C14928787   0.012   3.827   0.530  0.4834  0.4481  1.0913
  130MOL   H15028788   0.036   4.042   0.568  2.0622  1.0405  0.3653
  130MOL   H15128789   7.736   4.109   0.858 -0.2083 -0.3083 -0.5550
  130MOL   H15228790   0.063   4.088   0.901 -0.5278 -0.6269  0.0692
  130MOL   H15328791   0.023   4.164   0.744 -0.2918  0.5446 -0.6556
  130MOL   H15428792   7.749   3.805   0.551  1.1494 -2.8181  1.1650
  130MOL   H15528793   0.072   3.740   0.556  0.9982 -0.6651 -3.3175
  130MOL   C15628794   0.021   3.848   0.377  0.1270  0.2607  0.7229
  130MOL   C15728795   7.754   3.944   0.320  0.4055  0.3597 -1.5768
  130MOL   O15828796   7.652   3.973   0.388  0.3551 -0.5148  0.4098
  130MOL   C15928797   7.776   4.002   0.184 -0.0951 -0.1449  0.0403
  130MOL   C16028798   0.047   3.723   0.288 -0.7786 -0.9335 -0.3009
  130MOL   H16128799   0.114   3.904   0.369  0.0116  0.2493 -0.7457
  130MOL   H16228800   0.041   3.996   0.167 -0.3456 -2.2089 -0.8821
  130MOL   H16328801   7.726   3.934   0.115 -2.0836  0.0241  1.2686
  130MOL   H16428802   7.755   4.109   0.181 -0.1089 -0.1602 -0.5340
  130MOL   H16528803   0.111   3.654   0.343 -0.4487  0.1749  0.7356
  130MOL   H16628804   0.102   3.769   0.205 -1.6506  0.2653 -0.2182
  130MOL   C16728805   7.765   3.644   0.237  0.1293  0.5595  0.8211
  130MOL   C16828806   7.682   3.579   0.344  0.4437  0.8523  0.0515
  130MOL   O16928807   7.730   3.526   0.444  0.0924  0.2978  0.7409
  130MOL   C17028808   7.534   3.595   0.322  0.9504  1.1960 -0.1303
  130MOL   C17128809   7.820   3.536   0.131  0.2259  0.5276  0.0171
  130MOL   H17228810   7.705   3.720   0.188 -0.0879  0.5242  1.0328
  130MOL   H17328811   7.491   3.530   0.398 -0.3383  0.0376 -1.8110
  130MOL   H17428812   7.514   3.701   0.332  0.2900  1.0138  0.4661
  130MOL   H17528813   7.499   3.557   0.226 -1.7585 -0.1792  1.3444
  130MOL   H17628814   7.743   3.470   0.090 -0.7362  1.3220  0.5291
  130MOL   H17728815   0.035   3.464   0.189 -0.9090  0.6546  1.3124
  130MOL   C17828816   0.060   3.586   0.002  0.8854 -0.1420 -0.9973
  130MOL   C17928817   7.829   3.688   7.756  0.9343 -0.2070 -0.2641
  130MOL   O18028818   7.830   3.805   7.784  0.0309 -0.2033 -0.5313
  130MOL   C18128819   7.747   3.648   7.637  0.1334 -0.1586  0.0241
  130MOL   C18228820   0.116   3.469   7.758 -0.8207  0.1492  0.1114
  130MOL   H18328821   0.151   3.632   0.040 -1.5876  2.3758  2.1295
  130MOL   H18428822   7.794   3.569   7.579 -2.5320 -0.0322 -2.3967
  130MOL   H18528823   7.642   3.627   7.656  0.1187  1.0406  1.3709
  130MOL   H18628824   7.746   3.733   7.569 -2.6785 -2.2037 -2.6645
  130MOL   H18728825   0.037   3.414   7.705 -1.5748  0.4425  0.9168
  130MOL   H18828826   0.135   3.386   7.827 -2.2022 -0.0265  0.2995
  130MOL   C18928827   0.242   3.489   7.669  0.3790  0.1703  0.5303
  130MOL   C19028828   0.249   3.391   7.546 -0.8699 -0.6365  0.1856
  130MOL   O19128829   0.356   3.339   7.511 -0.0158 -0.0568 -0.5414
  130MOL   C19228830   0.129   3.364   7.462 -0.8857  0.4061 -0.4103
  130MOL   C19328831   0.376   3.497   7.743  0.3428  0.9191 -0.0775
  130MOL   H19428832   0.219   3.583   7.618  1.0549 -0.3135 -0.6773
  130MOL   H19528833   0.070   3.453   7.440 -0.0209  1.1505  0.2260
  130MOL   H19628834   0.164   3.336   7.363  1.8791 -0.1579  0.6704
  130MOL   H19728835   0.068   3.292   7.516  1.6987 -0.6870  1.1638
  130MOL   H19828836   0.373   3.589   7.801  0.8425 -0.1124  1.6048
  130MOL   H19928837   0.457   3.516   7.673 -0.8230  1.7871 -1.2073
  130MOL   C20028838   0.412   3.378   7.837  0.0105 -0.4987  0.0258
  130MOL   C20128839   0.345   3.389   0.129 -0.0443 -0.3639  0.0981
  130MOL   O20228840   0.323   3.497   0.185  0.5108  0.5963  0.4321
  130MOL   C20328841   0.322   3.266   0.208  0.0138 -0.0366  0.3317
  130MOL   C20428842   0.564   3.357   0.020  1.1734  0.3155  0.3647
  130MOL   H20528843   0.368   3.288   7.793  1.2510 -0.4211 -1.4007
  130MOL   H20628844   0.293   3.295   0.309  2.3567  1.5180  0.5987
  130MOL   H20728845   0.238   3.203   0.180  0.0315  0.1779 -0.2079
  130MOL   H20828846   0.414   3.208   0.211 -0.0931 -0.4531 -2.8135
  130MOL   H20928847   0.579   3.295   0.109 -2.7473 -1.6374 -0.2169
  130MOL   H21028848   0.610   3.453   0.041  1.0057  0.9220 -1.8829
  130MOL   C21128849   0.632   3.285   7.748  0.0483 -0.1520  0.5903
  130MOL   C21228850   0.566   3.152   7.720 -0.2843 -0.0947  0.7316
  130MOL   O21328851   0.500   3.089   7.803  0.0146 -0.0120 -0.0372
  130MOL   C21428852   0.588   3.104   7.573 -0.0781  0.5528 -0.3199
  130MOL   C21528853   0.787   3.259   7.769 -0.7228 -0.0166 -0.0397
  130MOL   H21628854   0.615   3.344   7.658 -2.0135 -1.4947  0.0819
  130MOL   H21728855   0.629   3.003   7.563  0.7589  0.7151  1.2627
  130MOL   H21828856   0.494   3.119   7.521 -0.0655  0.1412 -0.4640
  130MOL   H21928857   0.658   3.170   7.522 -1.2703 -0.4441 -3.3247
  130MOL   H22028858   0.837   3.222   7.680 -2.5366 -0.9800 -0.6903
  130MOL   H22128859   0.796   3.190   0.011  2.1197  1.4278  0.8927
  130MOL   H22228860   0.839   3.350   7.800  1.2254 -0.6091 -1.5257
  131MOL     C128861   1.093   1.370   2.267  0.5567 -0.0664  0.0892
  131MOL     C228862   1.092   1.510   2.197 -0.1373  0.4584 -0.1656
  131MOL     O328863   1.184   1.592   2.211  0.3245 -0.1986 -0.0039
  131MOL     C428864   0.966   1.549   2.110 -0.2614 -0.0938  0.3975
  131MOL     C528865   1.237   1.339   2.322 -0.1812 -0.3081  0.7576
  131MOL     H628866   1.013   1.380   2.339  0.6810 -0.6146  0.3058
  131MOL     H728867   0.930   1.645   2.148 -2.0237 -0.7279  0.3587
  131MOL     H828868   0.999   1.552   2.006 -3.2320 -2.0704 -0.6551
  131MOL     H928869   0.891   1.471   2.118  0.8630 -1.1930  0.4308
  131MOL    H1028870   1.229   1.261   2.397 -1.3672 -0.1833  0.7656
  131MOL    H1128871   1.262   1.422   2.389  0.3820  0.0944  0.0595
  131MOL    H1228872   1.057   1.289   2.203 -0.8905  1.3644 -0.9448
  131MOL    C1328873   1.360   1.308   2.218  0.8691  0.3141  0.6110
  131MOL    C1428874   1.306   1.202   2.119 -0.6807 -0.5908  0.2779
  131MOL    O1528875   1.307   1.083   2.154 -0.1354  0.0381  0.1847
  131MOL    C1628876   1.246   1.240   1.986  0.4432  0.4183 -0.1069
  131MOL    C1728877   1.491   1.259   2.294 -0.0070 -1.0005  0.7502
  131MOL    H1828878   1.378   1.398   2.158  0.4604 -0.5845 -0.8899
  131MOL    H1928879   1.296   1.328   1.947 -1.5075  2.2057  1.2629
  131MOL    H2028880   1.269   1.167   1.909 -2.1301 -1.7492  1.0963
  131MOL    H2128881   1.137   1.254   1.982  0.1190 -1.7445  0.6424
  131MOL    H2228882   1.555   1.196   2.232 -0.9872 -0.4444 -0.8728
  131MOL    H2328883   1.450   1.201   2.376  1.2595 -0.9459  1.4247
  131MOL    C2428884   1.555   1.378   2.378 -0.1803  0.3090 -0.5047
  131MOL    C2528885   1.631   1.476   2.285 -0.8382  0.6759 -0.1607
  131MOL    O2628886   1.617   1.596   2.298 -0.2696 -0.7008  0.3644
  131MOL    C2728887   1.733   1.414   2.189  0.2531  0.5450 -0.1513
  131MOL    C2828888   1.651   1.323   2.488  0.4188 -0.2084 -0.3556
  131MOL    H2928889   1.479   1.439   2.427 -0.3061  2.1334 -2.8948
  131MOL    H3028890   1.768   1.489   2.117 -0.2577  0.4750 -0.4694
  131MOL    H3128891   1.810   1.362   2.246  0.2246 -0.0078 -0.6139
  131MOL    H3228892   1.689   1.341   2.122 -1.0478 -1.2035  2.5374
  131MOL    H3328893   1.755   1.317   2.458  1.2680  1.9635  1.9809
  131MOL    H3428894   1.624   1.217   2.495  1.8394 -0.6205 -0.9307
  131MOL    C3528895   1.639   1.385   2.625  0.5050 -1.2773  0.7077
  131MOL    C3628896   1.658   1.537   2.624  0.3777 -0.1839 -0.3125
  131MOL    O3728897   1.566   1.614   2.646 -0.3776  0.6468  0.3113
  131MOL    C3828898   1.798   1.599   2.602 -0.3363 -0.0542  0.0007
  131MOL    C3928899   1.730   1.313   2.726  0.0829 -0.2378  0.6246
  131MOL    H4028900   1.533   1.375   2.645 -0.6053  3.4582 -2.0651
  131MOL    H4128901   1.875   1.524   2.618  0.7003  1.0960  0.4623
  131MOL    H4228902   1.807   1.622   2.496 -0.3078  0.5187  0.1276
  131MOL    H4328903   1.815   1.674   2.678 -0.1714 -1.1911  1.0962
  131MOL    H4428904   1.833   1.343   2.706 -0.2794  1.0254  0.5616
  131MOL    H4528905   1.715   1.206   2.714  0.5919 -0.4500  1.8093
  131MOL    C4628906   1.698   1.347   2.877  0.7559 -1.0855 -0.0104
  131MOL    C4728907   1.807   1.301   2.974 -1.2827  0.2078  0.6936
  131MOL    O4828908   1.787   1.206   3.054 -0.2962 -0.2613  0.2362
  131MOL    C4928909   1.946   1.361   2.975  0.1110  0.1756 -0.2289
  131MOL    C5028910   1.560   1.300   2.926  0.6227  0.5768 -0.2159
  131MOL    H5128911   1.690   1.456   2.874 -2.1359 -1.3193 -2.7081
  131MOL    H5228912   1.969   1.436   3.051 -0.1697 -0.5304  0.5612
  131MOL    H5328913   2.019   1.281   2.984 -0.2153 -0.2059 -0.9294
  131MOL    H5428914   1.956   1.410   2.878  0.7464  0.9156  0.2093
  131MOL    H5528915   1.562   1.209   2.985 -1.4417 -0.0274 -1.0299
  131MOL    H5628916   1.509   1.256   2.840  1.7559 -1.9134  0.3393
  131MOL    C5728917   1.466   1.402   2.994  0.5350 -0.0910  0.3332
  131MOL    C5828918   1.530   1.453   3.127  0.2717  0.8191  0.4106
  131MOL    O5928919   1.551   1.379   3.220 -0.6106 -0.0845  0.0893
  131MOL    C6028920   1.586   1.590   3.127 -0.1795  0.3579 -0.3455
  131MOL    C6128921   1.329   1.339   3.023 -0.2667  0.6882 -0.1510
  131MOL    H6228922   1.467   1.488   2.928 -1.2325 -0.8469 -0.7176
  131MOL    H6328923   1.506   1.663   3.135 -2.3359 -2.0722  0.9383
  131MOL    H6428924   1.665   1.597   3.203 -0.9201  1.4465  0.3510
  131MOL    H6528925   1.607   1.624   3.026 -2.8372 -1.8459 -1.6995
  131MOL    H6628926   1.288   1.406   3.100  0.9629 -0.6177  1.6811
  131MOL    H6728927   1.340   1.240   3.067 -1.8850  0.7263  0.3791
  131MOL    C6828928   1.246   1.326   2.891  0.0678  0.4193 -0.7601
  131MOL    C6928929   1.201   1.461   2.833 -0.4406 -0.1445  0.5373
  131MOL    O7028930   1.143   1.548   2.900  0.9299  0.1052 -0.2090
  131MOL    C7128931   1.228   1.481   2.688  0.1695  0.3152  0.7327
  131MOL    C7228932   1.124   1.237   2.901  0.3046 -0.0013 -0.0444
  131MOL    H7328933   1.311   1.280   2.817 -0.4201 -0.2783 -0.7590
  131MOL    H7428934   1.215   1.588   2.668 -1.0475 -0.1181 -0.8810
  131MOL    H7528935   1.336   1.475   2.678  0.0161 -1.1209 -0.1041
  131MOL    H7628936   1.163   1.422   2.623  0.2841  0.6315  0.3266
  131MOL    H7728937   1.056   1.292   2.966 -0.8749 -0.6388 -0.7347
  131MOL    H7828938   1.156   1.150   2.957  1.0808  0.5229  0.3313
  131MOL    C7928939   1.074   1.180   2.763 -0.3831  0.2558 -0.1411
  131MOL    C8028940   0.929   1.216   2.741 -0.5500  0.1007 -0.2727
  131MOL    O8128941   0.889   1.334   2.728 -0.0527 -0.2855 -0.4479
  131MOL    C8228942   0.828   1.103   2.757 -0.1088 -0.6639  0.6466
  131MOL    C8328943   1.105   1.032   2.742  0.5323  0.3231  0.2507
  131MOL    H8428944   1.131   1.227   2.683 -0.1225 -1.9395 -1.2956
  131MOL    H8528945   0.858   1.057   2.850  1.8324 -0.5042  0.1151
  131MOL    H8628946   0.723   1.133   2.752  0.4223  0.9918 -1.3290
  131MOL    H8728947   0.842   1.031   2.677 -0.9024 -3.0008  2.5704
  131MOL    H8828948   1.073   0.996   2.645 -0.4865 -1.3362  1.1822
  131MOL    H8928949   1.050   0.971   2.814  0.9360 -0.5793 -0.2059
  131MOL    C9028950   1.265   1.004   2.758 -0.6338 -0.5307 -0.0474
  131MOL    C9128951   1.340   1.046   2.626 -0.3985 -0.4008 -1.1490
  131MOL    O9228952   1.414   1.147   2.621 -0.1885 -0.1312 -0.1888
  131MOL    C9328953   1.311   0.966   2.504  0.1666 -0.2148 -0.1626
  131MOL    C9428954   1.303   0.861   2.810 -0.9139  0.0216 -0.2000
  131MOL    H9528955   1.302   1.070   2.837 -0.1630 -0.3339 -0.4273
  131MOL    H9628956   1.313   0.863   2.538  4.1685  1.0430  3.9795
  131MOL    H9728957   1.219   0.986   2.451 -0.3772 -1.4019  0.3299
  131MOL    H9828958   1.398   0.979   2.440  0.4997 -0.4035  0.2467
  131MOL    H9928959   1.409   0.844   2.831 -0.6304  0.3214 -1.3445
  131MOL   H10028960   1.270   0.790   2.734 -0.2674 -0.5801  0.0728
  131MOL   C10128961   1.238   0.810   2.943  0.2535  1.1348  0.1473
  131MOL   C10228962   1.268   0.904   3.061  0.4412 -0.4334  0.6538
  131MOL   O10328963   1.184   0.930   3.144 -0.4571  0.8083 -0.5559
  131MOL   C10428964   1.410   0.963   3.080  0.1807 -0.4946 -0.0690
  131MOL   C10528965   1.271   0.659   2.967 -0.4576 -0.2977  0.5977
  131MOL   H10628966   1.131   0.799   2.929  0.7265  0.4754 -3.4563
  131MOL   H10728967   1.459   0.990   2.987  2.6710 -1.7580  0.8156
  131MOL   H10828968   1.403   1.056   3.136 -1.3198 -0.0544 -0.9521
  131MOL   H10928969   1.466   0.888   3.136 -0.3868 -0.3505  0.7016
  131MOL   H11028970   1.377   0.650   2.990 -0.1851 -0.4573 -0.6894
  131MOL   H11128971   1.271   0.614   2.867 -1.1725 -1.4883  1.1313
  131MOL   C11228972   1.185   0.588   3.070  0.0959  0.5053 -0.2709
  131MOL   C11328973   1.266   0.513   3.176  0.4024  0.3671 -0.4016
  131MOL   O11428974   1.382   0.476   3.159 -0.0488 -0.1762  0.1118
  131MOL   C11528975   1.192   0.476   3.301  0.5809  0.0144 -0.7004
  131MOL   C11628976   1.093   0.496   2.991  0.0471 -0.0967 -0.3224
  131MOL   H11728977   1.126   0.659   3.128  1.9160  2.3918 -0.6637
  131MOL   H11828978   1.278   0.448   3.361  0.7254 -0.1427 -0.9780
  131MOL   H11928979   1.130   0.557   3.337 -0.3870 -0.6691 -0.7941
  131MOL   H12028980   1.137   0.382   3.295  1.2018 -0.3467 -0.8206
  131MOL   H12128981   1.051   0.426   3.064 -0.7926 -1.0743 -1.7110
  131MOL   H12228982   1.148   0.427   2.927  0.4392  0.1617 -0.2608
  131MOL   C12328983   0.968   0.567   2.930  0.1000 -0.2086 -0.0275
  131MOL   C12428984   0.884   0.635   3.047  0.2027  0.2554 -0.4871
  131MOL   O12528985   0.876   0.754   3.061  0.2952  0.1746  0.1482
  131MOL   C12628986   0.790   0.548   3.133  0.3770 -0.9227 -0.0549
  131MOL   C12728987   0.893   0.454   2.851  0.0060 -0.0469  0.7181
  131MOL   H12828988   1.001   0.648   2.866  0.0500 -0.3860 -0.2805
  131MOL   H12928989   0.728   0.479   3.076  0.3390 -0.4159 -0.6282
  131MOL   H13028990   0.845   0.487   3.206  0.3961  0.9885  1.5689
  131MOL   H13128991   0.719   0.608   3.190  2.1519 -0.3079  1.5874
  131MOL   H13228992   0.869   0.370   2.915 -2.4499  0.8536  1.0392
  131MOL   H13328993   0.959   0.411   2.775  1.7595  1.1050  1.5482
  131MOL   C13428994   0.762   0.511   2.785 -0.6345  0.2547  0.2739
  131MOL   C13528995   0.673   0.403   2.722  0.1402  0.0653  0.2165
  131MOL   O13628996   0.718   0.328   2.633 -0.2413  0.1346 -0.1983
  131MOL   C13728997   0.535   0.392   2.779  0.6234  0.9024  0.0980
  131MOL   C13828998   0.782   0.636   2.691 -0.1376  0.2368 -0.2313
  131MOL   H13928999   0.713   0.548   2.875  0.4265 -0.0882  0.9989
  131MOL   H14029000   0.523   0.286   2.802  0.0150  0.8052 -0.6562
  131MOL   H14129001   0.529   0.448   2.872  1.3616 -0.0802  0.7553
  131MOL   H14229002   0.466   0.430   2.704 -0.1476  1.3055  0.9873
  131MOL   H14329003   0.832   0.717   2.744 -0.5178  0.5279 -0.3182
  131MOL   H14429004   0.684   0.684   2.689 -1.4540 -2.3441 -2.9301
  131MOL   C14529005   0.837   0.609   2.551 -0.4050  0.2354 -0.1870
  131MOL   C14629006   0.969   0.686   2.526  0.1635  0.3932  0.0495
  131MOL   O14729007   0.957   0.804   2.496  0.8147 -0.4485 -0.4363
  131MOL   C14829008   1.099   0.617   2.560 -0.5394 -0.1086  0.4577
  131MOL   C14929009   0.731   0.634   2.443 -0.5211 -0.0962  0.5583
  131MOL   H15029010   0.871   0.506   2.549 -1.8162 -0.2171 -2.2130
  131MOL   H15129011   1.089   0.508   2.554 -0.1579 -0.0605 -1.6799
  131MOL   H15229012   1.187   0.649   2.504  0.1761 -3.4925 -0.4526
  131MOL   H15329013   1.116   0.638   2.665 -1.1495  0.9191  0.3568
  131MOL   H15429014   0.703   0.739   2.440  0.8868  0.2787 -0.0471
  131MOL   H15529015   0.637   0.587   2.470 -0.8064  0.0537 -0.1447
  131MOL   C15629016   0.780   0.586   2.300  0.2741 -0.0935 -0.4857
  131MOL   C15729017   0.688   0.657   2.204  0.3219  0.1693  0.1154
  131MOL   O15829018   0.570   0.623   2.195 -0.1455 -0.4852 -0.0954
  131MOL   C15929019   0.734   0.770   2.116 -0.1503 -0.3841 -0.3483
  131MOL   C16029020   0.779   0.430   2.285 -0.0622 -0.0619 -0.8987
  131MOL   H16129021   0.877   0.624   2.267 -0.6081  3.3639  0.6168
  131MOL   H16229022   0.837   0.755   2.084  0.2356  2.5747 -0.6338
  131MOL   H16329023   0.666   0.781   2.032  0.3501  0.2090 -0.6856
  131MOL   H16429024   0.733   0.869   2.162  0.1855 -0.0073 -1.1403
  131MOL   H16529025   0.694   0.389   2.231 -0.7543 -0.2215  0.3011
  131MOL   H16629026   0.775   0.382   2.383 -0.2448  1.6956 -0.0308
  131MOL   C16729027   0.903   0.373   2.201  0.7965 -0.0299 -0.4706
  131MOL   C16829028   1.029   0.380   2.282 -0.5346 -0.0926 -0.8376
  131MOL   O16929029   1.109   0.473   2.263 -0.0725  0.5542  0.2224
  131MOL   C17029030   1.062   0.270   2.385 -0.0542 -0.0359 -0.1787
  131MOL   C17129031   0.922   0.442   2.066 -0.0759 -0.0166  1.0102
  131MOL   H17229032   0.876   0.268   2.190  1.7544 -0.3202 -0.0671
  131MOL   H17329033   0.978   0.202   2.401 -0.6702  0.3871 -1.5079
  131MOL   H17429034   1.152   0.214   2.359  0.0227  0.0495 -0.0952
  131MOL   H17529035   1.076   0.302   2.488 -1.3156  2.0880 -0.6315
  131MOL   H17629036   1.019   0.409   2.028  0.3135  1.1736  0.9466
  131MOL   H17729037   0.925   0.551   2.075 -1.2275  0.1173 -0.0843
  131MOL   C17829038   0.809   0.399   1.966 -0.0857  0.1861  0.5817
  131MOL   C17929039   0.816   0.246   1.932  0.0001  0.2329  0.5687
  131MOL   O18029040   0.925   0.197   1.914  0.2498  0.3524 -0.7364
  131MOL   C18129041   0.695   0.153   1.927  0.3658  0.3225 -0.3507
  131MOL   C18229042   0.810   0.490   1.845  0.0135  0.1539  0.3214
  131MOL   H18329043   0.716   0.419   2.018 -0.3791 -1.4189  0.6926
  131MOL   H18429044   0.639   0.166   1.835 -0.3096  0.8865  0.1285
  131MOL   H18529045   0.713   0.048   1.948 -1.2793  0.1693  0.3703
  131MOL   H18629046   0.634   0.198   2.006 -0.6655  1.0796 -1.5771
  131MOL   H18729047   0.896   0.449   1.792  0.9117  3.7186 -1.1282
  131MOL   H18829048   0.833   0.593   1.870 -0.0278 -0.3099  2.3751
  131MOL   C18929049   0.694   0.487   1.743  0.5152 -0.5173 -0.0394
  131MOL   C19029050   0.743   0.498   1.600  0.2359 -0.2139 -0.6113
  131MOL   O19129051   0.702   0.586   1.525  0.3877  0.7177 -0.4379
  131MOL   C19229052   0.826   0.377   1.548 -0.1474 -0.3207 -0.2701
  131MOL   C19329053   0.588   0.589   1.776  0.9793 -0.2234  0.0988
  131MOL   H19429054   0.649   0.388   1.736 -1.1934  0.2288  0.4195
  131MOL   H19529055   0.812   0.293   1.616 -2.5356 -0.1096 -0.4629
  131MOL   H19629056   0.801   0.339   1.449  1.1132  2.9994 -1.9654
  131MOL   H19729057   0.934   0.395   1.545 -0.2843  0.2357 -3.3025
  131MOL   H19829058   0.535   0.615   1.684  1.4643 -1.2903 -0.4935
  131MOL   H19929059   0.633   0.683   1.806  2.2026 -1.3435  1.8301
  131MOL   C20029060   0.490   0.558   1.898  0.7075 -1.0500 -0.2665
  131MOL   C20129061   0.417   0.429   1.887  0.0995 -0.0107 -0.5746
  131MOL   O20229062   0.380   0.381   1.781  0.0539 -0.2931  0.3986
  131MOL   C20329063   0.377   0.363   2.019 -0.2364  0.2128 -0.0239
  131MOL   C20429064   0.390   0.681   1.920 -0.3658  0.0032  0.0315
  131MOL   H20529065   0.550   0.541   1.987  0.6917  0.0548 -0.0358
  131MOL   H20629066   0.283   0.415   2.034 -0.3345 -0.4479  1.7931
  131MOL   H20729067   0.363   0.256   2.005 -0.8838 -0.0237  2.2083
  131MOL   H20829068   0.431   0.395   2.109  1.4249  0.5753 -1.1345
  131MOL   H20929069   0.452   0.767   1.943 -1.3285  0.3205  1.5237
  131MOL   H21029070   0.333   0.668   2.012  1.3709  1.4499  1.3340
  131MOL   C21129071   0.281   0.715   1.813  0.4264 -0.8561  0.1081
  131MOL   C21229072   0.259   0.865   1.810  0.3365 -0.2662  0.2909
  131MOL   O21329073   0.144   0.911   1.820 -0.5434 -0.4818 -0.4669
  131MOL   C21429074   0.366   0.960   1.773  0.9301 -0.1813  1.1148
  131MOL   C21529075   0.148   0.635   1.847  0.3226  0.3842 -0.1043
  131MOL   H21629076   0.313   0.689   1.712 -1.1703 -0.3568 -0.5459
  131MOL   H21729077   0.389   1.039   1.845 -3.8009  2.4492 -0.0312
  131MOL   H21829078   0.462   0.913   1.756  0.8645  0.2078 -0.3402
  131MOL   H21929079   0.322   1.000   1.682 -0.5178  3.1434  3.1680
  131MOL   H22029080   0.145   0.621   1.955 -2.4244  0.4277 -0.1390
  131MOL   H22129081   0.141   0.536   1.801 -1.7109  0.5995 -0.2986
  131MOL   H22229082   0.064   0.688   1.800 -0.1817 -1.0167 -0.8118
  132MOL     C129083   2.790   3.943   3.047 -0.1932  0.3050  0.1400
  132MOL     C229084   2.668   3.887   2.987 -0.6515 -0.2023 -0.7831
  132MOL     O329085   2.590   3.820   3.045  0.2223  0.0311 -0.4624
  132MOL     C429086   2.652   3.910   2.844  0.2381  0.1282  0.5570
  132MOL     C529087   2.828   3.886   3.187 -0.2359  0.3176  0.0989
  132MOL     H629088   2.872   3.921   2.978  0.2863  0.9375  0.5086
  132MOL     H729089   2.683   3.826   2.782  3.5981  2.7075 -1.4592
  132MOL     H829090   2.550   3.938   2.820 -0.2169 -1.7403  0.2710
  132MOL     H929091   2.716   3.995   2.817 -1.4366  1.1755 -0.1954
  132MOL    H1029092   2.917   3.822   3.186  0.5368  1.3918 -1.9769
  132MOL    H1129093   2.753   3.814   3.218 -1.7258  1.6560 -0.3427
  132MOL    H1229094   2.781   4.051   3.053  1.5268  0.4567  0.0563
  132MOL    C1329095   2.828   3.992   3.304  0.4580 -0.2587  0.1062
  132MOL    C1429096   2.937   3.963   3.410 -0.2250 -0.1872  0.1837
  132MOL    O1529097   2.993   4.052   3.474  0.7341  0.2743  0.4242
  132MOL    C1629098   2.957   3.818   3.441  0.1574 -0.3876  0.1317
  132MOL    C1729099   2.681   4.012   3.359  0.5632  0.9694 -0.3577
  132MOL    H1829100   2.854   4.091   3.266 -1.3886  0.0439 -0.4415
  132MOL    H1929101   2.973   3.803   3.548 -0.9528 -1.3379  0.1727
  132MOL    H2029102   2.871   3.756   3.416  0.5735 -0.7787 -0.3472
  132MOL    H2129103   3.043   3.773   3.391 -0.9698 -0.8733 -1.4127
  132MOL    H2229104   2.644   3.918   3.400  1.0838 -0.0219 -2.0937
  132MOL    H2329105   2.609   4.044   3.284  0.2435 -0.3232 -0.6136
  132MOL    C2429106   2.666   4.120   3.474  0.0652 -0.1017  0.6263
  132MOL    C2529107   2.538   4.099   3.544  0.6905 -0.4731 -0.0496
  132MOL    O2629108   2.434   4.122   3.481  0.2720  0.0272  0.0166
  132MOL    C2729109   2.531   4.041   3.683  0.1464  0.3993 -0.2576
  132MOL    C2829110   2.683   4.271   3.429  0.4462  0.0127  0.5655
  132MOL    H2929111   2.741   4.106   3.553 -0.2437  0.9788  1.1258
  132MOL    H3029112   2.580   4.120   3.741 -0.2502  1.1089 -0.8720
  132MOL    H3129113   2.427   4.022   3.709  0.3756  0.6984  0.9132
  132MOL    H3229114   2.584   3.946   3.683 -2.3805 -1.0606 -1.1612
  132MOL    H3329115   2.601   4.295   3.361  0.5870  0.7559  0.6536
  132MOL    H3429116   2.777   4.286   3.376  1.6881  0.0591  2.7629
  132MOL    C3529117   2.696   4.370   3.550  0.0137  0.6049 -0.2316
  132MOL    C3629118   2.659   4.513   3.513 -0.0415 -0.1163  0.1571
  132MOL    O3729119   2.609   4.541   3.401  0.0321  0.7884  0.0295
  132MOL    C3829120   2.664   4.622   3.621  0.4449  0.1508 -0.2990
  132MOL    C3929121   2.835   4.360   3.622 -0.2509  0.3561 -0.3969
  132MOL    H4029122   2.623   4.339   3.625 -0.7003  2.6384 -0.0807
  132MOL    H4129123   2.675   4.723   3.584  0.2982 -0.1425 -1.1468
  132MOL    H4229124   2.578   4.609   3.688 -0.1103 -0.3493 -1.0968
  132MOL    H4329125   2.757   4.617   3.678  1.3965  0.4449 -1.8105
  132MOL    H4429126   2.883   4.458   3.629  0.5885 -0.0396 -0.5964
  132MOL    H4529127   2.908   4.312   3.557 -0.5136 -1.5978  0.7254
  132MOL    C4629128   2.835   4.287   3.759 -0.0758 -0.1516 -0.5267
  132MOL    C4729129   2.802   4.377   3.878 -0.2965  0.0478 -0.4916
  132MOL    O4829130   2.821   4.496   3.883  0.2485  0.1453 -0.1812
  132MOL    C4929131   2.708   4.304   3.977  0.1359 -0.1977  0.1039
  132MOL    C5029132   2.972   4.206   3.796  0.5925  0.5905 -0.6390
  132MOL    H5129133   2.758   4.211   3.744  1.9278 -1.7506 -3.1342
  132MOL    H5229134   2.683   4.201   3.951 -1.2190  0.4225 -1.1620
  132MOL    H5329135   2.760   4.301   4.072 -2.5316  0.6412  1.6491
  132MOL    H5429136   2.616   4.361   3.993  0.5361  0.4519  0.0876
  132MOL    H5529137   2.969   4.108   3.748  0.9750  0.2883 -0.0471
  132MOL    H5629138   2.979   4.185   3.903  1.8180 -0.4710 -0.9153
  132MOL    C5729139   3.108   4.276   3.764  0.2301 -0.0517  0.2344
  132MOL    C5829140   3.213   4.165   3.770 -0.1339 -0.1818 -0.0163
  132MOL    O5929141   3.242   4.116   3.882  0.8721  0.0327 -0.1943
  132MOL    C6029142   3.270   4.096   3.649  0.0526  0.2606 -0.5502
  132MOL    C6129143   3.141   4.400   3.853  0.2601  0.4054 -0.4545
  132MOL    H6229144   3.102   4.302   3.658 -1.8599 -1.0286  0.0879
  132MOL    H6329145   3.371   4.138   3.643 -0.0310  0.1969 -2.8531
  132MOL    H6429146   3.273   3.988   3.663  2.1299 -0.1363 -3.4301
  132MOL    H6529147   3.205   4.123   3.566 -0.2177 -0.1135 -0.4609
  132MOL    H6629148   3.163   4.368   3.954  3.6124  0.9671 -0.9506
  132MOL    H6729149   3.065   4.478   3.860 -1.2077 -1.0739  0.3786
  132MOL    C6829150   3.271   4.483   3.824  0.8809  0.0171  1.0061
  132MOL    C6929151   3.310   4.490   3.670 -0.3849  0.1354 -0.1126
  132MOL    O7029152   3.402   4.426   3.618  0.0703  0.5162  0.2166
  132MOL    C7129153   3.221   4.570   3.571  0.5279  0.6200  0.3008
  132MOL    C7229154   3.387   4.451   3.923 -0.3280 -0.2745 -0.6934
  132MOL    H7329155   3.239   4.586   3.841 -0.4615 -0.0953 -0.7247
  132MOL    H7429156   3.167   4.651   3.620  0.6727  0.5331  0.5999
  132MOL    H7529157   3.278   4.618   3.491  0.5169  2.6597  1.4820
  132MOL    H7629158   3.135   4.514   3.534 -0.4838  2.1240  0.3306
  132MOL    H7729159   3.409   4.345   3.913  2.8410  0.1834  0.8765
  132MOL    H7829160   3.359   4.457   4.028  1.2097 -0.6323 -0.2502
  132MOL    C7929161   3.515   4.535   3.922  0.7677  0.3181  0.3753
  132MOL    C8029162   3.615   4.454   3.996  0.5833 -0.4443 -0.7303
  132MOL    O8129163   3.645   4.469   4.114 -0.0573 -0.0217 -0.2427
  132MOL    C8229164   3.692   4.350   3.909  0.1361 -0.1470 -0.0416
  132MOL    C8329165   3.489   4.678   3.974 -0.0857  0.3681  0.2782
  132MOL    H8429166   3.549   4.535   3.818  0.8464 -0.4127  0.3964
  132MOL    H8529167   3.797   4.369   3.930  0.2005 -0.3007 -0.2192
  132MOL    H8629168   3.655   4.251   3.938  2.4537 -0.8152  0.6931
  132MOL    H8729169   3.678   4.361   3.801  0.4323 -0.5267 -0.1195
  132MOL    H8829170   3.468   4.661   4.079 -4.6189  1.9523 -0.2695
  132MOL    H8929171   3.393   4.715   3.939 -1.3223 -2.2236  0.8167
  132MOL    C9029172   3.607   4.777   3.963 -0.4382 -0.2141 -0.4183
  132MOL    C9129173   3.590   4.899   4.060  0.2419 -0.2121  0.2038
  132MOL    O9229174   3.686   4.939   4.125 -0.0124 -0.4439  0.5283
  132MOL    C9329175   3.463   4.977   4.052 -0.3715  0.2205 -0.0031
  132MOL    C9429176   3.634   4.821   3.816 -0.2137  0.1112 -0.0394
  132MOL    H9529177   3.693   4.722   4.002 -0.2387 -1.3626 -2.3841
  132MOL    H9629178   3.488   5.078   4.084 -0.0888  0.2788 -0.4040
  132MOL    H9729179   3.423   4.963   3.951 -1.4435  2.4499  0.0824
  132MOL    H9829180   3.378   4.938   4.109 -1.1784  0.3400 -1.1037
  132MOL    H9929181   3.670   4.924   3.818  1.2680 -0.3950 -0.6294
  132MOL   H10029182   3.542   4.842   3.762 -1.1474 -2.3320  0.5540
  132MOL   C10129183   3.733   4.732   3.739  0.1470 -0.3892  0.3549
  132MOL   C10229184   3.874   4.730   3.800 -0.1249  0.3358  0.6243
  132MOL   O10329185   3.922   4.620   3.814  0.7437 -0.1090  0.2315
  132MOL   C10429186   3.935   4.858   3.838 -0.1577 -0.0744 -0.4507
  132MOL   C10529187   3.736   4.774   3.585  0.2218 -0.3754 -0.5597
  132MOL   H10629188   3.690   4.632   3.732 -0.1685 -0.4406  2.7965
  132MOL   H10729189   4.042   4.847   3.852 -0.1742  2.0813  1.6072
  132MOL   H10829190   3.925   4.942   3.769 -1.2754 -1.0355 -1.4917
  132MOL   H10929191   3.908   4.890   3.938 -0.0428  0.5598 -0.6187
  132MOL   H11029192   3.783   4.872   3.576 -0.0135 -0.3277 -1.3181
  132MOL   H11129193   3.636   4.797   3.548 -0.6265  0.0144  1.8948
  132MOL   C11229194   3.803   4.676   3.484 -0.4437 -0.1835  0.0631
  132MOL   C11329195   3.902   4.752   3.392 -0.1461  0.6687 -0.7913
  132MOL   O11429196   3.881   4.747   3.271 -0.1255 -0.1366 -0.1879
  132MOL   C11529197   4.026   4.816   3.453  0.4717 -0.3716 -0.0006
  132MOL   C11629198   3.695   4.580   3.417 -0.0494 -0.6612 -0.3302
  132MOL   H11729199   3.866   4.599   3.528 -0.2031 -0.5517 -0.9099
  132MOL   H11829200   4.060   4.911   3.411  0.0133  0.2731  1.0385
  132MOL   H11929201   4.002   4.831   3.559 -0.5001 -1.6408 -0.0208
  132MOL   H12029202   4.108   4.746   3.454  0.3214 -0.5462  0.5109
  132MOL   H12129203   3.645   4.636   3.338 -0.0779 -1.2289 -0.7189
  132MOL   H12229204   3.612   4.568   3.486  1.0594 -2.7533  0.6969
  132MOL   C12329205   3.757   4.442   3.376  0.6234 -0.1433  1.1211
  132MOL   C12429206   3.736   4.412   3.225  0.1371 -0.1516  0.3483
  132MOL   O12529207   3.631   4.352   3.197  0.3804  0.4598  0.0446
  132MOL   C12629208   3.841   4.454   3.118 -0.3772  0.6156  0.3784
  132MOL   C12729209   3.707   4.338   3.477 -0.2049 -0.4223 -0.4255
  132MOL   H12829210   3.865   4.453   3.386  0.7693  1.0936 -1.6781
  132MOL   H12929211   3.934   4.456   3.176 -0.6771 -0.0421  0.8879
  132MOL   H13029212   3.844   4.376   3.042  0.0639 -0.6023  1.6142
  132MOL   H13129213   3.813   4.553   3.082 -0.2931 -0.0723 -1.6035
  132MOL   H13229214   3.601   4.318   3.457 -0.1738 -0.5548 -0.4641
  132MOL   H13329215   3.707   4.384   3.576  0.0607  0.9521 -1.0608
  132MOL   C13429216   3.774   4.203   3.464  0.3037 -0.5181 -0.2575
  132MOL   C13529217   3.677   4.096   3.508 -0.3686  0.5644 -0.0252
  132MOL   O13629218   3.637   4.088   3.625 -0.1857 -0.3873  0.3985
  132MOL   C13729219   3.642   3.986   3.411  0.5084  0.6912  0.6588
  132MOL   C13829220   3.901   4.199   3.548 -0.5390 -0.0209 -0.0019
  132MOL   H13929221   3.802   4.189   3.359  1.7630  1.1979 -0.1162
  132MOL   H14029222   3.655   3.886   3.453 -0.1593 -0.2733 -1.3415
  132MOL   H14129223   3.540   3.976   3.374  0.1387  0.8606  1.6251
  132MOL   H14229224   3.696   3.999   3.317  1.0191  1.9814  1.1226
  132MOL   H14329225   3.884   4.201   3.655  1.4084 -0.0968  0.3228
  132MOL   H14429226   3.947   4.297   3.537 -3.1782  1.2550 -0.0114
  132MOL   C14529227   4.013   4.102   3.496 -0.0613 -0.4917  0.2907
  132MOL   C14629228   3.979   3.954   3.523  0.0884  0.4776 -0.3164
  132MOL   O14729229   3.978   3.868   3.434  0.0901 -0.3457 -0.4729
  132MOL   C14829230   3.945   3.903   3.659 -0.3750 -0.1396  0.2192
  132MOL   C14929231   4.159   4.147   3.550 -0.2980  0.3943 -0.0016
  132MOL   H15029232   4.017   4.115   3.388  1.3372  0.6132  0.4577
  132MOL   H15129233   3.900   3.806   3.639 -0.9552  0.7017 -2.7490
  132MOL   H15229234   4.030   3.903   3.727  0.5644 -2.1699 -0.9207
  132MOL   H15329235   3.858   3.951   3.704  1.5345  2.1719  1.5414
  132MOL   H15429236   4.198   4.078   3.625  2.3104 -0.9320 -2.4649
  132MOL   H15529237   4.148   4.245   3.596  0.7942  0.2494  0.5650
  132MOL   C15629238   4.265   4.154   3.441 -0.3157  0.6458 -0.0322
  132MOL   C15729239   4.295   4.013   3.392  0.7345 -0.3635  0.4974
  132MOL   O15829240   4.328   3.925   3.469 -0.2835 -0.1648 -0.4441
  132MOL   C15929241   4.281   3.986   3.246 -0.2216  0.4674 -0.1855
  132MOL   C16029242   4.386   4.235   3.481 -0.2213 -0.0252  0.6017
  132MOL   H16129243   4.230   4.197   3.347 -0.0965 -2.4301 -1.5882
  132MOL   H16229244   4.186   3.936   3.225 -0.4441  1.5514 -1.8730
  132MOL   H16329245   4.283   4.074   3.181  0.0465  0.8222  0.3049
  132MOL   H16429246   4.366   3.922   3.224  0.4148  0.2259  2.8338
  132MOL   H16529247   4.478   4.203   3.432  1.0439  2.8055  1.1007
  132MOL   H16629248   4.405   4.218   3.586 -0.3770 -0.0732  0.6232
  132MOL   C16729249   4.375   4.390   3.435  0.2963  0.3318 -0.1368
  132MOL   C16829250   4.263   4.469   3.514  0.2053  0.1357 -0.5734
  132MOL   O16929251   4.146   4.484   3.474  0.0980  0.6756  0.1588
  132MOL   C17029252   4.303   4.524   3.647  0.1435  0.3022  0.2622
  132MOL   C17129253   4.361   4.411   3.283 -0.1455 -0.6150 -0.1980
  132MOL   H17229254   4.469   4.434   3.467  0.8654 -2.1306  1.7541
  132MOL   H17329255   4.235   4.603   3.677 -3.2257 -2.6353  0.7991
  132MOL   H17429256   4.315   4.456   3.731 -1.0939 -1.1806 -0.7153
  132MOL   H17529257   4.389   4.588   3.629  0.7971 -0.6664 -0.1176
  132MOL   H17629258   4.265   4.374   3.248 -0.5917 -0.4459  0.8217
  132MOL   H17729259   4.425   4.344   3.226 -2.4749 -1.8698 -1.4046
  132MOL   C17829260   4.369   4.555   3.229  0.0902  0.1311 -0.4560
  132MOL   C17929261   4.311   4.559   3.087  0.4866 -0.0632 -0.5118
  132MOL   O18029262   4.389   4.559   2.993  0.0656 -0.4168  0.1041
  132MOL   C18129263   4.167   4.596   3.071 -0.2629 -0.2087  0.6888
  132MOL   C18229264   4.494   4.642   3.251 -0.1326  0.3401  0.0030
  132MOL   H18329265   4.298   4.611   3.290  1.1166  0.4236  0.5056
  132MOL   H18429266   4.126   4.551   2.981  1.6623  0.9697 -0.7950
  132MOL   H18529267   4.118   4.549   3.157  2.7899 -3.4188  0.7773
  132MOL   H18629268   4.162   4.704   3.059  1.2817 -0.0554  1.3383
  132MOL   H18729269   4.504   4.675   3.354 -0.1754  0.2880  0.0231
  132MOL   H18829270   4.466   4.734   3.200 -1.4364 -0.7443 -1.2674
  132MOL   C18929271   4.626   4.598   3.191  0.4254  0.2533 -0.4901
  132MOL   C19029272   4.704   4.531   3.307  0.1933  0.6287 -0.0461
  132MOL   O19129273   4.719   4.595   3.409 -0.0133 -0.4285  0.0339
  132MOL   C19229274   4.757   4.396   3.282 -0.0923  0.0701  0.5598
  132MOL   C19329275   4.704   4.715   3.123  0.0000  0.6209 -0.9358
  132MOL   H19429276   4.615   4.520   3.116  0.7848  2.0775 -2.4843
  132MOL   H19529277   4.783   4.348   3.377 -1.5320 -0.8995  0.4844
  132MOL   H19629278   4.690   4.340   3.217 -2.1185  0.4330  2.2743
  132MOL   H19729279   4.852   4.414   3.232 -0.9363  1.3601 -0.5935
  132MOL   H19829280   4.712   4.790   3.202  4.4682 -0.1811 -0.4973
  132MOL   H19929281   4.625   4.745   3.054 -1.3352 -0.8846 -0.1054
  132MOL   C20029282   4.839   4.700   3.049 -0.3054  0.1945  0.5142
  132MOL   C20129283   4.853   4.568   2.955 -0.8431 -0.2514  0.2275
  132MOL   O20229284   4.952   4.494   2.966  0.3110  0.3950 -0.0020
  132MOL   C20329285   4.760   4.547   2.834  0.5871 -0.7248  0.4876
  132MOL   C20429286   4.967   4.712   3.135  1.0747 -0.0909  0.3342
  132MOL   H20529287   4.846   4.792   2.991 -2.7979  1.3695  2.0056
  132MOL   H20629288   4.815   4.546   2.740 -2.1953  2.0637 -1.2447
  132MOL   H20729289   4.718   4.446   2.838  1.1736 -0.9538  1.1188
  132MOL   H20829290   4.687   4.627   2.827  1.0084 -0.2828  1.1174
  132MOL   H20929291   5.056   4.705   3.073  1.4894 -0.4691  0.9715
  132MOL   H21029292   4.961   4.622   3.196  0.7379  0.9881  1.9239
  132MOL   C21129293   4.978   4.839   3.227 -0.2516  0.1641 -0.2162
  132MOL   C21229294   4.997   4.967   3.146  0.1177  0.4640 -0.4691
  132MOL   O21329295   5.103   5.027   3.133  0.4649  0.3908 -0.6057
  132MOL   C21429296   4.877   5.045   3.099  0.2453  0.1682 -0.0326
  132MOL   C21529297   5.093   4.817   3.328  0.8944 -0.4257 -0.2901
  132MOL   H21629298   4.881   4.851   3.275 -0.0502 -0.0419  0.2461
  132MOL   H21729299   4.785   4.987   3.112  0.2666  0.4802  1.6973
  132MOL   H21829300   4.876   5.133   3.163  1.5558  1.2889 -1.5228
  132MOL   H21929301   4.868   5.079   2.996  0.8029 -1.7837 -0.7539
  132MOL   H22029302   5.193   4.795   3.290  0.7521  1.3867 -1.8171
  132MOL   H22129303   5.055   4.731   3.383 -1.5267  0.7526 -0.0618
  132MOL   H22229304   5.100   4.903   3.395 -3.1685  0.2696 -0.6584
  133MOL     C129305   3.892   1.635   1.801 -0.5430 -0.1131 -0.3172
  133MOL     C229306   3.805   1.745   1.870  0.4602  0.6243 -0.2292
  133MOL     O329307   3.775   1.844   1.805  0.6115 -0.0895 -0.2393
  133MOL     C429308   3.762   1.717   2.017  0.4436 -0.4885  0.0390
  133MOL     C529309   3.874   1.618   1.653 -0.6447  0.0031  0.0436
  133MOL     H629310   3.996   1.657   1.828 -0.4331  0.0654 -0.8818
  133MOL     H729311   3.817   1.763   2.100  0.1729 -1.9182  1.0186
  133MOL     H829312   3.659   1.752   2.030  0.1000 -1.3419 -0.4021
  133MOL     H929313   3.755   1.611   2.039  1.8965 -0.6443 -0.1738
  133MOL    H1029314   3.959   1.558   1.621 -1.0639  0.9532 -3.0256
  133MOL    H1129315   3.886   1.713   1.600 -0.5284 -0.6944 -1.2087
  133MOL    H1229316   3.869   1.543   1.856 -1.8752  1.7099  2.2611
  133MOL    C1329317   3.746   1.557   1.600  0.0286 -0.2872 -0.0622
  133MOL    C1429318   3.712   1.426   1.669 -0.2766 -1.3935 -0.5965
  133MOL    O1529319   3.797   1.346   1.707 -0.5284  0.2057 -0.1042
  133MOL    C1629320   3.564   1.383   1.676  0.2768  0.2895  0.1011
  133MOL    C1729321   3.750   1.524   1.452  0.0608 -0.4988  0.4429
  133MOL    H1829322   3.665   1.627   1.619 -0.0797  0.5223 -3.2487
  133MOL    H1929323   3.555   1.275   1.688 -1.9743  0.4031 -0.2572
  133MOL    H2029324   3.524   1.439   1.760 -1.0866  0.4874 -0.6572
  133MOL    H2129325   3.510   1.429   1.593 -0.2808  0.4435  0.5436
  133MOL    H2229326   3.663   1.466   1.424  0.0159 -0.2651  0.0891
  133MOL    H2329327   3.843   1.471   1.434  1.6873  2.6134 -0.6813
  133MOL    C2429328   3.752   1.640   1.351  0.2271  0.5535 -0.3417
  133MOL    C2529329   3.632   1.725   1.351  0.3362  0.4992  0.0994
  133MOL    O2629330   3.520   1.676   1.334  0.0475 -0.1370  0.1804
  133MOL    C2729331   3.657   1.864   1.405 -0.1159  0.1851 -0.9633
  133MOL    C2829332   3.779   1.579   1.214 -0.1900 -0.0828  0.1558
  133MOL    H2929333   3.839   1.699   1.379  0.3175  0.1062  0.3431
  133MOL    H3029334   3.757   1.896   1.373  1.2450 -1.8681  1.1519
  133MOL    H3129335   3.583   1.937   1.370 -1.3047 -0.1902  0.7437
  133MOL    H3229336   3.651   1.888   1.511 -0.5744  3.1100 -1.5996
  133MOL    H3329337   3.705   1.499   1.210 -0.6511  0.4097 -1.0649
  133MOL    H3429338   3.873   1.523   1.214 -0.1733 -0.1347 -3.1371
  133MOL    C3529339   3.772   1.673   1.087  0.4694  0.3097 -0.2637
  133MOL    C3629340   3.829   1.577   0.978  0.3386 -0.1130  0.0114
  133MOL    O3729341   3.944   1.589   0.936  0.0548 -0.7078 -0.1286
  133MOL    C3829342   3.732   1.467   0.938 -0.5193 -0.2888 -0.1223
  133MOL    C3929343   3.861   1.801   1.098  0.4475 -0.2534 -0.3867
  133MOL    H4029344   3.667   1.697   1.069  0.2290 -0.7434 -0.3091
  133MOL    H4129345   3.771   1.366   0.926 -0.5665 -0.5529  1.8443
  133MOL    H4229346   3.635   1.474   0.986 -1.9791  1.8984 -3.2347
  133MOL    H4329347   3.698   1.503   0.841 -1.4739  0.5930  0.5267
  133MOL    H4429348   3.963   1.777   1.128  0.5668 -1.0491 -1.3791
  133MOL    H4529349   3.822   1.854   1.184  1.7681  2.2414 -1.2755
  133MOL    C4629350   3.857   1.892   0.966  0.1903  0.5676  0.0351
  133MOL    C4729351   3.987   1.965   0.947  0.1706 -0.1568 -0.4893
  133MOL    O4829352   4.007   2.082   0.977 -0.1577 -0.4727 -0.0906
  133MOL    C4929353   4.105   1.883   0.895  0.9691  0.5886  0.3079
  133MOL    C5029354   3.729   1.988   0.952 -0.3802 -0.0172  0.0944
  133MOL    H5129355   3.855   1.821   0.884  3.1673 -1.5647  1.7270
  133MOL    H5229356   4.176   1.955   0.854  2.3476  1.1201  3.4880
  133MOL    H5329357   4.161   1.831   0.972  1.1973 -0.1400 -0.3375
  133MOL    H5429358   4.074   1.806   0.823 -1.3589  1.2226  0.5912
  133MOL    H5529359   3.756   2.065   0.879  2.1568  1.1130  2.1661
  133MOL    H5629360   3.718   2.042   1.045 -0.4952 -1.1719  0.7641
  133MOL    C5729361   3.589   1.931   0.922 -0.2585  0.2609  0.0450
  133MOL    C5829362   3.591   1.870   0.781  0.1182 -0.2303  0.0494
  133MOL    O5929363   3.570   1.749   0.752 -0.2012 -0.5839 -0.0631
  133MOL    C6029364   3.610   1.976   0.674 -0.2171  0.2181 -0.4484
  133MOL    C6129365   3.470   2.026   0.947  0.0663  0.3740 -0.6697
  133MOL    H6229366   3.586   1.840   0.981  1.4771 -0.7843 -1.4148
  133MOL    H6329367   3.539   2.054   0.699 -1.0287 -1.1135  1.4328
  133MOL    H6429368   3.710   2.016   0.656 -0.6121  1.3096 -0.2493
  133MOL    H6529369   3.576   1.937   0.578  3.6265  0.6697 -2.0825
  133MOL    H6629370   3.448   2.094   0.864 -0.3202  1.1350  0.0465
  133MOL    H6729371   3.512   2.089   1.025 -0.0714  0.4344 -0.6433
  133MOL    C6829372   3.349   1.960   1.012 -0.5406 -0.2862 -0.2126
  133MOL    C6929373   3.306   1.824   0.958  0.6184 -0.3027  0.3492
  133MOL    O7029374   3.248   1.823   0.850 -0.2719  0.2633 -0.0189
  133MOL    C7129375   3.347   1.697   1.041 -0.0389 -0.2112 -0.7635
  133MOL    C7229376   3.228   2.054   1.012  0.1281 -0.2293 -0.5922
  133MOL    H7329377   3.389   1.939   1.111 -0.2371  1.0557 -0.0423
  133MOL    H7429378   3.322   1.705   1.147  0.7638  1.1693 -0.6687
  133MOL    H7529379   3.286   1.617   1.000  0.1531 -1.3069  1.0387
  133MOL    H7629380   3.448   1.658   1.046 -0.5529 -1.5024 -0.3536
  133MOL    H7729381   3.193   2.086   0.914 -1.7306  2.0602  0.7676
  133MOL    H7829382   3.252   2.145   1.068  0.3207 -1.3797  1.2487
  133MOL    C7929383   3.096   2.008   1.067  0.2736  0.4638 -0.0610
  133MOL    C8029384   2.989   2.122   1.036 -0.0494  0.0613  0.0817
  133MOL    O8129385   3.013   2.236   1.061 -0.2385  0.2082  0.0675
  133MOL    C8229386   2.853   2.070   0.990  0.2180  0.4845 -0.5907
  133MOL    C8329387   3.099   1.964   1.218  0.1118 -0.3207 -0.1010
  133MOL    H8429388   3.073   1.925   1.001  1.2900  0.7319 -0.7683
  133MOL    H8529389   2.813   2.153   0.932 -0.7962  1.5262  1.5289
  133MOL    H8629390   2.862   1.979   0.931  0.1321 -1.3446  2.0996
  133MOL    H8729391   2.785   2.040   1.070  2.1043 -0.7784  0.5761
  133MOL    H8829392   3.172   1.887   1.243  1.1237  0.2037 -1.3675
  133MOL    H8929393   3.007   1.909   1.232  0.8598 -1.1900  1.4488
  133MOL    C9029394   3.097   2.082   1.325 -0.2116 -0.0796  0.0409
  133MOL    C9129395   3.242   2.108   1.375  0.7722 -0.5836 -0.5037
  133MOL    O9229396   3.286   2.221   1.378 -0.1105  0.1006  0.0553
  133MOL    C9329397   3.320   1.988   1.410 -1.4952  0.4896  0.4517
  133MOL    C9429398   3.011   2.062   1.447 -0.1884  0.6487  0.2498
  133MOL    H9529399   3.074   2.177   1.276 -0.0666 -0.6049 -1.0636
  133MOL    H9629400   3.407   2.011   1.471  1.7667 -1.6931 -3.1300
  133MOL    H9729401   3.261   1.904   1.447 -2.7689  1.0949 -0.1851
  133MOL    H9829402   3.372   1.942   1.326 -2.2490 -1.1933  0.8759
  133MOL    H9929403   3.054   1.997   1.523 -1.6709 -2.9456 -1.8567
  133MOL   H10029404   2.918   2.016   1.414 -1.7004  4.4209 -1.0482
  133MOL   C10129405   2.973   2.201   1.506 -0.0687 -0.0305  0.5795
  133MOL   C10229406   3.067   2.248   1.615 -0.4362 -0.5439  0.7142
  133MOL   O10329407   3.101   2.170   1.705 -0.2371 -0.3060  0.0529
  133MOL   C10429408   3.102   2.391   1.622  0.3336  0.2767 -0.1344
  133MOL   C10529409   2.825   2.195   1.546 -0.0150  0.2969 -0.0123
  133MOL   H10629410   2.991   2.281   1.434  0.3922  0.7181  1.5119
  133MOL   H10729411   3.122   2.420   1.518 -2.5643  4.0338  0.2412
  133MOL   H10829412   3.017   2.449   1.657 -0.2120  0.2467 -1.3594
  133MOL   H10929413   3.189   2.410   1.684  0.3534 -0.8161  0.1746
  133MOL   H11029414   2.838   2.135   1.636 -1.2254 -0.8632 -0.6018
  133MOL   H11129415   2.765   2.126   1.487 -0.6441  1.4322 -0.7230
  133MOL   C11229416   2.749   2.325   1.587 -0.9910 -0.5634  0.2014
  133MOL   C11329417   2.676   2.301   1.722  0.3030 -0.1728  0.0327
  133MOL   O11429418   2.554   2.301   1.736 -0.7711 -0.2702  0.1854
  133MOL   C11529419   2.768   2.299   1.842 -0.6880 -0.1294 -0.2013
  133MOL   C11629420   2.661   2.362   1.466  0.1550  0.2339  0.4841
  133MOL   H11729421   2.819   2.403   1.617 -0.6614 -2.1495  3.7998
  133MOL   H11829422   2.847   2.224   1.843 -0.9899 -0.4543  1.0923
  133MOL   H11929423   2.832   2.387   1.849 -0.1938 -0.4935 -0.1282
  133MOL   H12029424   2.718   2.296   1.939 -2.2120  2.5425 -0.8469
  133MOL   H12129425   2.606   2.452   1.494 -1.6427 -0.0653 -1.8813
  133MOL   H12229426   2.581   2.289   1.454  0.6087 -0.8486  3.6942
  133MOL   C12329427   2.734   2.384   1.332 -0.7211 -0.3946 -0.2906
  133MOL   C12429428   2.809   2.521   1.340 -0.3402  0.3501 -0.1264
  133MOL   O12529429   2.805   2.608   1.430 -0.1507  0.1030 -0.3661
  133MOL   C12629430   2.907   2.536   1.227  0.0548 -0.8712 -0.5433
  133MOL   C12729431   2.646   2.381   1.213  0.0964 -0.7150 -0.7050
  133MOL   H12829432   2.807   2.305   1.318  1.7021  1.1208  2.9746
  133MOL   H12929433   2.856   2.527   1.131 -1.3715 -0.6399  0.1773
  133MOL   H13029434   2.949   2.637   1.230 -0.4226 -0.7015  0.6475
  133MOL   H13129435   2.987   2.464   1.240  1.4863  0.8559  0.4484
  133MOL   H13229436   2.580   2.295   1.220 -1.8028  0.7864  0.1976
  133MOL   H13329437   2.706   2.367   1.123  1.6102  0.6198  0.0615
  133MOL   C13429438   2.550   2.500   1.178 -0.4915  0.5286  0.6651
  133MOL   C13529439   2.431   2.505   1.266  0.3051 -0.2964  0.6565
  133MOL   O13629440   2.397   2.609   1.321 -0.8222  0.0795  0.1252
  133MOL   C13729441   2.327   2.391   1.262 -0.2339  0.1101 -0.2192
  133MOL   C13829442   2.511   2.497   1.034  0.2955  0.5989  0.0766
  133MOL   H13929443   2.611   2.587   1.204  2.2861 -1.8833  2.4927
  133MOL   H14029444   2.300   2.366   1.160 -2.5586  0.7743  0.2113
  133MOL   H14129445   2.356   2.298   1.311 -2.7251 -1.2350 -1.2217
  133MOL   H14229446   2.240   2.420   1.320  1.3264  1.5057  1.5099
  133MOL   H14329447   2.406   2.523   1.021 -0.5857 -2.5967  0.3000
  133MOL   H14429448   2.500   2.395   0.997  1.4282  0.7200 -0.5892
  133MOL   C14529449   2.617   2.564   0.944 -0.5820 -0.2572 -0.0249
  133MOL   C14629450   2.597   2.720   0.936 -0.3357  0.3868 -0.0704
  133MOL   O14729451   2.516   2.775   1.008  0.0216 -0.0519 -0.3814
  133MOL   C14829452   2.665   2.810   0.833 -0.6272 -0.6214 -0.0522
  133MOL   C14929453   2.618   2.490   0.810  0.4280 -0.0028  0.1575
  133MOL   H15029454   2.718   2.555   0.985 -0.6644 -0.0181  0.2251
  133MOL   H15129455   2.676   2.758   0.738 -0.0167 -0.8154  0.1286
  133MOL   H15229456   2.606   2.902   0.821 -1.9659 -1.4327  0.1782
  133MOL   H15329457   2.770   2.828   0.852 -0.5488 -0.9433 -0.1768
  133MOL   H15429458   2.624   2.384   0.834 -1.0737 -0.7183 -2.4982
  133MOL   H15529459   2.714   2.502   0.761  0.2433 -0.8083 -0.4145
  133MOL   C15629460   2.515   2.532   0.696  0.8781  0.0605 -0.3218
  133MOL   C15729461   2.369   2.514   0.734 -0.0977 -0.2258 -0.6711
  133MOL   O15829462   2.333   2.416   0.792 -0.8964 -0.0126 -0.1810
  133MOL   C15929463   2.268   2.615   0.673 -0.2093  0.0089  0.2056
  133MOL   C16029464   2.535   2.475   0.553 -0.1282 -0.0984  0.4832
  133MOL   H16129465   2.525   2.640   0.682 -0.9064  0.1201 -1.3033
  133MOL   H16229466   2.222   2.678   0.749 -0.2749  1.5823 -1.1174
  133MOL   H16329467   2.328   2.676   0.606  2.3648 -0.0288  2.4119
  133MOL   H16429468   2.190   2.565   0.615 -1.5249  0.0779  1.8652
  133MOL   H16529469   2.631   2.508   0.514 -0.8686  1.2285 -0.2863
  133MOL   H16629470   2.465   2.515   0.480 -0.1116 -1.4945 -0.3088
  133MOL   C16729471   2.533   2.323   0.545  0.6204 -0.0864 -0.4695
  133MOL   C16829472   2.663   2.249   0.576 -0.0475  0.1849  0.3179
  133MOL   O16929473   2.774   2.282   0.533  0.4313 -0.0396  0.0729
  133MOL   C17029474   2.650   2.136   0.682  0.7817 -0.0648  0.7092
  133MOL   C17129475   2.468   2.276   0.409 -0.7194 -0.1561 -0.5510
  133MOL   H17229476   2.470   2.287   0.626 -1.1821 -0.4565 -1.9961
  133MOL   H17329477   2.740   2.089   0.721  0.3762 -2.2886 -0.9510
  133MOL   H17429478   2.586   2.168   0.765 -0.2385 -0.5157  0.1062
  133MOL   H17529479   2.599   2.050   0.639 -0.1648  1.1789 -0.7075
  133MOL   H17629480   2.510   2.185   0.367  1.6096  0.6234 -0.0006
  133MOL   H17729481   2.466   2.359   0.338 -0.7847 -0.6683 -1.1526
  133MOL   C17829482   2.320   2.242   0.417  0.2870  0.2949  0.6459
  133MOL   C17929483   2.276   2.135   0.520 -0.1001 -0.5281 -0.3841
  133MOL   O18029484   2.338   2.035   0.541  0.0334  0.3831 -0.9973
  133MOL   C18129485   2.147   2.161   0.598 -0.0505  0.2970 -0.6292
  133MOL   C18229486   2.256   2.218   0.279 -0.2085  0.3109  0.2887
  133MOL   H18329487   2.273   2.333   0.455  0.3647  0.2246  0.9082
  133MOL   H18429488   2.180   2.180   0.700  1.2121 -0.7448 -0.8190
  133MOL   H18529489   2.097   2.245   0.551 -0.8714  0.5866  0.7406
  133MOL   H18629490   2.073   2.082   0.597  0.0696  0.1660  0.3410
  133MOL   H18729491   2.273   2.301   0.211 -0.1353  1.6896  1.9636
  133MOL   H18829492   2.148   2.228   0.272  0.0142  1.0220 -2.5917
  133MOL   C18929493   2.299   2.089   0.208  0.4878  0.2558  0.0596
  133MOL   C19029494   2.409   2.109   0.107 -0.1805  0.6132  0.2776
  133MOL   O19129495   2.395   2.158   7.842  0.0151 -0.4636 -0.5500
  133MOL   C19229496   2.540   2.048   0.147 -0.7413 -0.4375 -0.2550
  133MOL   C19329497   2.171   2.021   0.152 -0.2564  0.0312 -0.0029
  133MOL   H19429498   2.335   2.015   0.279  0.4776 -3.3621 -3.4694
  133MOL   H19529499   2.559   1.961   0.085  2.5998  1.8330 -2.5535
  133MOL   H19629500   2.612   2.126   0.122  0.5890 -1.5457  0.0485
  133MOL   H19729501   2.540   2.029   0.255  1.0959 -2.0027 -0.5102
  133MOL   H19829502   2.140   2.086   0.070 -2.8098  0.5922  1.3355
  133MOL   H19929503   2.079   2.026   0.210 -1.2642 -1.0052 -1.4489
  133MOL   C20029504   2.200   1.870   0.132 -0.0405  0.1373  0.5853
  133MOL   C20129505   2.204   1.830   7.827  0.2625 -0.0618  0.9905
  133MOL   O20229506   2.099   1.795   7.763  0.7205  0.0472  0.2397
  133MOL   C20329507   2.343   1.814   7.759 -0.1282  0.2086  0.3061
  133MOL   C20429508   2.095   1.777   0.203  0.3244 -0.4872 -0.4403
  133MOL   H20529509   2.295   1.843   0.179  0.5239  1.3669  0.1716
  133MOL   H20629510   2.345   1.731   7.687 -0.5857 -1.6694  2.4041
  133MOL   H20729511   2.368   1.905   7.704 -1.6080 -1.2517 -2.9189
  133MOL   H20829512   2.424   1.793   7.829  0.6459 -1.3630 -0.9996
  133MOL   H20929513   2.102   1.672   0.175  1.1320 -0.5834  0.1140
  133MOL   H21029514   1.998   1.821   0.178  0.9982  1.8814  0.9981
  133MOL   C21129515   2.123   1.775   0.362 -0.5475 -0.2408  0.5983
  133MOL   C21229516   2.240   1.682   0.409 -0.4515 -0.4408  0.6298
  133MOL   O21329517   2.307   1.612   0.329 -0.0481 -0.6454  0.5011
  133MOL   C21429518   2.265   1.681   0.559 -0.0991  0.2802 -0.6137
  133MOL   C21529519   1.998   1.740   0.453 -0.1790  0.0148  0.1988
  133MOL   H21629520   2.157   1.876   0.383  2.4620 -0.8380 -1.0320
  133MOL   H21729521   2.203   1.604   0.606 -0.6903  0.8511 -0.4575
  133MOL   H21829522   2.366   1.648   0.583 -0.6146  0.5912  2.1104
  133MOL   H21929523   2.256   1.777   0.608 -1.3943 -0.8773  1.5057
  133MOL   H22029524   2.010   1.639   0.492 -0.1105 -0.0400  0.0368
  133MOL   H22129525   1.912   1.743   0.386  0.2840 -0.3820 -0.4122
  133MOL   H22229526   1.978   1.812   0.533 -4.2658 -1.5132  0.6731
  134MOL     C129527   7.416   5.253   6.892  0.5048 -0.1566  0.0548
  134MOL     C229528   7.547   5.256   6.816 -0.0101 -0.5599 -0.7260
  134MOL     O329529   7.557   5.294   6.702 -0.2118 -0.3186  0.1482
  134MOL     C429530   7.661   5.206   6.899  0.4168  0.5686  0.7703
  134MOL     C529531   7.387   5.368   6.983 -0.4150 -0.9659 -0.0279
  134MOL     H629532   7.334   5.233   6.823 -0.4238  0.1759  1.0356
  134MOL     H729533   7.755   5.213   6.844 -0.0337 -0.6729 -0.1732
  134MOL     H829534   7.670   5.257   6.995  0.4944  0.2724  0.9227
  134MOL     H929535   7.636   5.106   6.934 -0.2912  0.7170  0.6892
  134MOL    H1029536   7.434   5.458   6.945  2.1987 -2.0766  0.4655
  134MOL    H1129537   7.447   5.354   7.073 -0.9893 -0.3786  0.4549
  134MOL    H1229538   7.422   5.164   6.954 -1.0256  0.9968  1.9267
  134MOL    C1329539   7.233   5.394   7.014  0.7845 -0.5022  0.9576
  134MOL    C1429540   7.163   5.458   6.893 -0.7049  0.2188 -0.9160
  134MOL    O1529541   7.175   5.576   6.861 -0.3681  0.1603 -0.0111
  134MOL    C1629542   7.080   5.364   6.815  0.1831 -0.0847  0.0621
  134MOL    C1729543   7.203   5.484   7.136 -0.0023 -0.3886  0.8905
  134MOL    H1829544   7.192   5.294   7.019 -0.5648  0.1262  3.2728
  134MOL    H1929545   7.005   5.408   6.749 -0.7620  1.8328  2.3496
  134MOL    H2029546   7.140   5.296   6.755  0.3102  0.1066 -0.0278
  134MOL    H2129547   7.029   5.285   6.870  2.6751 -2.2114 -0.5970
  134MOL    H2229548   7.107   5.536   7.143  0.2208 -0.0675  1.6391
  134MOL    H2329549   7.291   5.548   7.132 -0.0955 -0.2781  0.5939
  134MOL    C2429550   7.208   5.401   7.261 -0.0237  0.2290 -0.3154
  134MOL    C2529551   7.068   5.336   7.293  0.1564  0.7403 -0.7829
  134MOL    O2629552   6.986   5.392   7.362  0.1042 -0.0603 -0.3756
  134MOL    C2729553   7.039   5.192   7.258  0.0443 -0.2271  0.2192
  134MOL    C2829554   7.260   5.487   7.383  0.3915 -0.3208  0.7891
  134MOL    H2929555   7.280   5.321   7.250 -0.5818 -0.0733 -1.9304
  134MOL    H3029556   7.005   5.133   7.344 -1.9659  1.9389  0.9716
  134MOL    H3129557   6.953   5.184   7.192  0.8937 -0.6032 -0.8440
  134MOL    H3229558   7.133   5.169   7.209 -0.2201 -1.1736  0.1553
  134MOL    H3329559   7.197   5.575   7.371 -2.2218 -2.0353  1.5405
  134MOL    H3429560   7.357   5.518   7.343 -2.0352  2.9507 -2.9981
  134MOL    C3529561   7.278   5.440   7.527  0.7439 -0.8270  0.8718
  134MOL    C3629562   7.353   5.552   7.597 -0.1509 -0.2802 -0.1246
  134MOL    O3729563   7.468   5.543   7.627  0.0044 -0.2331  0.1975
  134MOL    C3829564   7.270   5.672   7.628  0.3191 -0.4036  0.1673
  134MOL    C3929565   7.336   5.299   7.535 -0.3964 -0.0374 -0.3504
  134MOL    H4029566   7.180   5.436   7.575 -0.5565 -0.0608 -1.6513
  134MOL    H4129567   7.305   5.749   7.559 -1.2162  0.4163  0.2739
  134MOL    H4229568   7.162   5.658   7.627  0.2487  0.1248  0.0275
  134MOL    H4329569   7.298   5.713   7.725  1.2075  0.3411 -0.3955
  134MOL    H4429570   7.435   5.306   7.491 -0.3745 -2.2502 -0.6931
  134MOL    H4529571   7.276   5.241   7.465 -1.3559  2.2986 -1.4933
  134MOL    C4629572   7.335   5.227   7.667 -0.2317 -0.2372 -0.4136
  134MOL    C4729573   7.450   5.126   7.690 -0.3972  0.3505  0.2068
  134MOL    O4829574   7.427   5.014   7.719  0.0004  0.4118  0.3624
  134MOL    C4929575   7.595   5.182   7.682 -0.4589  0.5364  0.0762
  134MOL    C5029576   7.196   5.159   7.698 -0.6662  0.0205  0.3806
  134MOL    H5129577   7.327   5.307   7.741 -1.8057  0.1704 -0.9942
  134MOL    H5229578   7.661   5.107   7.639 -0.0814  0.8287  0.1358
  134MOL    H5329579   7.618   5.266   7.615  0.5105 -1.0863 -1.6812
  134MOL    H5429580   7.622   5.205   7.785 -0.1587  2.0045 -0.3033
  134MOL    H5529581   7.174   5.075   7.633 -4.3348 -0.9551  2.6757
  134MOL    H5629582   7.117   5.231   7.674 -0.7612 -0.2846 -0.2304
  134MOL    C5729583   7.177   5.108   7.841 -0.0007  0.5347  0.3830
  134MOL    C5829584   7.080   4.984   0.003  0.8781 -0.1006 -0.1976
  134MOL    O5929585   6.965   5.010   7.813  0.0727  0.3739  0.3344
  134MOL    C6029586   7.124   4.844   0.038 -0.3410 -0.2022 -0.2022
  134MOL    C6129587   7.141   5.226   0.098  0.4819  0.0512 -1.0117
  134MOL    H6229588   7.267   5.064   0.040 -1.1326 -1.5631  0.7201
  134MOL    H6329589   7.051   4.773   7.841 -1.3120  0.6404  0.0418
  134MOL    H6429590   7.223   4.831   7.835  2.1842  0.2749  4.8896
  134MOL    H6529591   7.101   4.832   0.144 -0.7445 -0.0498 -0.2699
  134MOL    H6629592   7.036   5.250   0.114  0.9627  3.0576 -2.1219
  134MOL    H6729593   7.184   5.320   0.064 -0.4837  0.4386 -1.1898
  134MOL    C6829594   7.197   5.205   0.236  0.2374  0.7623 -0.2365
  134MOL    C6929595   7.109   5.110   0.327  0.0002  0.0739  0.0792
  134MOL    O7029596   6.988   5.092   0.304  0.3364 -0.1489 -0.5070
  134MOL    C7129597   7.173   5.040   0.447 -0.0951  0.8475  0.4681
  134MOL    C7229598   7.211   5.331   0.319 -0.2426 -0.0770 -0.5007
  134MOL    H7329599   7.287   5.144   0.232  0.6003  1.2919 -0.0751
  134MOL    H7429600   7.188   5.130   0.507 -1.2323 -0.1439  2.2700
  134MOL    H7529601   7.095   4.975   0.485  1.5509 -1.1890  0.4222
  134MOL    H7629602   7.256   4.978   0.414 -1.8034 -1.9914  1.3500
  134MOL    H7729603   7.205   5.305   0.424  1.7282  0.2692 -0.2825
  134MOL    H7829604   7.138   5.403   0.281 -2.5802  0.1664  4.1791
  134MOL    C7929605   7.353   5.402   0.314  0.1237  0.1061  0.4505
  134MOL    C8029606   7.397   5.437   0.173  0.2265  0.2908 -0.9381
  134MOL    O8129607   7.462   5.362   0.097 -0.2169 -0.7867 -0.5057
  134MOL    C8229608   7.357   5.579   0.123  0.4552  0.3735 -0.2214
  134MOL    C8329609   7.461   5.305   0.373 -0.5136  0.7980 -0.8606
  134MOL    H8429610   7.349   5.493   0.373 -1.1995  1.7174 -2.0084
  134MOL    H8529611   7.434   5.609   0.052  0.7377 -1.6940 -0.8295
  134MOL    H8629612   7.256   5.577   0.081  0.7377  0.7543 -0.9404
  134MOL    H8729613   7.349   5.638   0.214 -0.3170  0.7092 -0.5021
  134MOL    H8829614   7.486   5.225   0.303 -1.0955  0.2603 -0.4663
  134MOL    H8929615   7.422   5.258   0.463  0.7302 -2.0638 -1.7587
  134MOL    C9029616   7.596   5.374   0.404  0.6511 -0.3121  0.4834
  134MOL    C9129617   7.714   5.273   0.387  0.4391  0.0883 -0.0214
  134MOL    O9229618   7.768   5.227   0.483 -0.2777  0.1871 -0.3386
  134MOL    C9329619   7.759   5.232   0.246 -0.4374  0.2497 -0.0534
  134MOL    C9429620   7.603   5.442   0.546  0.0740 -0.3398 -0.0062
  134MOL    H9529621   7.620   5.454   0.334 -1.8529  0.0344 -0.0223
  134MOL    H9629622   7.787   5.318   0.184  0.3906 -0.9251 -1.3512
  134MOL    H9729623   0.012   5.178   0.251 -0.8657 -0.5151 -0.1088
  134MOL    H9829624   7.688   5.162   0.202 -0.6659  0.0416  0.6437
  134MOL    H9929625   7.520   5.513   0.543  0.9438  0.8304  2.7690
  134MOL   H10029626   7.693   5.504   0.542 -0.4560  0.5630  1.8137
  134MOL   C10129627   7.586   5.357   0.676  0.1225 -0.1433  0.6136
  134MOL   C10229628   7.432   5.343   0.711 -0.3498 -0.4355  0.5135
  134MOL   O10329629   7.357   5.440   0.693 -0.0503  0.2735 -0.5430
  134MOL   C10429630   7.376   5.210   0.767 -0.5492  0.6604  0.8977
  134MOL   C10529631   7.662   5.416   0.792 -0.1772 -0.2354 -0.7472
  134MOL   H10629632   7.612   5.252   0.664 -2.2973 -0.6345 -0.6340
  134MOL   H10729633   7.269   5.208   0.747 -0.3839 -0.8730  0.1477
  134MOL   H10829634   7.425   5.126   0.718 -0.1134  1.4064  0.0337
  134MOL   H10929635   7.395   5.195   0.873  0.1508 -3.2478  0.2919
  134MOL   H11029636   7.648   5.355   0.881  1.1166 -1.6654 -1.4959
  134MOL   H11129637   7.609   5.504   0.825 -1.5443 -2.3148  2.8448
  134MOL   C11229638   7.809   5.446   0.774 -0.8111  0.7697  0.0656
  134MOL   C11329639   0.057   5.324   0.766  0.4786 -0.4317 -0.6998
  134MOL   O11429640   0.038   5.229   0.842  0.0204 -0.2994 -0.0461
  134MOL   C11529641   0.177   5.327   0.668  0.4342  0.0956  0.2281
  134MOL   C11629642   0.016   5.559   0.863  0.1896  0.2286 -0.8126
  134MOL   H11729643   7.813   5.506   0.683  2.9786  2.0664  1.0232
  134MOL   H11829644   0.160   5.373   0.571 -1.6236 -2.3335 -0.6148
  134MOL   H11929645   0.276   5.361   0.699  0.3614  2.3433 -1.8399
  134MOL   H12029646   0.192   5.220   0.648  2.6043  0.4443 -0.0825
  134MOL   H12129647   7.801   5.651   0.852 -1.6044 -1.0044 -2.1776
  134MOL   H12229648   0.116   5.573   0.822  0.1965 -1.9710 -1.6441
  134MOL   C12329649   0.028   5.523   1.013 -0.9227  0.0020  0.1689
  134MOL   C12429650   7.739   5.547   1.091  0.6326 -0.4314 -0.1848
  134MOL   O12529651   7.656   5.634   1.054 -0.4611  0.4400  0.0262
  134MOL   C12629652   7.719   5.472   1.225  0.1707 -0.6346 -0.1291
  134MOL   C12729653   0.152   5.588   1.077  0.9311  0.4099  0.6535
  134MOL   H12829654   0.046   5.416   1.026 -0.9695  0.2807  2.8609
  134MOL   H12929655   7.724   5.537   1.313  0.8059 -0.0298 -0.6049
  134MOL   H13029656   7.617   5.434   1.232 -0.2938  0.6836  0.5648
  134MOL   H13129657   7.797   5.398   1.242  0.8680 -0.2879 -1.6930
  134MOL   H13229658   0.236   5.550   1.019 -0.2399  0.8845 -1.4189
  134MOL   H13329659   0.164   5.546   1.177  1.2361 -0.0872  0.4052
  134MOL   C13429660   0.153   5.745   1.083  0.8955  0.2197  0.1267
  134MOL   C13529661   0.294   5.791   1.065 -0.9135 -0.4854  0.4578
  134MOL   O13629662   0.380   5.769   1.153 -0.1219 -0.3469  0.7756
  134MOL   C13729663   0.332   5.870   0.938 -0.4408 -0.0894 -1.0892
  134MOL   C13829664   0.091   5.803   1.215 -0.0319  0.1560 -0.0040
  134MOL   H13929665   0.093   5.782   1.000  1.7469  2.0832  0.3048
  134MOL   H14029666   0.346   5.812   0.847  2.8329  0.6048 -1.0968
  134MOL   H14129667   0.240   5.927   0.925 -0.1758  0.3232 -1.1622
  134MOL   H14229668   0.419   5.935   0.944  0.5265 -1.3581 -1.0541
  134MOL   H14329669   0.153   5.780   1.301 -2.3753 -1.4682  1.3022
  134MOL   H14429670   7.840   5.751   1.240 -1.0721  0.9371 -2.1225
  134MOL   C14529671   0.066   5.953   1.218  0.7171 -0.1421 -0.1045
  134MOL   C14629672   7.815   5.993   1.104 -0.2042 -0.8107  0.7280
  134MOL   O14729673   0.016   6.036   0.996 -0.3654 -0.0943  0.2671
  134MOL   C14829674   7.664   5.982   1.118 -0.3979 -0.5352 -0.3589
  134MOL   C14929675   0.189   6.042   1.233  0.3303 -0.1483  0.0576
  134MOL   H15029676   0.004   5.966   1.307 -1.0961  0.8010 -1.4833
  134MOL   H15129677   7.638   5.999   1.222  1.3950  2.1288 -0.2942
  134MOL   H15229678   7.608   6.054   1.059  0.4644 -0.5664 -1.2338
  134MOL   H15329679   7.633   5.884   1.080 -3.0110  0.7431 -1.6618
  134MOL   H15429680   0.215   6.044   1.127 -0.0889  1.6215 -0.0250
  134MOL   H15529681   0.275   5.996   1.281 -0.1471  0.7749  1.8000
  134MOL   C15629682   0.178   6.189   1.278 -0.1224  0.2837  0.3248
  134MOL   C15729683   0.305   6.273   1.253  1.0408 -0.1995 -0.1306
  134MOL   O15829684   0.370   6.313   1.350  0.0719 -0.2571 -0.4771
  134MOL   C15929685   0.338   6.312   1.108  0.6703  0.0026  0.0439
  134MOL   C16029686   0.129   6.207   1.428 -0.0006 -0.1944 -0.1025
  134MOL   H16129687   0.101   6.229   1.212 -0.4339  1.7021  1.4932
  134MOL   H16229688   0.292   6.252   1.028  0.6484 -1.0223  0.8132
  134MOL   H16329689   0.303   6.414   1.091  0.3951 -0.2960 -1.2938
  134MOL   H16429690   0.444   6.317   1.083  0.3129  1.0771 -1.3630
  134MOL   H16529691   0.213   6.184   1.493  0.8960  2.0004 -0.4360
  134MOL   H16629692   0.062   6.127   1.462  2.0946 -1.5748  0.8659
  134MOL   C16729693   0.059   6.348   1.442  0.3666 -0.0222  0.0548
  134MOL   C16829694   0.062   6.402   1.584 -0.1370 -0.5053 -0.4998
  134MOL   O16929695   7.805   6.404   1.659  0.3312  0.0484  0.0025
  134MOL   C17029696   0.198   6.453   1.628  0.2122  0.5911 -0.0365
  134MOL   C17129697   7.750   6.344   1.380 -0.1875 -0.4457 -0.3676
  134MOL   H17229698   0.118   6.420   1.385  1.3429 -1.2409 -0.5225
  134MOL   H17329699   0.213   6.558   1.601 -1.4174  0.9811  0.5242
  134MOL   H17429700   0.211   6.446   1.736  3.1955 -1.5230 -0.4578
  134MOL   H17529701   0.275   6.396   1.576  0.2699  1.9365 -1.4732
  134MOL   H17629702   7.681   6.315   1.459  1.0201  0.0610  0.9162
  134MOL   H17729703   7.752   6.264   1.307  0.8228 -1.8105  1.1263
  134MOL   C17829704   7.702   6.473   1.297  0.6856  0.5029 -0.0715
  134MOL   C17929705   7.788   6.505   1.172 -0.2477  0.1662 -0.0000
  134MOL   O18029706   0.041   6.433   1.145 -0.2691 -0.3371 -0.0675
  134MOL   C18129707   7.753   6.619   1.082  0.1059  0.0500  0.0030
  134MOL   C18229708   7.668   6.602   1.383 -0.5036  0.2739 -0.0135
  134MOL   H18329709   7.607   6.440   1.254  1.4237 -1.3442 -0.3220
  134MOL   H18429710   7.798   6.615   0.982  0.7260 -1.4376  0.3294
  134MOL   H18529711   7.645   6.632   1.070  0.5091  0.4945 -4.0965
  134MOL   H18629712   7.810   6.707   1.111 -0.2549  0.0842  0.5990
  134MOL   H18729713   7.669   6.693   1.323  0.1684 -0.3987 -1.0275
  134MOL   H18829714   7.747   6.610   1.457 -0.9313  0.1163  0.4618
  134MOL   C18929715   7.538   6.582   1.465  0.1484 -0.3526 -0.0935
  134MOL   C19029716   7.410   6.574   1.372 -0.3689  0.3110  0.1534
  134MOL   O19129717   7.348   6.468   1.361  0.5116 -0.0895 -0.2801
  134MOL   C19229718   7.364   6.694   1.294 -0.8619 -0.2444 -0.4017
  134MOL   C19329719   7.513   6.684   1.576  0.2202  0.2208 -0.2165
  134MOL   H19429720   7.541   6.488   1.519 -0.6815  0.0035  0.5951
  134MOL   H19529721   7.426   6.783   1.305  1.0780 -1.6453  0.1918
  134MOL   H19629722   7.364   6.666   1.189  1.3832 -1.7465 -0.0311
  134MOL   H19729723   7.264   6.727   1.324 -1.7197 -0.2493 -3.1175
  134MOL   H19829724   7.419   6.740   1.567 -0.2395 -0.3139  1.1110
  134MOL   H19929725   7.584   6.766   1.563 -0.6678  1.2210  1.0264
  134MOL   C20029726   7.523   6.624   1.720  0.1409 -0.3389 -0.4438
  134MOL   C20129727   7.383   6.595   1.768 -0.2089  0.7282 -0.4530
  134MOL   O20229728   7.286   6.665   1.738  0.1654 -0.4262 -0.0630
  134MOL   C20329729   7.363   6.467   1.848  0.1109 -0.2575  0.8397
  134MOL   C20429730   7.591   6.720   1.823 -1.0512  0.4914 -0.0623
  134MOL   H20529731   7.580   6.533   1.704 -1.8066 -1.8484  0.9604
  134MOL   H20629732   7.366   6.377   1.787  2.8672 -0.8396  1.7850
  134MOL   H20729733   7.442   6.456   1.922 -0.0455  0.3513  1.1034
  134MOL   H20829734   7.265   6.470   1.895 -0.1255 -2.3480  0.5213
  134MOL   H20929735   7.511   6.787   1.857 -2.7077 -0.0603 -2.7294
  134MOL   H21029736   7.674   6.771   1.775  0.5618 -0.5858  1.5236
  134MOL   C21129737   7.641   6.658   1.950 -0.1421 -0.4613 -0.4555
  134MOL   C21229738   7.685   6.761   2.043  0.1112 -0.6420  0.5919
  134MOL   O21329739   7.794   6.810   2.023 -0.2096 -0.1713 -0.1734
  134MOL   C21429740   7.600   6.802   2.168  0.9592  0.1230  0.5112
  134MOL   C21529741   7.749   6.551   1.952  0.0794 -0.8341  0.4909
  134MOL   H21629742   7.568   6.605   2.011 -0.3251 -0.3733 -0.5979
  134MOL   H21729743   7.502   6.835   2.134  1.0773 -1.1223 -1.1396
  134MOL   H21829744   7.578   6.717   2.233  0.1222 -1.3545 -1.6450
  134MOL   H21929745   7.647   6.886   2.219 -0.2373  0.2610  1.3972
  134MOL   H22029746   7.801   6.536   2.047  0.3764  0.2308  0.5073
  134MOL   H22129747   7.826   6.567   1.876 -2.7494  0.8612 -2.1121
  134MOL   H22229748   7.709   6.452   1.927 -1.7078  0.3201 -1.3400
  135MOL     C129749   0.548   3.857   3.117  0.6071  0.3646 -0.0476
  135MOL     C229750   0.414   3.816   3.179 -0.0069 -0.6282  0.6726
  135MOL     O329751   0.327   3.897   3.218  0.5165  0.3004 -0.4975
  135MOL     C429752   0.375   3.668   3.155 -0.0927 -0.0740  0.1847
  135MOL     C529753   0.610   3.975   3.190  0.2516 -0.2905 -0.1484
  135MOL     H629754   0.605   3.765   3.129  0.4588  0.1398 -1.0191
  135MOL     H729755   0.422   3.607   3.077  0.1165 -0.7361  0.8196
  135MOL     H829756   0.405   3.609   3.242  0.8614 -1.6470 -1.1654
  135MOL     H929757   0.269   3.650   3.138 -0.5163  0.3165  2.2747
  135MOL    H1029758   0.681   3.948   3.269  0.6825 -0.7188 -0.6826
  135MOL    H1129759   0.545   4.037   3.252  3.2826  1.2314  1.6537
  135MOL    H1229760   0.529   3.885   3.014 -0.8874 -0.4575 -0.0054
  135MOL    C1329761   0.660   4.095   3.105 -0.2789  0.5321 -0.2055
  135MOL    C1429762   0.556   4.158   3.012 -0.4052 -0.2879 -0.0513
  135MOL    O1529763   0.552   4.130   2.892 -0.4447 -0.0187 -0.1786
  135MOL    C1629764   0.461   4.256   3.077  0.0327 -0.1291 -0.2803
  135MOL    C1729765   0.791   4.049   3.030  0.2679 -0.5234  0.0135
  135MOL    H1829766   0.684   4.172   3.179  1.0357  0.1999 -0.2852
  135MOL    H1929767   0.359   4.231   3.050  0.0053  0.9966 -1.2584
  135MOL    H2029768   0.470   4.251   3.186 -0.1012 -1.4468 -0.3230
  135MOL    H2129769   0.473   4.351   3.024  0.1206  0.0968  0.1395
  135MOL    H2229770   0.754   3.966   2.970 -0.9856  1.4957 -2.1030
  135MOL    H2329771   0.854   4.004   3.107  0.1543 -0.0765  0.3722
  135MOL    C2429772   0.873   4.155   2.949  0.3296 -0.2898 -0.7333
  135MOL    C2529773   0.944   4.091   2.829 -0.5413 -0.3604  0.6965
  135MOL    O2629774   1.064   4.055   2.825  0.7145 -0.1786  0.3437
  135MOL    C2729775   0.853   4.066   2.709  0.6263  0.1027  0.9806
  135MOL    C2829776   0.975   4.227   3.051 -0.7661  0.2740  0.5641
  135MOL    H2929777   0.795   4.223   2.916  0.6384  0.4780  0.0990
  135MOL    H3029778   0.786   3.986   2.743  1.7346 -1.2621 -0.0151
  135MOL    H3129779   0.793   4.155   2.694 -0.6795 -0.3931  2.9633
  135MOL    H3229780   0.914   4.046   2.621  1.6582  1.7029  1.3288
  135MOL    H3329781   1.039   4.146   3.086  0.7622  0.6369 -1.2914
  135MOL    H3429782   0.917   4.262   3.136 -0.1743 -1.8243  1.8655
  135MOL    C3529783   1.070   4.336   2.994  0.0414 -0.5440  0.9748
  135MOL    C3629784   1.198   4.365   3.080 -0.4437 -0.1412 -0.1013
  135MOL    O3729785   1.205   4.328   3.196  0.4527  0.4952  0.2771
  135MOL    C3829786   1.322   4.429   3.008 -0.3228 -0.2960  0.9446
  135MOL    C3929787   0.998   4.463   2.967  0.1342 -0.3525 -0.0652
  135MOL    H4029788   1.105   4.300   2.898  0.7143  0.6074  0.7895
  135MOL    H4129789   1.381   4.351   2.960 -1.7794 -2.3945  2.4905
  135MOL    H4229790   1.289   4.497   2.929  0.3984  0.7712  1.5601
  135MOL    H4329791   1.392   4.478   3.076 -0.9074 -0.0902  1.3997
  135MOL    H4429792   0.910   4.448   2.905  0.1463  1.4925 -0.5554
  135MOL    H4529793   1.049   4.527   2.895 -0.2149 -0.3906 -0.3453
  135MOL    C4629794   0.961   4.549   3.096  1.3665 -0.8857 -0.0950
  135MOL    C4729795   0.814   4.586   3.093  0.4237  0.1011 -0.0302
  135MOL    O4829796   0.780   4.697   3.034 -0.6516  0.5128 -0.5427
  135MOL    C4929797   0.707   4.487   3.159 -1.1267  0.2319  0.1744
  135MOL    C5029798   1.050   4.676   3.095 -0.3653 -0.1056 -0.6775
  135MOL    H5129799   0.976   4.485   3.183 -0.4527  0.4387  1.2413
  135MOL    H5229800   0.671   4.516   3.258 -0.6709  0.7831  0.1811
  135MOL    H5329801   0.625   4.478   3.088  1.0745 -1.5215 -2.2528
  135MOL    H5429802   0.758   4.392   3.179 -1.3577 -0.0252 -0.4330
  135MOL    H5529803   1.030   4.714   2.995  0.5544 -1.9704 -1.5997
  135MOL    H5629804   1.156   4.650   3.087 -0.7149 -1.9886  0.3901
  135MOL    C5729805   1.021   4.776   3.212  0.6679  0.7769 -0.1359
  135MOL    C5829806   1.099   4.903   3.179  0.4939  0.2883  0.0097
  135MOL    O5929807   1.219   4.924   3.210 -0.0573 -0.0964 -0.7021
  135MOL    C6029808   1.024   4.997   3.086  0.6161  0.1372  0.2315
  135MOL    C6129809   1.065   4.716   3.354 -0.8094 -0.4333  1.1236
  135MOL    H6229810   0.915   4.801   3.211  0.2419 -0.9444  0.7701
  135MOL    H6329811   1.085   5.085   3.065  0.1218  0.2241 -0.8550
  135MOL    H6429812   0.990   4.950   2.994  1.0863  0.7654 -0.2692
  135MOL    H6529813   0.935   5.037   3.134  0.4406 -1.5842  1.4096
  135MOL    H6629814   1.173   4.711   3.368 -0.5716  0.6607 -0.1786
  135MOL    H6729815   1.035   4.613   3.368 -2.6180 -0.0890 -0.0471
  135MOL    C6829816   1.001   4.778   3.482  0.7913  0.9738 -0.4808
  135MOL    C6929817   0.847   4.805   3.462 -0.8440  0.6861  0.5530
  135MOL    O7029818   0.810   4.898   3.392  0.4703 -0.4094 -0.7549
  135MOL    C7129819   0.755   4.694   3.506  0.2932 -0.0446  0.7814
  135MOL    C7229820   1.069   4.909   3.524 -0.4641  0.1717  0.2879
  135MOL    H7329821   1.012   4.701   3.559 -1.0399  0.1880 -0.9911
  135MOL    H7429822   0.724   4.725   3.606  0.5752  0.5097  0.7021
  135MOL    H7529823   0.663   4.693   3.449  0.7007 -0.7289  0.1299
  135MOL    H7629824   0.798   4.594   3.511 -2.3275 -1.2491  0.0344
  135MOL    H7729825   1.049   4.976   3.441  2.4118  0.1932 -0.4647
  135MOL    H7829826   1.177   4.903   3.507 -0.3323  2.1189  0.3352
  135MOL    C7929827   1.029   4.971   3.662  0.1977 -0.0944 -0.2794
  135MOL    C8029828   1.036   4.884   3.790 -0.2025 -0.2663 -1.0594
  135MOL    O8129829   0.928   4.831   3.835  0.5997  0.0170 -0.1342
  135MOL    C8229830   1.170   4.847   3.858  0.0207 -0.6466  1.0651
  135MOL    C8329831   0.895   5.058   3.667 -0.4430  0.0792  0.1458
  135MOL    H8429832   1.110   5.041   3.682  1.6331 -1.8614  0.2013
  135MOL    H8529833   1.160   4.913   3.944  0.7755  1.3554 -0.3375
  135MOL    H8629834   1.160   4.745   3.894 -0.8548 -0.8648  0.2199
  135MOL    H8729835   1.265   4.868   3.808 -0.3796  0.7414  0.8551
  135MOL    H8829836   0.881   5.084   3.772 -0.7430 -0.8683  0.3457
  135MOL    H8929837   0.804   5.006   3.637  0.0759 -1.5050  1.2758
  135MOL    C9029838   0.900   5.184   3.579 -0.6013 -0.1274 -0.1347
  135MOL    C9129839   0.997   5.288   3.629  0.2790  0.0563 -0.2571
  135MOL    O9229840   0.990   5.325   3.748 -0.6006 -0.2392 -0.0447
  135MOL    C9329841   1.113   5.319   3.538 -0.6790 -1.0176 -0.1990
  135MOL    C9429842   0.755   5.243   3.561  0.5761 -0.6161  0.0336
  135MOL    H9529843   0.950   5.147   3.489  0.3216 -1.5032  0.9111
  135MOL    H9629844   1.171   5.396   3.590 -0.7880 -1.2202  0.2264
  135MOL    H9729845   1.172   5.232   3.510 -0.0097 -1.0628  1.2838
  135MOL    H9829846   1.082   5.369   3.446  1.7808  1.8339  0.4553
  135MOL    H9929847   0.750   5.349   3.584  1.4209 -0.9387  1.8552
  135MOL   H10029848   0.692   5.199   3.638 -0.1110 -2.1772 -1.4008
  135MOL   C10129849   0.691   5.224   3.425 -0.5586 -0.5537  0.6433
  135MOL   C10229850   0.771   5.304   3.317 -0.2105 -0.6303  0.6957
  135MOL   O10329851   0.859   5.242   3.254 -0.3532  0.4840 -0.0172
  135MOL   C10429852   0.752   5.456   3.303  0.0131  0.5679  0.1933
  135MOL   C10529853   0.542   5.257   3.424  0.6214  0.6282  0.1459
  135MOL   H10629854   0.703   5.118   3.401 -2.6641 -0.6279 -0.2245
  135MOL   H10729855   0.719   5.490   3.401  0.4545 -0.8941  0.8639
  135MOL   H10829856   0.842   5.505   3.264  0.3329  0.4686  0.7971
  135MOL   H10929857   0.676   5.475   3.228 -0.1155 -3.7122 -0.8965
  135MOL   H11029858   0.518   5.362   3.445 -2.4079 -0.4548  2.5910
  135MOL   H11129859   0.494   5.203   3.506 -0.4445  1.2761 -0.0384
  135MOL   C11229860   0.462   5.207   3.298 -0.2768 -0.1995  1.0996
  135MOL   C11329861   0.345   5.307   3.276  0.7119  0.2903  0.5116
  135MOL   O11429862   0.255   5.307   3.359 -0.3360 -0.1148  0.5131
  135MOL   C11529863   0.341   5.386   3.145  0.0437 -0.1785 -0.2392
  135MOL   C11629864   0.421   5.058   3.296  0.3091  0.6675  0.4922
  135MOL   H11729865   0.531   5.223   3.215 -0.6819 -2.0959  0.3872
  135MOL   H11829866   0.245   5.432   3.119  0.2341  1.7627  2.4013
  135MOL   H11929867   0.422   5.457   3.155  1.1785 -1.7004  1.6340
  135MOL   H12029868   0.365   5.313   3.068 -0.8281 -0.8568  0.1166
  135MOL   H12129869   0.327   5.045   3.243  0.4733  0.0833  0.3364
  135MOL   H12229870   0.414   5.032   3.402 -2.3072  0.1990  0.2295
  135MOL   C12329871   0.519   4.965   3.220 -0.0524 -0.4723  0.4185
  135MOL   C12429872   0.547   4.998   3.070  0.4354  0.6925  0.9113
  135MOL   O12529873   0.454   5.038   3.000 -0.1758  0.0087  0.2282
  135MOL   C12629874   0.687   5.000   3.011  1.0089  0.4934  0.1197
  135MOL   C12729875   0.505   4.814   3.234 -0.3950 -0.1452  0.1550
  135MOL   H12829876   0.613   4.979   3.273 -0.2301  1.0554  0.3531
  135MOL   H12929877   0.759   4.944   3.071  2.1031  1.5540 -0.1906
  135MOL   H13029878   0.682   4.963   2.908 -1.3156  0.4527  0.2181
  135MOL   H13129879   0.731   5.099   2.999  1.8533 -0.1777 -2.8749
  135MOL   H13229880   0.512   4.799   3.341 -0.1146  1.2142  0.3361
  135MOL   H13329881   0.590   4.761   3.191 -0.5071  0.6293 -1.0398
  135MOL   C13429882   0.372   4.752   3.187 -0.0893  0.6605 -0.0039
  135MOL   C13529883   0.335   4.640   3.286 -0.2501 -0.1371  0.0455
  135MOL   O13629884   0.360   4.522   3.265  0.1625 -0.1717 -0.1299
  135MOL   C13729885   0.273   4.680   3.420 -0.4906  0.2530  1.1109
  135MOL   C13829886   0.370   4.703   3.040  0.6101  0.1868  0.2817
  135MOL   H13929887   0.290   4.822   3.205  0.9944  1.8706  0.3058
  135MOL   H14029888   0.316   4.621   3.500  0.1304 -0.2834  0.3863
  135MOL   H14129889   0.272   4.788   3.430 -0.6015  0.5605 -1.6766
  135MOL   H14229890   0.167   4.652   3.415 -0.4116  0.1753 -0.4052
  135MOL   H14329891   0.438   4.618   3.027 -0.2978 -0.5179  0.1006
  135MOL   H14429892   0.418   4.785   2.987 -0.6048 -0.0686 -1.2571
  135MOL   C14529893   0.232   4.685   2.970  0.1683 -0.0097  1.0333
  135MOL   C14629894   0.139   4.804   2.989  0.0191 -0.3135  0.3909
  135MOL   O14729895   0.058   4.797   3.083 -0.0450  0.9911  0.2473
  135MOL   C14829896   0.135   4.917   2.884 -0.5085  0.5835  0.1115
  135MOL   C14929897   0.172   4.548   2.999 -0.3267 -1.0903  0.4080
  135MOL   H15029898   0.264   4.681   2.866 -1.5453  1.4077  0.4448
  135MOL   H15129899   0.064   4.995   2.909 -3.0560 -0.8759 -2.2870
  135MOL   H15229900   0.233   4.965   2.886 -0.9437  1.6380 -2.5556
  135MOL   H15329901   0.121   4.885   2.781  0.8524  2.8584 -0.8208
  135MOL   H15429902   0.078   4.551   3.055 -0.3290 -2.7969  0.5221
  135MOL   H15529903   0.245   4.495   3.060  0.5267  0.3968  0.7188
  135MOL   C15629904   0.143   4.462   2.874  0.1058 -0.3827  1.1238
  135MOL   C15729905   0.270   4.407   2.810  0.0358 -0.0255  0.1953
  135MOL   O15829906   0.381   4.464   2.797  0.4430 -0.0710 -0.2528
  135MOL   C15929907   0.256   4.262   2.767  0.4411 -0.5757 -0.1366
  135MOL   C16029908   0.058   4.521   2.756 -0.8386  1.2831 -0.6697
  135MOL   H16129909   0.092   4.374   2.912 -1.0667  0.0962  0.6690
  135MOL   H16229910   0.260   4.199   2.855  1.5321 -1.7420 -0.9972
  135MOL   H16329911   0.152   4.255   2.735 -0.2455 -0.5809  2.0249
  135MOL   H16429912   0.332   4.248   2.690  0.8181 -1.6556  0.4218
  135MOL   H16529913   0.061   4.461   2.665  2.0615  1.5204 -0.7759
  135MOL   H16629914   0.095   4.620   2.732  0.8483  1.1658  1.3028
  135MOL   C16729915   7.747   4.539   2.777  0.1034 -0.4079 -0.1933
  135MOL   C16829916   7.667   4.408   2.797 -0.0553 -0.4553 -0.6587
  135MOL   O16929917   7.711   4.303   2.751 -0.2028  0.1325 -0.6718
  135MOL   C17029918   7.529   4.412   2.863 -0.2521  0.1047  0.0015
  135MOL   C17129919   7.689   4.605   2.657 -0.5524 -0.7525  0.1269
  135MOL   H17229920   7.733   4.603   2.864 -0.6049 -0.2004 -0.4529
  135MOL   H17329921   7.452   4.428   2.787  0.2246  1.4130 -0.2161
  135MOL   H17429922   7.515   4.313   2.907  1.8373 -0.3571 -0.3309
  135MOL   H17529923   7.526   4.483   2.946 -2.7783  0.2496 -0.1705
  135MOL   H17629924   7.593   4.556   2.641 -1.1440  0.2503  0.5879
  135MOL   H17729925   7.751   4.583   2.569 -1.2242 -0.8424 -0.3289
  135MOL   C17829926   7.656   4.758   2.675 -0.2414  0.2776 -0.1173
  135MOL   C17929927   7.571   4.784   2.795  0.5353  0.0897  0.0086
  135MOL   O18029928   7.474   4.719   2.820  0.3517 -0.3734  0.4693
  135MOL   C18129929   7.601   4.912   2.874 -0.0407  0.0476 -0.2941
  135MOL   C18229930   7.590   4.813   2.551 -0.4731  0.1815  0.5689
  135MOL   H18329931   7.754   4.800   2.695 -0.8303  0.6620  2.1390
  135MOL   H18429932   7.499   4.953   2.872 -0.0989 -0.0963 -0.2693
  135MOL   H18529933   7.623   4.873   2.973  0.7581  0.1684 -0.4240
  135MOL   H18629934   7.683   4.969   2.830  1.3884  0.5325  2.8704
  135MOL   H18729935   7.481   4.801   2.547 -0.1933 -1.8249 -2.8661
  135MOL   H18829936   7.628   4.757   2.465 -0.3573  0.9802  0.0963
  135MOL   C18929937   7.628   4.957   2.521 -0.3986 -0.1460  0.9566
  135MOL   C19029938   7.529   5.025   2.419  0.4659 -1.1350  0.3446
  135MOL   O19129939   7.496   4.966   2.313  0.4800 -0.7535  0.4628
  135MOL   C19229940   7.483   5.168   2.443 -0.7052 -0.3360 -0.2263
  135MOL   C19329941   7.775   4.970   2.469  1.0589  0.0212  0.4716
  135MOL   H19429942   7.620   5.012   2.614 -2.8504  0.4388  0.4203
  135MOL   H19529943   7.561   5.233   2.482 -0.5203  0.6844 -2.2032
  135MOL   H19629944   7.457   5.217   2.349 -0.9198  1.0234  0.5382
  135MOL   H19729945   7.392   5.174   2.502 -0.3254 -0.1745  0.3432
  135MOL   H19829946   7.774   4.943   2.363  0.6036  1.9527 -0.0427
  135MOL   H19929947   0.003   4.904   2.520  1.0979 -1.5037 -1.4937
  135MOL   C20029948   7.831   5.112   2.468 -0.9644 -0.1620  0.0594
  135MOL   C20129949   0.112   5.119   2.378  0.1475  0.8742  1.1009
  135MOL   O20229950   0.179   5.017   2.344  0.9614  0.0562  0.0270
  135MOL   C20329951   0.143   5.255   2.331 -0.4809  0.4200 -0.2393
  135MOL   C20429952   0.002   5.163   2.612 -0.2076 -0.1718 -0.7188
  135MOL   H20529953   7.756   5.170   2.415 -0.2991  0.2364 -0.4470
  135MOL   H20629954   0.063   5.326   2.350 -0.1026  1.0508 -0.9633
  135MOL   H20729955   0.227   5.299   2.385 -0.2340 -0.8487  0.4287
  135MOL   H20829956   0.159   5.257   2.223 -0.6691 -0.5783 -0.2920
  135MOL   H20929957   0.089   5.110   2.653 -1.4563  0.6784  3.3063
  135MOL   H21029958   7.757   5.147   2.676  0.9745 -0.0445  0.9683
  135MOL   C21129959   0.031   5.312   2.636  0.5505 -0.1714 -0.2887
  135MOL   C21229960   0.091   5.343   2.773 -0.0819  0.5785  0.2284
  135MOL   O21329961   0.210   5.358   2.788  0.8256 -0.8065  0.3583
  135MOL   C21429962   7.841   5.347   2.893 -0.1243  0.5003  0.2819
  135MOL   C21529963   7.751   5.403   2.592  0.1166 -0.0885 -0.0371
  135MOL   H21629964   0.112   5.347   2.572  1.2317  2.1210  1.7511
  135MOL   H21729965   7.783   5.439   2.893 -0.6903  0.2351 -4.0419
  135MOL   H21829966   7.773   5.262   2.891 -0.4693  0.7986 -1.2189
  135MOL   H21929967   0.059   5.338   2.984  0.3357 -1.0410 -0.1496
  135MOL   H22029968   7.744   5.397   2.484 -1.2328  1.5328 -0.0588
  135MOL   H22129969   7.761   5.503   2.636  1.7049 -1.3096  2.5023
  135MOL   H22229970   7.655   5.375   2.635 -0.4112  3.3812  1.2725
  136MOL     C129971   2.144   3.548   1.096 -0.4332 -0.8520  1.2528
  136MOL     C229972   2.039   3.663   1.089  0.2109  0.5682  0.0181
  136MOL     O329973   1.958   3.685   1.180  0.4932 -0.2665  0.2503
  136MOL     C429974   2.035   3.757   0.964  0.1856 -0.5141  0.0559
  136MOL     C529975   2.265   3.575   1.180 -1.1804 -0.0752 -0.3736
  136MOL     H629976   2.081   3.474   1.145 -1.8279 -0.1287  0.5617
  136MOL     H729977   2.133   3.799   0.940 -0.0866 -0.3104 -0.7096
  136MOL     H829978   2.001   3.700   0.878 -0.4583  3.4184 -2.4040
  136MOL     H929979   1.961   3.832   0.994 -0.9677 -1.4687 -0.3873
  136MOL    H1029980   2.318   3.480   1.185 -1.3630 -0.2200 -1.1968
  136MOL    H1129981   2.225   3.606   1.277  2.2587 -2.0473  1.7827
  136MOL    H1229982   2.166   3.523   0.992 -0.2661 -1.2730  1.3884
  136MOL    C1329983   2.353   3.696   1.145 -0.8234  0.7955 -0.0290
  136MOL    C1429984   2.395   3.686   0.994  0.3370 -0.0609 -0.1082
  136MOL    O1529985   2.401   3.582   0.928  0.5212 -0.5918 -0.3670
  136MOL    C1629986   2.421   3.824   0.930 -0.3524  0.5498  0.6080
  136MOL    C1729987   2.481   3.721   1.237 -0.1693 -0.0991 -0.0441
  136MOL    H1829988   2.293   3.786   1.160 -2.7150 -0.6089  0.9247
  136MOL    H1929989   2.522   3.827   0.889 -0.7485  0.9875 -0.3342
  136MOL    H2029990   2.353   3.844   0.848 -0.3592  0.6400  0.6355
  136MOL    H2129991   2.400   3.894   1.012 -5.0343 -0.8614  0.7385
  136MOL    H2229992   2.437   3.726   1.337  1.1502 -1.8907  0.6777
  136MOL    H2329993   2.532   3.815   1.217  0.6299 -0.7535 -1.1182
  136MOL    C2429994   2.580   3.611   1.244  0.7043  0.0996 -0.6566
  136MOL    C2529995   2.638   3.600   1.388  0.2010  0.7120  0.6384
  136MOL    O2629996   2.716   3.684   1.424  0.0709 -0.0875  0.6461
  136MOL    C2729997   2.591   3.483   1.464  0.1508  0.1354 -0.0469
  136MOL    C2829998   2.697   3.627   1.146 -0.3082 -1.2034 -0.0056
  136MOL    H2929999   2.523   3.521   1.224 -0.3906  0.6778 -0.1995
  136MOL    H3030000   2.557   3.516   1.562  0.6482  0.1819  0.1095
  136MOL    H3130001   2.514   3.427   1.410 -1.3296 -0.1863  2.3080
  136MOL    H3230002   2.674   3.416   1.489 -1.0912 -1.1234  0.8007
  136MOL    H3330003   2.759   3.715   1.159 -1.6666  0.0316 -1.7313
  136MOL    H3430004   2.657   3.646   1.047 -1.9005 -0.2524  0.7926
  136MOL    C3530005   2.792   3.502   1.123 -0.3925 -0.4719  0.3675
  136MOL    C3630006   2.929   3.548   1.078  0.1749  0.3169 -0.2565
  136MOL    O3730007   2.938   3.598   0.968 -0.2945  0.2412  0.4572
  136MOL    C3830008   3.043   3.530   1.172 -0.1297  0.2966  0.2968
  136MOL    C3930009   2.731   3.408   1.021  0.1963  0.3369 -0.4632
  136MOL    H4030010   2.803   3.444   1.215  1.7660 -1.2778 -0.3531
  136MOL    H4130011   3.030   3.426   1.202 -0.2385  0.0914 -0.4375
  136MOL    H4230012   3.139   3.539   1.121 -1.8717  0.5782 -3.0530
  136MOL    H4330013   3.041   3.593   1.261 -1.1194  0.9292 -0.1653
  136MOL    H4430014   2.787   3.416   0.928  1.4222  0.7559  0.3017
  136MOL    H4530015   2.629   3.442   1.003  0.2404  1.0209  0.5461
  136MOL    C4630016   2.730   3.256   1.055  0.1869  0.0900 -0.1829
  136MOL    C4730017   2.688   3.171   0.938  0.5834 -0.0120 -0.0566
  136MOL    O4830018   2.764   3.093   0.888 -0.0799  0.4789 -0.5796
  136MOL    C4930019   2.549   3.200   0.882  0.2449  0.1208  0.2090
  136MOL    C5030020   2.661   3.212   1.182  0.4716  0.0868 -0.5857
  136MOL    H5130021   2.837   3.239   1.062  0.5406  1.7668 -1.2441
  136MOL    H5230022   2.518   3.112   0.826  1.0561  0.7606 -1.2981
  136MOL    H5330023   2.491   3.205   0.974 -1.0986  2.6116 -0.7373
  136MOL    H5430024   2.547   3.286   0.815  3.5733  1.9230  2.2891
  136MOL    H5530025   2.562   3.258   1.182  0.3515 -0.1762  0.0153
  136MOL    H5630026   2.705   3.256   1.271  0.4361  2.2289 -1.5740
  136MOL    C5730027   2.659   3.059   1.212 -0.0809  0.2332  0.6654
  136MOL    C5830028   2.575   3.035   1.338 -0.4968  0.1025  0.2170
  136MOL    O5930029   2.595   3.107   1.436 -0.1449 -0.1327  0.0216
  136MOL    C6030030   2.502   2.902   1.355  0.4583  0.3342  0.4192
  136MOL    C6130031   2.802   3.007   1.236 -0.3946  0.4939 -0.2638
  136MOL    H6230032   2.613   3.003   1.130  1.1125  0.3852 -0.1076
  136MOL    H6330033   2.412   2.936   1.406 -0.3291  0.2774 -0.9083
  136MOL    H6430034   2.472   2.858   1.260  1.5423 -2.0753  1.1640
  136MOL    H6530035   2.558   2.832   1.416 -0.6908 -0.9533  0.0209
  136MOL    H6630036   2.862   3.013   1.145 -1.7403 -0.2895 -1.2204
  136MOL    H6730037   2.783   2.900   1.235  0.8147  0.2561 -2.7647
  136MOL    C6830038   2.894   3.059   1.355  0.4347 -0.6311  0.2002
  136MOL    C6930039   2.973   3.184   1.326 -0.2489 -0.2445  0.8667
  136MOL    O7030040   3.031   3.194   1.219  0.0509  0.0920 -0.2583
  136MOL    C7130041   2.987   3.278   1.436 -0.3780 -0.3296  0.5571
  136MOL    C7230042   2.977   2.943   1.408  0.3352 -0.0777  0.5276
  136MOL    H7330043   2.822   3.077   1.435  0.7699 -1.6597  0.7431
  136MOL    H7430044   2.917   3.361   1.424  0.9280  0.9844  1.8342
  136MOL    H7530045   2.943   3.231   1.525  1.1731 -0.4399  1.2745
  136MOL    H7630046   3.087   3.318   1.452 -0.1723 -1.1208  1.2826
  136MOL    H7730047   3.066   2.933   1.345  1.4078 -1.9691  2.2944
  136MOL    H7830048   2.916   2.854   1.401 -0.0243  0.1624  0.5786
  136MOL    C7930049   3.018   2.943   1.563  0.2246 -0.5795  0.2564
  136MOL    C8030050   3.154   2.887   1.575  0.3870 -0.0069  0.2397
  136MOL    O8130051   3.253   2.949   1.605  0.3592 -0.1588 -0.2786
  136MOL    C8230052   3.174   2.734   1.545 -0.2747  0.4184  0.2679
  136MOL    C8330053   2.904   2.870   1.639 -0.2141  0.5044 -0.0802
  136MOL    H8430054   3.013   3.043   1.607 -0.5665 -0.7657  0.5993
  136MOL    H8530055   3.261   2.736   1.480 -1.5560  2.3337 -1.4491
  136MOL    H8630056   3.199   2.675   1.633 -1.5544 -2.5897 -1.3267
  136MOL    H8730057   3.086   2.684   1.504  1.7825 -3.2120  0.1289
  136MOL    H8830058   2.888   2.765   1.614  0.9138  0.8175 -2.1875
  136MOL    H8930059   2.807   2.912   1.612 -0.5189 -0.2853 -0.2536
  136MOL    C9030060   2.916   2.890   1.793 -0.2608  0.1986  0.0845
  136MOL    C9130061   2.993   2.767   1.861  0.8043 -0.2474  0.2219
  136MOL    O9230062   2.982   2.647   1.829  0.2413 -0.1510  0.1318
  136MOL    C9330063   3.114   2.805   1.947  0.0819 -0.0484 -0.1045
  136MOL    C9430064   2.775   2.893   1.857 -0.3759 -0.6397  0.6887
  136MOL    H9530065   2.974   2.979   1.819  1.9607 -1.6152  1.5728
  136MOL    H9630066   3.130   2.911   1.969  2.1229 -0.7090  1.7296
  136MOL    H9730067   3.111   2.757   2.045 -0.9200 -1.8089 -0.9851
  136MOL    H9830068   3.197   2.754   1.900 -2.7579  0.0954 -5.7406
  136MOL    H9930069   2.789   2.900   1.965 -2.5844 -1.9937  1.0934
  136MOL   H10030070   2.726   2.799   1.832 -0.1690 -1.0644  1.8657
  136MOL   C10130071   2.684   3.020   1.823 -0.5529  0.0244  0.1899
  136MOL   C10230072   2.745   3.152   1.856 -0.5797 -0.2110  0.3126
  136MOL   O10330073   2.819   3.173   1.950 -0.0241 -0.2635  0.0912
  136MOL   C10430074   2.700   3.263   1.762 -0.0708 -0.1276  0.1446
  136MOL   C10530075   2.548   3.013   1.883  0.3499  0.3793  0.9224
  136MOL   H10630076   2.666   3.018   1.716 -1.7874  1.1671  0.3629
  136MOL   H10730077   2.784   3.327   1.736  0.3639  0.0492  1.9085
  136MOL   H10830078   2.644   3.220   1.679  2.0760  0.5395 -1.6816
  136MOL   H10930079   2.625   3.320   1.818 -1.1872 -0.8393 -0.6008
  136MOL   H11030080   2.492   3.098   1.843  1.7415 -0.1670 -2.3598
  136MOL   H11130081   2.555   3.022   1.991  1.1518  1.7087  0.7746
  136MOL   C11230082   2.470   2.878   1.882 -0.0316 -0.2192 -0.3509
  136MOL   C11330083   2.430   2.837   1.734  0.6940  0.1379  0.1721
  136MOL   O11430084   2.359   2.913   1.657  0.6720 -0.4638 -0.0760
  136MOL   C11530085   2.476   2.704   1.680 -0.2938  0.1525 -0.3786
  136MOL   C11630086   2.343   2.904   1.971 -0.5071 -0.2492  0.5124
  136MOL   H11730087   2.517   2.792   1.930 -1.1088 -0.9699 -0.6280
  136MOL   H11830088   2.432   2.683   1.582 -0.1457  0.4888 -0.5185
  136MOL   H11930089   2.584   2.701   1.677 -0.2948 -0.7220  0.3134
  136MOL   H12030090   2.440   2.634   1.755  0.1316  0.5160  0.1621
  136MOL   H12130091   2.281   2.984   1.930 -0.1057  0.2746  0.9151
  136MOL   H12230092   2.372   2.949   2.067  0.0204  3.2264 -1.1997
  136MOL   C12330093   2.258   2.776   1.994 -0.5233 -0.3544  0.5715
  136MOL   C12430094   2.111   2.810   1.996 -0.0226 -0.3969  0.1078
  136MOL   O12530095   2.052   2.824   2.100 -0.1677  0.0273 -0.2162
  136MOL   C12630096   2.036   2.815   1.859 -0.1244 -0.4780  0.1632
  136MOL   C12730097   2.318   2.710   2.122 -0.1008  0.1285 -0.5094
  136MOL   H12830098   2.276   2.712   1.908  0.5449 -1.8201  1.8579
  136MOL   H12930099   2.020   2.709   1.837  0.1550 -0.1712 -1.5561
  136MOL   H13030100   1.943   2.862   1.891  0.5526  0.3076  0.9880
  136MOL   H13130101   2.078   2.868   1.774  0.5886 -0.9987  0.1843
  136MOL   H13230102   2.292   2.775   2.206  0.1782  0.7808 -0.9248
  136MOL   H13330103   2.427   2.711   2.124 -0.0741 -2.0384  1.8911
  136MOL   C13430104   2.269   2.566   2.158  0.1907  0.4261  0.0189
  136MOL   C13530105   2.262   2.550   2.311 -0.0347 -0.2744 -0.2156
  136MOL   O13630106   2.350   2.503   2.383  0.2014  0.1408  0.0886
  136MOL   C13730107   2.137   2.594   2.372  0.2764  0.0914  0.6251
  136MOL   C13830108   2.351   2.444   2.100  0.3522  0.3535  0.1924
  136MOL   H13930109   2.168   2.553   2.120 -0.0387  2.2426 -0.0012
  136MOL   H14030110   2.116   2.699   2.355  0.3177  0.1100  0.6926
  136MOL   H14130111   2.047   2.545   2.336 -0.7753  1.0135  1.9787
  136MOL   H14230112   2.138   2.579   2.480  0.3669 -2.4417  0.3216
  136MOL   H14330113   2.447   2.459   2.150 -0.2651 -0.8929  1.8080
  136MOL   H14430114   2.363   2.456   1.992 -0.1469 -0.0293  0.0915
  136MOL   C14530115   2.300   2.296   2.128  0.3427 -0.1419  0.6460
  136MOL   C14630116   2.425   2.216   2.175 -0.2742  0.6916 -0.7197
  136MOL   O14730117   2.511   2.169   2.099  0.2969  0.3648 -0.5142
  136MOL   C14830118   2.462   2.221   2.323 -0.0943 -0.7464 -0.1044
  136MOL   C14930119   2.231   2.224   2.012  0.0994 -0.6823  0.7771
  136MOL   H15030120   2.242   2.292   2.221 -0.1179  4.9623  0.7290
  136MOL   H15130121   2.523   2.308   2.349  0.1494 -1.2302  0.9737
  136MOL   H15230122   2.371   2.212   2.381 -0.4606 -0.4461 -0.6196
  136MOL   H15330123   2.529   2.136   2.337 -0.2399 -1.1920 -1.9017
  136MOL   H15430124   2.208   2.120   2.035  3.5993 -1.4793  0.9891
  136MOL   H15530125   2.299   2.229   1.927 -0.7007  0.9480  0.1913
  136MOL   C15630126   2.100   2.303   1.960 -0.1531 -0.0610 -0.9607
  136MOL   C15730127   1.984   2.322   2.057 -0.1774  0.8409 -0.1510
  136MOL   O15830128   1.957   2.232   2.141 -0.1049  0.6187  0.2910
  136MOL   C15930129   1.902   2.451   2.048 -0.4566 -0.1715  0.1791
  136MOL   C16030130   2.046   2.251   1.825 -0.3028 -0.6517  0.4709
  136MOL   H16130131   2.149   2.400   1.952 -0.1673  0.1409  1.2766
  136MOL   H16230132   1.930   2.517   1.966 -4.0378  0.2127 -0.7966
  136MOL   H16330133   1.803   2.408   2.034 -0.9986  1.1989 -0.2506
  136MOL   H16430134   1.909   2.508   2.140 -1.4525 -0.3743  0.3838
  136MOL   H16530135   1.940   2.229   1.839 -0.3958  1.1434  2.8901
  136MOL   H16630136   2.087   2.153   1.802 -1.7550 -1.0148 -0.6599
  136MOL   C16730137   2.043   2.344   1.703  0.6641 -0.0050 -0.4055
  136MOL   C16830138   2.177   2.401   1.678  0.5354  0.4530 -0.1820
  136MOL   O16930139   2.215   2.501   1.737 -0.1711 -0.3179 -0.4305
  136MOL   C17030140   2.272   2.325   1.585  0.4243 -0.0217 -0.1330
  136MOL   C17130141   1.930   2.445   1.700 -0.5295 -0.2255 -0.1038
  136MOL   H17230142   2.020   2.269   1.626  0.7977  0.9851 -1.4226
  136MOL   H17330143   2.360   2.382   1.557  0.2331  0.0123 -0.6671
  136MOL   H17430144   2.315   2.234   1.628  0.5320  0.4366  0.7463
  136MOL   H17530145   2.218   2.303   1.493  0.2020 -2.6662  0.5774
  136MOL   H17630146   1.957   2.529   1.764 -0.1547 -2.1302  2.3252
  136MOL   H17730147   1.842   2.401   1.745 -0.2696  0.8518  1.4788
  136MOL   C17830148   1.872   2.488   1.563 -0.3898  0.2255  0.1547
  136MOL   C17930149   1.778   2.392   1.490 -0.3129 -0.0051 -0.0623
  136MOL   O18030150   1.772   2.270   1.519 -0.1574 -0.7624 -0.5811
  136MOL   C18130151   1.677   2.447   1.388  0.0859  0.5071  0.0499
  136MOL   C18230152   1.986   2.560   1.479 -0.2940 -0.5859 -0.1804
  136MOL   H18330153   1.812   2.575   1.591 -1.7909 -0.9492  0.8393
  136MOL   H18430154   1.710   2.415   1.289 -2.0544  1.0311 -0.8421
  136MOL   H18530155   1.575   2.412   1.404  0.3831 -0.4199 -0.0494
  136MOL   H18630156   1.667   2.555   1.397 -0.7595  0.4880 -0.6167
  136MOL   H18730157   2.054   2.479   1.453  1.6952  0.3175  2.0818
  136MOL   H18830158   2.037   2.632   1.543 -1.3046 -0.8026  0.8866
  136MOL   C18930159   1.963   2.656   1.361 -0.1629  0.4027  0.0427
  136MOL   C19030160   1.926   2.589   1.225 -0.2665  0.3057  0.2622
  136MOL   O19130161   1.995   2.491   1.190 -0.0085 -0.2902 -0.7358
  136MOL   C19230162   1.811   2.656   1.156 -0.0954 -0.1146 -0.4085
  136MOL   C19330163   2.094   2.743   1.338 -0.3199 -0.1010  0.6884
  136MOL   H19430164   1.891   2.731   1.396  0.3496  1.5755 -1.3531
  136MOL   H19530165   1.750   2.723   1.217 -1.2224 -2.4001  1.0218
  136MOL   H19630166   1.842   2.697   1.060  0.7880 -0.0912 -0.1159
  136MOL   H19730167   1.741   2.574   1.137  0.1140 -1.0778  2.6984
  136MOL   H19830168   2.163   2.699   1.267 -1.7843  1.4575 -1.7644
  136MOL   H19930169   2.150   2.738   1.432  0.1286  0.9670  0.4742
  136MOL   C20030170   2.063   2.890   1.298  0.4523  0.2630  0.0856
  136MOL   C20130171   1.982   2.962   1.405  0.4289  0.0981 -0.0107
  136MOL   O20230172   1.871   3.009   1.397 -0.0898 -0.0793 -0.3414
  136MOL   C20330173   2.049   2.979   1.536  0.0634  0.5596 -0.0239
  136MOL   C20430174   2.003   2.906   1.151 -0.8724  0.9080  0.2089
  136MOL   H20530175   2.157   2.945   1.296  1.2223 -1.0294  0.5039
  136MOL   H20630176   2.087   2.882   1.569  0.4446  0.2245 -1.4482
  136MOL   H20730177   2.133   3.046   1.523  0.6986 -0.4875 -1.4515
  136MOL   H20830178   1.983   3.020   1.612  0.6720  0.6064  0.4852
  136MOL   H20930179   1.895   2.892   1.144 -0.5889 -1.2754 -0.3040
  136MOL   H21030180   2.039   2.818   1.097  1.8846  1.7331  0.5946
  136MOL   C21130181   2.047   3.028   1.069 -0.3500 -1.3375  0.7324
  136MOL   C21230182   2.184   3.033   1.007  0.6370 -0.1543  0.4418
  136MOL   O21330183   2.267   3.101   1.068 -0.1030  0.1610 -0.5970
  136MOL   C21430184   2.212   2.953   0.884  0.1128  0.0955 -0.4989
  136MOL   C21530185   2.019   3.157   1.148 -0.0021  0.0809 -0.6750
  136MOL   H21630186   1.987   3.034   0.977 -1.9938 -0.0965  1.8417
  136MOL   H21730187   2.254   3.016   0.805  1.1904 -1.6064 -1.2986
  136MOL   H21830188   2.283   2.875   0.912 -0.4928  0.6439  2.7707
  136MOL   H21930189   2.124   2.901   0.846  1.8994 -2.1997 -1.5953
  136MOL   H22030190   2.079   3.150   1.238  0.5207  1.1844 -0.9267
  136MOL   H22130191   1.913   3.169   1.169  0.0237 -2.1124  0.8839
  136MOL   H22230192   2.054   3.247   1.098 -1.1902  1.0714  0.2590
  137MOL     C130193   7.508   6.361   6.525  0.1031  0.1913 -0.0910
  137MOL     C230194   7.494   6.226   6.447 -0.0667 -0.0475  0.3311
  137MOL     O330195   7.450   6.213   6.331 -0.2361 -0.2586  0.1230
  137MOL     C430196   7.551   6.100   6.508 -0.6145 -0.2154  0.4680
  137MOL     C530197   7.441   6.474   6.454 -0.0469 -0.7866  0.0333
  137MOL     H630198   7.452   6.339   6.616 -2.9495  1.1289 -1.6697
  137MOL     H730199   7.491   6.009   6.512  0.3670 -0.8831  0.1515
  137MOL     H830200   7.648   6.076   6.464 -0.4303 -0.0451  0.7755
  137MOL     H930201   7.561   6.126   6.614 -0.3279 -0.9400  0.6244
  137MOL    H1030202   7.438   6.549   6.533 -0.8882 -1.0149  0.2195
  137MOL    H1130203   7.338   6.454   6.425 -0.0392  0.2500 -0.7185
  137MOL    H1230204   7.613   6.381   6.546  0.5915 -3.3769  1.3245
  137MOL    C1330205   7.519   6.530   6.334  0.7381  0.3146 -0.1256
  137MOL    C1430206   7.653   6.601   6.374 -0.4307 -0.9895 -0.1323
  137MOL    O1530207   7.656   6.710   6.427  0.4223 -0.3509 -0.5338
  137MOL    C1630208   7.786   6.531   6.334  0.2587 -0.6953 -0.1640
  137MOL    C1730209   7.417   6.615   6.259  0.2992 -0.0416 -0.0195
  137MOL    H1830210   7.561   6.448   6.275 -0.1191  1.0330 -1.7766
  137MOL    H1930211   0.008   6.613   6.301  0.8680 -1.5183 -1.0590
  137MOL    H2030212   7.823   6.483   6.425  0.7853 -1.2043 -0.6416
  137MOL    H2130213   7.772   6.454   6.258 -2.2176  1.0315 -1.5284
  137MOL    H2230214   7.431   6.723   6.248  0.8187 -0.0462  0.6051
  137MOL    H2330215   7.316   6.610   6.302 -0.2405  0.7336 -1.1604
  137MOL    C2430216   7.403   6.554   6.114  0.6582 -0.5658  0.5719
  137MOL    C2530217   7.392   6.669   6.009 -0.2790 -0.1334  0.3303
  137MOL    O2630218   7.287   6.693   5.960  0.1480  0.0301 -0.1387
  137MOL    C2730219   7.515   6.749   5.982 -0.1253 -0.1838  0.3317
  137MOL    C2830220   7.286   6.448   6.111 -0.1684  0.1485 -0.1403
  137MOL    H2930221   7.488   6.498   6.073 -0.3010 -2.1762  0.7500
  137MOL    H3030222   7.600   6.680   5.983  0.7853  0.9302  3.1271
  137MOL    H3130223   7.497   6.786   5.881 -0.0547  2.9473  1.4257
  137MOL    H3230224   7.514   6.827   6.058 -1.8759 -0.6408  0.8091
  137MOL    H3330225   7.192   6.488   6.149 -1.1545 -0.0561 -2.2820
  137MOL    H3430226   7.315   6.373   6.184 -1.0959 -1.2765 -1.2140
  137MOL    C3530227   7.264   6.378   5.971  0.5721  0.2875  0.6846
  137MOL    C3630228   7.120   6.318   5.978  0.9602  0.0318  0.5965
  137MOL    O3730229   7.104   6.196   5.982 -0.8095  0.3009 -0.1891
  137MOL    C3830230   7.000   6.414   5.988 -0.2306  0.9986  1.0174
  137MOL    C3930231   7.381   6.274   5.937  0.2380 -0.4785  0.3519
  137MOL    H4030232   7.274   6.462   5.901  2.0879  0.4314  1.0456
  137MOL    H4130233   6.953   6.407   5.890  0.5386 -3.0515  0.8395
  137MOL    H4230234   6.937   6.374   6.067  2.4517 -1.0638  2.2014
  137MOL    H4330235   7.022   6.516   6.017  0.7899  0.7008  1.3125
  137MOL    H4430236   7.381   6.193   6.009  0.1470 -0.9128 -0.1365
  137MOL    H4530237   7.478   6.324   5.943  0.0436 -0.0802  0.1473
  137MOL    C4630238   7.370   6.222   5.794 -0.2986 -0.4169  0.4424
  137MOL    C4730239   7.324   6.078   5.789  0.6180  0.6133 -0.4135
  137MOL    O4830240   7.380   5.995   5.862  0.1348 -0.1559 -0.8040
  137MOL    C4930241   7.196   6.052   5.710  0.5155 -0.5644  0.3441
  137MOL    C5030242   7.502   6.258   5.717 -0.0004  0.3277 -0.2842
  137MOL    H5130243   7.287   6.273   5.744  0.0639 -1.2574 -1.0736
  137MOL    H5230244   7.168   6.138   5.648 -0.3438  0.3154  1.9227
  137MOL    H5330245   7.205   5.963   5.647 -0.0339 -0.7761  0.5666
  137MOL    H5430246   7.112   6.036   5.777 -0.4978  2.1858 -0.1969
  137MOL    H5530247   7.584   6.233   5.784 -0.9829 -1.0828  0.4193
  137MOL    H5630248   7.507   6.367   5.710  0.7881  0.4911  2.1091
  137MOL    C5730249   7.525   6.198   5.572 -0.1797  0.1958 -0.0338
  137MOL    C5830250   7.586   6.064   5.573  0.5908  0.0172 -0.5558
  137MOL    O5930251   7.683   6.034   5.635 -0.3233 -0.4926  0.3480
  137MOL    C6030252   7.525   5.961   5.483 -0.5931 -0.2295 -0.7654
  137MOL    C6130253   7.614   6.302   5.504  0.2104  0.4703 -0.5081
  137MOL    H6230254   7.429   6.193   5.520 -0.4839 -0.6760  0.5953
  137MOL    H6330255   7.437   5.914   5.524  1.9375 -2.9545  1.7402
  137MOL    H6430256   7.498   6.003   5.386  1.6584  0.7713 -1.0067
  137MOL    H6530257   7.595   5.882   5.457 -2.9935 -2.2807 -1.1158
  137MOL    H6630258   7.715   6.290   5.544 -0.7949  0.9671  2.2595
  137MOL    H6730259   7.578   6.404   5.514 -1.7556 -0.5047  2.7153
  137MOL    C6830260   7.629   6.286   5.350  1.0449 -0.2075 -0.7384
  137MOL    C6930261   7.757   6.354   5.303 -0.0568 -0.0296  0.1347
  137MOL    O7030262   7.759   6.460   5.237  0.1281  0.1163 -0.2102
  137MOL    C7130263   0.053   6.294   5.331  0.3584  0.1124  0.3399
  137MOL    C7230264   7.505   6.333   5.267 -0.1482 -0.2812 -0.2229
  137MOL    H7330265   7.649   6.180   5.335  0.5258 -0.3620 -0.3643
  137MOL    H7430266   0.103   6.320   5.425  0.4544 -0.4497  0.4527
  137MOL    H7530267   0.040   6.185   5.336 -1.1143  0.2761  0.0269
  137MOL    H7630268   0.124   6.303   5.249  0.5219  0.4960  0.5212
  137MOL    H7730269   7.490   6.440   5.274 -0.8309 -0.3973  0.1416
  137MOL    H7830270   7.412   6.293   5.307  0.4545 -0.5326  0.9658
  137MOL    C7930271   7.508   6.287   5.119 -0.2092  0.5550 -0.2585
  137MOL    C8030272   7.396   6.358   5.038 -0.6605  0.0024  0.2603
  137MOL    O8130273   7.301   6.411   5.099 -0.0589 -0.1793  0.6783
  137MOL    C8230274   7.413   6.364   4.887 -0.4405  0.4301 -0.0337
  137MOL    C8330275   7.509   6.133   5.107  0.5320 -0.5844  0.4193
  137MOL    H8430276   7.604   6.306   5.071  0.7014  0.1543  1.3725
  137MOL    H8530277   7.499   6.308   4.851 -1.0074 -1.0313  0.8334
  137MOL    H8630278   7.326   6.330   4.832  0.0293  0.3615 -0.7433
  137MOL    H8730279   7.436   6.469   4.868  2.8757 -0.5915 -1.9975
  137MOL    H8830280   7.408   6.098   5.088  0.9185 -1.2971 -0.3512
  137MOL    H8930281   7.530   6.087   5.204  0.9832 -0.2268  0.4980
  137MOL    C9030282   7.603   6.070   4.993  1.0353 -0.2694  0.3196
  137MOL    C9130283   7.542   5.937   4.947  0.4938 -1.0648  0.3937
  137MOL    O9230284   7.543   5.837   5.023  0.7124  0.6315 -0.2872
  137MOL    C9330285   7.479   5.929   4.808  0.2111  0.0020  0.2653
  137MOL    C9430286   7.759   6.063   5.022 -0.4969  0.1033  0.2070
  137MOL    H9530287   7.586   6.131   4.904  1.6059 -1.6879 -0.7716
  137MOL    H9630288   7.518   5.838   4.763 -0.5776 -0.6859  0.9545
  137MOL    H9730289   7.372   5.917   4.821  0.0876  0.6276 -0.1166
  137MOL    H9830290   7.516   6.012   4.747  1.8270 -0.8565  0.0553
  137MOL    H9930291   7.795   5.962   5.004 -0.8539  0.0368 -0.1197
  137MOL   H10030292   7.784   6.076   5.128 -1.7206  0.6779  0.4306
  137MOL   C10130293   0.024   6.161   4.959  0.2670 -0.9123 -0.1899
  137MOL   C10230294   0.004   6.187   4.813 -0.0558  0.7662 -0.6485
  137MOL   O10330295   7.812   6.099   4.734 -0.3467  0.0612  1.0120
  137MOL   C10430296   0.042   6.321   4.759  1.2167  0.1905 -0.4408
  137MOL   C10530297   0.171   6.134   4.988 -0.2337 -0.5009 -0.2862
  137MOL   H10630298   0.011   6.255   5.012  0.3247 -0.7484 -0.4663
  137MOL   H10730299   0.024   6.408   4.822 -1.5937 -0.6251 -0.0461
  137MOL   H10830300   0.145   6.333   4.726  0.9836  1.1488 -0.8228
  137MOL   H10930301   7.817   6.332   4.674 -1.4986  2.1534  1.8808
  137MOL   H11030302   0.187   6.119   5.095  1.6665 -1.3876 -0.6637
  137MOL   H11130303   0.224   6.225   4.963 -1.4765 -0.1050 -1.5056
  137MOL   C11230304   0.234   6.009   4.920  0.0193  0.1191 -0.1383
  137MOL   C11330305   0.336   5.950   5.016 -0.1146 -0.1081  0.0826
  137MOL   O11430306   0.452   5.999   5.016  0.9653  0.0687 -0.3297
  137MOL   C11530307   0.304   5.838   5.102 -0.0344 -0.2725 -0.0558
  137MOL   C11630308   0.288   6.040   4.779 -0.1915 -0.3554 -0.4509
  137MOL   H11730309   0.151   5.939   4.907 -0.0390 -0.2507  2.0353
  137MOL   H11830310   0.232   5.856   5.181  1.1466  0.7891  0.8096
  137MOL   H11930311   0.288   5.743   5.051 -1.3128 -1.1045  1.8547
  137MOL   H12030312   0.393   5.809   5.158 -0.4275 -1.4314 -0.0288
  137MOL   H12130313   0.370   6.111   4.781 -0.7358  0.3222 -1.9174
  137MOL   H12230314   0.219   6.089   4.711  1.4715  1.4448 -0.8783
  137MOL   C12330315   0.337   5.918   4.694 -0.3091  0.1422 -0.0683
  137MOL   C12430316   0.234   5.806   4.672  0.6817  0.0150 -0.3452
  137MOL   O12530317   0.243   5.697   4.736  0.2278  0.0208 -0.1506
  137MOL   C12630318   0.131   5.827   4.568 -0.5363 -0.0319  0.2373
  137MOL   C12730319   0.478   5.865   4.728 -0.0679 -0.0769  0.1594
  137MOL   H12830320   0.346   5.962   4.594 -2.1078  1.7440  0.4624
  137MOL   H12930321   0.183   5.791   4.479  0.7393  0.7254  0.6664
  137MOL   H13030322   0.051   5.754   4.583 -2.6463  1.6409 -2.4218
  137MOL   H13130323   0.099   5.931   4.559 -1.9961 -0.2570  2.3079
  137MOL   H13230324   0.495   5.798   4.644  1.1193  1.2860 -0.7171
  137MOL   H13330325   0.473   5.798   4.814  1.3540  0.8936  1.0111
  137MOL   C13430326   0.598   5.959   4.725  1.3349  0.3609 -0.6015
  137MOL   C13530327   0.599   6.047   4.596  0.0864  0.3036  0.2892
  137MOL   O13630328   0.583   6.170   4.606 -0.1309 -0.5771  0.4772
  137MOL   C13730329   0.605   5.972   4.465  0.6161 -0.4107  0.2384
  137MOL   C13830330   0.733   5.880   4.744 -0.2748  0.0583 -0.0616
  137MOL   H13930331   0.595   6.018   4.816  0.3316  0.9904 -1.0381
  137MOL   H14030332   0.692   6.014   4.415  0.4594  0.9226  1.0471
  137MOL   H14130333   0.629   5.869   4.493 -1.9768 -0.1359  3.9536
  137MOL   H14230334   0.521   5.977   4.396 -0.3308 -2.0184  1.2273
  137MOL   H14330335   0.750   5.821   4.654 -0.7385 -2.2801  1.3257
  137MOL   H14430336   0.708   5.807   4.822 -2.3054 -0.9592 -1.6357
  137MOL   C14530337   0.851   5.962   4.791  1.0577 -0.0816 -0.3995
  137MOL   C14630338   0.899   6.062   4.690  0.3270 -0.4753  0.5012
  137MOL   O14730339   0.905   6.027   4.571  0.3533  0.0116 -0.3871
  137MOL   C14830340   0.941   6.203   4.730 -0.1727  0.0465  0.0461
  137MOL   C14930341   0.963   5.894   4.865 -0.8151 -0.6343 -0.4795
  137MOL   H15030342   0.812   6.034   4.862  1.5269 -0.5220  0.3175
  137MOL   H15130343   1.037   6.232   4.686  0.1067 -0.6373  0.1982
  137MOL   H15230344   0.870   6.270   4.682 -0.7702 -0.1848  0.6003
  137MOL   H15330345   0.948   6.226   4.836 -1.1929  1.9048 -0.2660
  137MOL   H15430346   0.913   5.812   4.917 -0.2226 -0.8602 -0.2568
  137MOL   H15530347   0.998   5.964   4.941 -1.7606  0.3368 -0.9331
  137MOL   C15630348   1.074   5.831   4.780 -0.3891  0.0113  0.0413
  137MOL   C15730349   1.018   5.718   4.693 -0.1927  0.5162  0.1188
  137MOL   O15830350   0.943   5.636   4.742  0.0237 -0.3632 -0.0148
  137MOL   C15930351   1.055   5.722   4.541  0.6902  0.4321 -0.0309
  137MOL   C16030352   1.182   5.762   4.869 -0.2576  0.1994 -0.1430
  137MOL   H16130353   1.120   5.913   4.725 -1.5959 -0.2882 -1.4586
  137MOL   H16230354   1.094   5.625   4.511 -0.6406 -1.0651  2.9116
  137MOL   H16330355   0.969   5.759   4.484  1.3412 -0.0844 -1.3529
  137MOL   H16430356   1.143   5.786   4.537  0.5273  0.7269  1.0632
  137MOL   H16530357   1.254   5.702   4.813 -0.2094  0.1421 -0.0201
  137MOL   H16630358   1.130   5.684   4.925 -1.3696 -0.8464 -2.5229
  137MOL   C16730359   1.259   5.855   4.961  1.0783  0.4047  0.1542
  137MOL   C16830360   1.319   5.975   4.886 -0.0499 -0.1648  0.1219
  137MOL   O16930361   1.418   5.969   4.818  0.2485 -0.2576  0.1380
  137MOL   C17030362   1.248   6.107   4.905 -0.6819  0.2069 -0.1599
  137MOL   C17130363   1.379   5.790   5.043 -0.1823 -0.3334  0.6893
  137MOL   H17230364   1.180   5.895   5.025  0.8114  1.3926 -0.7826
  137MOL   H17330365   1.186   6.108   4.995 -0.3050  1.7745  0.0946
  137MOL   H17430366   1.319   6.190   4.907  1.3165 -1.4748 -0.2445
  137MOL   H17530367   1.183   6.118   4.818 -1.1429 -1.4195 -0.0210
  137MOL   H17630368   1.472   5.801   4.987 -1.1298  0.9603 -0.7037
  137MOL   H17730369   1.358   5.684   5.050 -0.6709 -0.1768  1.7960
  137MOL   C17830370   1.409   5.847   5.187  0.6280 -0.3295 -0.1014
  137MOL   C17930371   1.322   5.789   5.287 -0.2568  0.6573  0.4037
  137MOL   O18030372   1.219   5.837   5.311 -0.3701 -0.3138  0.1391
  137MOL   C18130373   1.349   5.650   5.339 -0.4860  0.0588  0.0008
  137MOL   C18230374   1.415   6.000   5.205 -0.3778 -0.2153  0.0837
  137MOL   H18330375   1.509   5.814   5.216  1.5525  1.9893 -0.5779
  137MOL   H18430376   1.259   5.592   5.361 -0.4864 -0.4250 -1.2530
  137MOL   H18530377   1.411   5.597   5.267  0.7722  1.9821 -0.3611
  137MOL   H18630378   1.404   5.638   5.432  0.5086 -0.7994 -0.6788
  137MOL   H18730379   1.321   6.043   5.170  0.1519  0.1026 -0.9747
  137MOL   H18830380   1.486   6.043   5.133  0.6966  2.7439  2.8071
  137MOL   C18930381   1.451   6.065   5.342 -0.9062  0.1547  0.0204
  137MOL   C19030382   1.427   6.217   5.348 -0.1635 -0.4534  0.4188
  137MOL   O19130383   1.388   6.274   5.245 -0.5420  0.5643  0.3682
  137MOL   C19230384   1.424   6.290   5.482  0.3616 -0.8195 -0.4277
  137MOL   C19330385   1.588   6.030   5.404 -0.5196 -0.1919 -0.3109
  137MOL   H19430386   1.382   6.018   5.412 -0.8331 -2.0807 -1.3616
  137MOL   H19530387   1.523   6.298   5.527 -1.1608  0.4577  2.8096
  137MOL   H19630388   1.373   6.387   5.477  0.7965 -0.5431  0.3885
  137MOL   H19730389   1.365   6.231   5.551 -0.3544  0.5662  0.1549
  137MOL   H19830390   1.657   6.112   5.384  1.4272 -1.4343  1.1877
  137MOL   H19930391   1.626   5.947   5.344  1.0956  1.1008 -1.1092
  137MOL   C20030392   1.604   5.986   5.556  0.2809 -0.7713 -0.2314
  137MOL   C20130393   1.741   6.025   5.606 -0.1523  0.7280 -0.2434
  137MOL   O20230394   1.834   5.944   5.608  0.0581  0.4913 -0.0288
  137MOL   C20330395   1.770   6.169   5.626  0.6465 -0.0744  0.0744
  137MOL   C20430396   1.557   5.845   5.597 -0.1086 -0.2164 -0.1229
  137MOL   H20530397   1.547   6.043   5.629  0.1951  2.2946 -2.6192
  137MOL   H20630398   1.689   6.233   5.661  1.1639  1.2949 -1.1758
  137MOL   H20730399   1.854   6.177   5.695 -0.6485  0.7840  1.5849
  137MOL   H20830400   1.818   6.206   5.535 -0.1245  2.2152  0.5681
  137MOL   H20930401   1.606   5.770   5.535 -0.5217 -0.0316 -0.6769
  137MOL   H21030402   1.449   5.842   5.582 -0.0510 -1.2158 -0.4019
  137MOL   C21130403   1.575   5.797   5.742  0.1469 -0.2306  0.6265
  137MOL   C21230404   1.521   5.651   5.746 -0.0745  0.4052 -0.2104
  137MOL   O21330405   1.420   5.610   5.685  0.4388  0.7493  0.0521
  137MOL   C21430406   1.596   5.554   5.831  0.0987 -0.6400  0.2354
  137MOL   C21530407   1.502   5.870   5.855  0.3272  0.2759  0.8670
  137MOL   H21630408   1.679   5.801   5.773  0.5477  3.1273 -0.8786
  137MOL   H21730409   1.699   5.538   5.800 -0.3836 -0.6362 -1.3851
  137MOL   H21830410   1.603   5.607   5.926 -0.8147 -1.0597  0.5395
  137MOL   H21930411   1.548   5.458   5.854 -1.8169  0.4121  0.7513
  137MOL   H22030412   1.522   5.977   5.848  2.3781 -0.0984  0.5196
  137MOL   H22130413   1.528   5.842   5.958  1.0991  1.9711  1.1553
  137MOL   H22230414   1.396   5.859   5.836  1.1789 -1.4471 -3.4469
  138MOL     C130415   0.219   2.290   3.004  0.4896 -0.7406  0.0945
  138MOL     C230416   0.084   2.335   3.061 -0.4073  0.1558  0.1380
  138MOL     O330417   0.042   2.287   3.162  0.6371  0.5952 -0.5425
  138MOL     C430418   0.018   2.458   3.009 -0.7018  0.4013 -0.4620
  138MOL     C530419   0.337   2.285   3.104  0.2411  0.5520 -0.2122
  138MOL     H630420   0.208   2.200   2.944 -1.3262  0.7722 -1.9295
  138MOL     H730421   0.067   2.554   3.027  2.4926 -1.6619  2.2077
  138MOL     H830422   7.837   2.457   2.902  0.7650 -0.7105 -0.7869
  138MOL     H930423   7.762   2.460   3.058 -0.7119 -0.9106 -0.4074
  138MOL    H1030424   0.333   2.188   3.153  0.9261  1.6110  1.9944
  138MOL    H1130425   0.321   2.351   3.188 -1.2131  0.3261 -0.2935
  138MOL    H1230426   0.240   2.371   2.933 -0.8317  2.4005  3.1468
  138MOL    C1330427   0.470   2.332   3.038  0.6518  0.0944 -0.7281
  138MOL    C1430428   0.509   2.245   2.922  0.1808  0.1987 -0.5159
  138MOL    O1530429   0.445   2.141   2.901 -0.1879 -0.4616  0.2982
  138MOL    C1630430   0.631   2.282   2.826 -0.2943  0.0304  0.2445
  138MOL    C1730431   0.581   2.354   3.143 -0.1171  0.4924 -0.9943
  138MOL    H1830432   0.461   2.428   2.986  0.2043 -0.6455 -2.0317
  138MOL    H1930433   0.717   2.255   2.887  2.3017 -0.5813 -3.5079
  138MOL    H2030434   0.641   2.227   2.732  1.5296  0.4313  0.1937
  138MOL    H2130435   0.631   2.388   2.801 -0.1585 -0.3219 -1.3656
  138MOL    H2230436   0.683   2.355   3.106  0.3153  0.7832  0.1913
  138MOL    H2330437   0.585   2.266   3.207  1.1392 -0.9107 -2.9556
  138MOL    C2430438   0.562   2.486   3.223  0.2928 -0.1273  0.1397
  138MOL    C2530439   0.551   2.620   3.141 -0.3474 -0.2428  0.3040
  138MOL    O2630440   0.642   2.658   3.067 -0.1536 -0.0913 -0.1788
  138MOL    C2730441   0.418   2.696   3.151  0.4623 -0.1886  0.0893
  138MOL    C2830442   0.668   2.498   3.331 -0.6215 -0.6744 -0.4785
  138MOL    H2930443   0.468   2.487   3.277 -0.4768  1.4523 -1.1869
  138MOL    H3030444   0.425   2.803   3.132 -0.3761 -0.0136  0.7506
  138MOL    H3130445   0.355   2.644   3.078  0.5830 -1.5307  0.9306
  138MOL    H3230446   0.371   2.693   3.249 -0.3808 -0.5515 -0.3229
  138MOL    H3330447   0.767   2.504   3.286 -0.4046  0.5050  0.1216
  138MOL    H3430448   0.672   2.412   3.396  1.0790 -0.7312 -0.6469
  138MOL    C3530449   0.648   2.608   3.439  0.5208  0.1729  0.6109
  138MOL    C3630450   0.771   2.592   3.530  0.1303 -0.2699  0.8206
  138MOL    O3730451   0.762   2.521   3.630 -0.0164 -0.9694 -0.4134
  138MOL    C3830452   0.910   2.638   3.474 -0.0126  0.6993  1.1761
  138MOL    C3930453   0.516   2.600   3.520  0.3635  0.1307 -0.5324
  138MOL    H4030454   0.664   2.710   3.403 -1.4325  0.4747  0.5709
  138MOL    H4130455   0.904   2.702   3.386  2.7863  0.2602  0.6168
  138MOL    H4230456   0.945   2.705   3.552  0.7375  0.5962  0.9295
  138MOL    H4330457   0.982   2.559   3.454 -1.2911 -0.1705 -0.1172
  138MOL    H4430458   0.524   2.511   3.582  4.1602  1.3809  0.8972
  138MOL    H4530459   0.429   2.576   3.458  0.5418  0.7932 -1.0369
  138MOL    C4630460   0.500   2.725   3.613 -0.3302 -0.6577  0.4134
  138MOL    C4730461   0.404   2.689   3.726 -0.0426  0.0975  1.4033
  138MOL    O4830462   0.286   2.729   3.728  0.3560 -0.3990  0.1745
  138MOL    C4930463   0.476   2.617   3.845  0.0959  0.0971 -0.5684
  138MOL    C5030464   0.457   2.850   3.528 -0.3048  0.0898 -0.0712
  138MOL    H5130465   0.593   2.732   3.669  0.0180 -2.1326  0.0326
  138MOL    H5230466   0.469   2.672   3.939 -2.0044  0.9092 -1.1741
  138MOL    H5330467   0.430   2.521   3.869  0.1347  0.4705  1.0549
  138MOL    H5430468   0.582   2.599   3.830 -0.1002 -0.8290 -0.8644
  138MOL    H5530469   0.349   2.867   3.522 -0.2318  0.6758  0.2726
  138MOL    H5630470   0.483   2.828   3.424  1.4758 -2.4046  0.8784
  138MOL    C5730471   0.525   2.989   3.570 -0.1384  0.0236  0.3815
  138MOL    C5830472   0.654   3.021   3.492  0.1169  0.0628 -0.6028
  138MOL    O5930473   0.733   2.932   3.472 -0.1759 -0.4856  0.0260
  138MOL    C6030474   0.670   3.157   3.433 -0.6713 -0.3298  0.2086
  138MOL    C6130475   0.551   3.024   3.722 -0.1538 -0.0841  0.8334
  138MOL    H6230476   0.454   3.058   3.525 -1.4194 -0.7120  1.2529
  138MOL    H6330477   0.685   3.233   3.510  0.4325  0.2044 -0.5235
  138MOL    H6430478   0.741   3.159   3.351  0.3361  1.5780  1.0680
  138MOL    H6530479   0.576   3.180   3.383 -0.5495 -0.8661 -0.2626
  138MOL    H6630480   0.622   3.106   3.733  1.4708 -1.5820  1.5759
  138MOL    H6730481   0.605   2.937   3.758  0.3631 -0.0336  0.1894
  138MOL    C6830482   0.428   3.045   3.804 -0.5147 -0.6093 -0.8214
  138MOL    C6930483   0.352   3.178   3.767 -0.1433  0.1791  0.4210
  138MOL    O7030484   0.398   3.289   3.797 -0.3373  0.2942 -0.2866
  138MOL    C7130485   0.210   3.170   3.701  0.1212  0.3704 -0.1256
  138MOL    C7230486   0.456   3.022   3.954  0.6024  0.0477 -0.7535
  138MOL    H7330487   0.364   2.961   3.774 -0.9447 -0.9914  1.1233
  138MOL    H7430488   0.216   3.132   3.599  1.0023  0.8642 -0.2629
  138MOL    H7530489   0.134   3.116   3.758  1.1236  0.6046  1.4747
  138MOL    H7630490   0.172   3.272   3.687 -1.1436 -0.6793 -5.5054
  138MOL    H7730491   0.547   3.074   3.984 -0.7781  1.3693  1.2498
  138MOL    H7830492   0.474   2.917   3.975  1.0524 -0.7500 -4.5933
  138MOL    C7930493   0.341   3.061   4.058 -0.1490  1.0776 -0.5407
  138MOL    C8030494   0.392   3.037   4.200  0.1412 -0.1984 -0.2061
  138MOL    O8130495   0.457   2.937   4.235  0.2678  0.3402  0.1564
  138MOL    C8230496   0.372   3.149   4.301 -0.0522 -0.2358 -0.2345
  138MOL    C8330497   0.218   2.976   4.029 -0.3994  0.0232 -0.2559
  138MOL    H8430498   0.312   3.166   4.047 -2.1005  0.6294  0.1624
  138MOL    H8530499   0.377   3.113   4.403 -1.4117  1.6586  0.5313
  138MOL    H8630500   0.461   3.210   4.287  1.0029 -1.5618  0.6287
  138MOL    H8730501   0.284   3.209   4.279 -0.0019  0.2743  0.9469
  138MOL    H8830502   0.244   2.870   4.025 -1.9829 -0.3273 -2.0716
  138MOL    H8930503   0.182   2.983   3.926  1.0816 -1.5938 -0.9069
  138MOL    C9030504   0.091   2.998   4.110  0.4252 -0.1662 -0.0217
  138MOL    C9130505   0.040   3.144   4.096 -0.3056 -0.3558 -0.3513
  138MOL    O9230506   0.092   3.214   4.008 -0.1822 -0.3050  0.1045
  138MOL    C9330507   7.768   3.198   4.177  0.0233 -0.2505 -0.4026
  138MOL    C9430508   0.084   2.926   4.249 -0.1155  0.2995 -0.3459
  138MOL    H9530509   0.014   2.947   4.052 -0.1918  2.1678 -1.3203
  138MOL    H9630510   7.801   3.290   4.224  1.0065  0.0646 -1.6667
  138MOL    H9730511   7.684   3.204   4.108  0.3698 -0.0785 -0.8167
  138MOL    H9830512   7.754   3.120   4.252  0.2403 -1.7749 -1.9102
  138MOL    H9930513   0.108   2.995   4.329  0.2070 -0.1368 -0.0621
  138MOL   H10030514   0.168   2.856   4.247 -0.8579 -0.5788 -2.0715
  138MOL   C10130515   7.793   2.857   4.282 -0.3403  0.0142  0.0774
  138MOL   C10230516   7.764   2.855   4.434  0.1086 -0.5586 -0.4528
  138MOL   O10330517   7.829   2.784   4.513 -0.4330  0.3685  0.6744
  138MOL   C10430518   7.649   2.945   4.483  0.1715 -0.3834 -0.0285
  138MOL   C10530519   7.777   2.718   4.218  0.9493  0.5362  0.1470
  138MOL   H10630520   7.714   2.912   4.231 -2.2185 -1.9139  0.8297
  138MOL   H10730521   7.629   3.012   4.399  1.1242 -0.0923 -0.0286
  138MOL   H10830522   7.563   2.879   4.501 -1.0260  0.4996 -2.2438
  138MOL   H10930523   7.669   3.002   4.573 -1.3917 -0.0009  0.0940
  138MOL   H11030524   7.791   2.643   4.296 -0.7751  0.3315  0.2862
  138MOL   H11130525   0.017   2.690   4.152 -0.2626 -1.6559 -0.4931
  138MOL   C11230526   7.650   2.704   4.130 -0.4068  0.4124  0.0518
  138MOL   C11330527   7.658   2.792   3.997 -0.6355 -0.5312  0.2650
  138MOL   O11430528   7.609   2.904   3.996  0.2885 -0.0075 -0.3065
  138MOL   C11530529   7.727   2.730   3.872 -0.8409  0.4323  0.1922
  138MOL   C11630530   7.516   2.726   4.204  0.2703  0.1612 -0.7525
  138MOL   H11730531   7.650   2.600   4.097 -0.8834  0.5756 -0.4608
  138MOL   H11830532   7.657   2.648   3.850 -0.3743  0.0165  0.2598
  138MOL   H11930533   7.717   2.801   3.790  2.7032 -1.1112 -1.6875
  138MOL   H12030534   7.829   2.695   3.888 -0.3572  1.3668 -0.8059
  138MOL   H12130535   7.501   2.831   4.229 -0.4484  0.0768 -0.8220
  138MOL   H12230536   7.517   2.683   4.304  0.2222 -0.3574 -0.9779
  138MOL   C12330537   7.390   2.677   4.137 -1.2019 -0.2715  0.4583
  138MOL   C12430538   7.266   2.749   4.195  0.7377 -0.0647 -0.0721
  138MOL   O12530539   7.261   2.809   4.304  0.0528  0.6014  0.9268
  138MOL   C12630540   7.135   2.747   4.119  0.5347  0.2563  0.2849
  138MOL   C12730541   7.386   2.519   4.150  0.4371 -0.0837 -0.2274
  138MOL   H12830542   7.395   2.705   4.031 -0.6251  0.0812  0.5726
  138MOL   H12930543   7.061   2.809   4.170 -0.0025 -1.0401  1.1032
  138MOL   H13030544   7.157   2.799   4.026 -0.0334 -0.2477 -0.1380
  138MOL   H13130545   7.106   2.644   4.095 -0.0117  0.5277 -0.2405
  138MOL   H13230546   7.338   2.505   4.247 -0.1233  1.2694 -0.3010
  138MOL   H13330547   7.490   2.487   4.156 -0.0188 -1.1339  3.0958
  138MOL   C13430548   7.312   2.444   4.040  0.5354  0.0679  0.1057
  138MOL   C13530549   7.287   2.294   4.081  0.3818  0.9482  0.5461
  138MOL   O13630550   7.184   2.234   4.051 -0.4231  0.0589  0.1122
  138MOL   C13730551   7.402   2.217   4.153 -0.2988  0.0683  0.1356
  138MOL   C13830552   7.384   2.442   3.900 -0.6679  0.2567  0.0219
  138MOL   H13930553   7.208   2.475   4.043  0.8872  1.1085  2.7401
  138MOL   H14030554   7.499   2.266   4.147  0.3042 -0.9151  1.6858
  138MOL   H14130555   7.399   2.201   4.261  4.0332 -0.5292  0.2745
  138MOL   H14230556   7.413   2.118   4.109  1.4777 -1.4377  3.7224
  138MOL   H14330557   7.450   2.355   3.894 -0.0209  0.8366 -1.4985
  138MOL   H14430558   7.451   2.527   3.893 -0.2079 -0.1891 -1.1297
  138MOL   C14530559   7.296   2.446   3.770 -0.0461 -0.6768  0.0816
  138MOL   C14630560   7.190   2.557   3.781  0.3699  0.1357  0.1579
  138MOL   O14730561   7.069   2.532   3.784 -0.0469  0.3770 -0.3437
  138MOL   C14830562   7.233   2.703   3.779 -0.7304 -0.1259  0.8130
  138MOL   C14930563   7.235   2.307   3.730  0.0289 -0.5037  0.3297
  138MOL   H15030564   7.365   2.478   3.693 -0.3668 -0.7591 -0.2435
  138MOL   H15130565   7.336   2.703   3.814 -0.9705 -4.1880  1.7489
  138MOL   H15230566   7.199   2.735   3.680 -2.7145  1.4801  1.9724
  138MOL   H15330567   7.172   2.751   3.856  0.2218  2.6173 -0.0760
  138MOL   H15430568   7.148   2.289   3.793  1.3198  1.5960  2.8283
  138MOL   H15530569   7.301   2.220   3.727 -1.6116 -1.7382 -0.7025
  138MOL   C15630570   7.183   2.313   3.585 -0.0132  1.0138 -0.2199
  138MOL   C15730571   7.095   2.191   3.568 -0.0614  0.2167 -0.0993
  138MOL   O15830572   7.131   2.089   3.511 -0.5810  0.0424  0.1625
  138MOL   C15930573   6.955   2.203   3.621  0.2178  0.0117 -0.0722
  138MOL   C16030574   7.295   2.325   3.482  0.0312  0.1859 -0.0962
  138MOL   H16130575   7.122   2.402   3.575 -0.0092  0.9601 -0.7583
  138MOL   H16230576   6.933   2.308   3.602 -0.8604 -0.0489  0.8270
  138MOL   H16330577   6.889   2.133   3.571 -2.1023  1.6484  0.6328
  138MOL   H16430578   6.950   2.189   3.729  0.1667 -0.4166 -0.1294
  138MOL   H16530579   7.285   2.244   3.409  1.0775  0.2400 -0.3110
  138MOL   H16630580   7.391   2.310   3.532 -0.3954 -0.8140  0.4492
  138MOL   C16730581   7.293   2.464   3.402  0.2238 -0.0633  0.1654
  138MOL   C16830582   7.182   2.476   3.298  0.3199 -0.2909 -0.4113
  138MOL   O16930583   7.199   2.437   3.182  0.1237  0.3181 -0.2627
  138MOL   C17030584   7.048   2.532   3.339 -0.8749 -0.4872 -0.2731
  138MOL   C17130585   7.435   2.481   3.345 -0.0260 -0.0522 -0.2590
  138MOL   H17230586   7.266   2.540   3.476  0.0580  0.6870 -0.6672
  138MOL   H17330587   6.973   2.461   3.307 -0.0631 -2.2728  1.6788
  138MOL   H17430588   7.037   2.541   3.447 -1.1770  1.4950 -0.4509
  138MOL   H17530589   7.040   2.633   3.298  0.8147 -0.4069 -0.4623
  138MOL   H17630590   7.433   2.556   3.267  0.5540  1.1030  0.8081
  138MOL   H17730591   7.458   2.386   3.296  1.2957  0.5030 -0.7331
  138MOL   C17830592   7.547   2.527   3.441  0.6658  0.0124 -0.0529
  138MOL   C17930593   7.519   2.657   3.523 -0.6457  0.1069 -0.2211
  138MOL   O18030594   7.526   2.665   3.644  0.4450 -0.2171  0.3475
  138MOL   C18130595   7.499   2.780   3.439  1.7144  0.5340 -0.0442
  138MOL   C18230596   7.690   2.517   3.377  0.1456 -0.1810 -0.1514
  138MOL   H18330597   7.553   2.455   3.523  0.6612  1.2266  1.0404
  138MOL   H18430598   7.593   2.834   3.444  1.6357  0.6258  0.4818
  138MOL   H18530599   7.479   2.749   3.336 -1.4522 -0.8927  0.9275
  138MOL   H18630600   7.419   2.844   3.476  0.6687 -0.4944 -0.5058
  138MOL   H18730601   7.710   2.608   3.320  1.6333 -0.1881  0.3315
  138MOL   H18830602   7.701   2.436   3.305  2.4905 -1.1561  1.2344
  138MOL   C18930603   7.810   2.495   3.475 -0.3776  0.1601  0.6267
  138MOL   C19030604   0.086   2.587   3.436 -0.5434 -0.4677  0.3950
  138MOL   O19130605   0.170   2.559   3.349  0.3539  0.5488 -0.1311
  138MOL   C19230606   0.075   2.728   3.494  0.3119  0.2729 -0.5642
  138MOL   C19330607   7.832   2.343   3.487 -0.7917  0.2427  0.1124
  138MOL   H19430608   7.773   2.528   3.573 -0.5383 -2.9969  1.6605
  138MOL   H19530609   7.825   2.779   3.465  0.3252 -0.9951 -2.9322
  138MOL   H19630610   0.083   2.728   3.603 -0.2270  1.4651 -0.5187
  138MOL   H19730611   0.163   2.788   3.470  0.6904 -0.1357 -0.2022
  138MOL   H19830612   0.019   2.292   3.395 -0.9848 -0.8639  0.6653
  138MOL   H19930613   7.743   2.289   3.517 -0.4206  1.2756  3.2437
  138MOL   C20030614   0.100   2.307   3.596 -0.0111  0.3427  0.5715
  138MOL   C20130615   0.185   2.192   3.553  0.2901 -0.1083 -0.6125
  138MOL   O20230616   0.175   2.082   3.607  0.7026 -0.3901 -0.4630
  138MOL   C20330617   0.272   2.217   3.434 -0.4773  0.3605 -0.2841
  138MOL   C20430618   0.047   2.296   3.738  0.7045  0.6850 -0.1821
  138MOL   H20530619   0.176   2.386   3.596  0.0929  0.2544  1.9468
  138MOL   H20630620   0.256   2.139   3.359 -1.8078 -2.6811  2.9994
  138MOL   H20730621   0.250   2.311   3.384 -2.8139 -0.6736 -1.3035
  138MOL   H20830622   0.374   2.213   3.472 -0.6534  2.6591  0.4781
  138MOL   H20930623   7.814   2.219   3.720  1.2028  0.0150  0.5381
  138MOL   H21030624   0.001   2.393   3.755 -1.1283 -0.0992 -0.5524
  138MOL   C21130625   0.141   2.254   3.851  0.0669  0.3382 -0.6566
  138MOL   C21230626   0.065   2.241   3.983  0.2265  0.0902 -0.3927
  138MOL   O21330627   0.024   2.338   4.046  0.5111 -0.4484 -0.3157
  138MOL   C21430628   0.030   2.094   4.029 -0.3732 -0.0313  0.3632
  138MOL   C21530629   0.265   2.349   3.859  0.4146 -0.4525  0.3638
  138MOL   H21630630   0.184   2.159   3.820 -2.8938 -0.3778 -2.7387
  138MOL   H21730631   7.813   2.112   4.118  0.9864 -2.6577  1.8642
  138MOL   H21830632   7.827   2.032   3.952  0.0277 -0.8484  0.7798
  138MOL   H21930633   0.120   2.048   4.070 -1.6776 -2.0166  1.0749
  138MOL   H22030634   0.308   2.339   3.959 -0.2974  0.7520  0.8081
  138MOL   H22130635   0.222   2.449   3.862  1.2897 -0.0162 -1.0372
  138MOL   H22230636   0.324   2.322   3.771 -1.8606  1.3268 -1.7929
  139MOL     C130637   4.133   3.773   6.414  0.5797 -0.0850 -0.3183
  139MOL     C230638   4.011   3.831   6.480  0.2182  0.0210  0.7067
  139MOL     O330639   3.895   3.794   6.462 -0.4793  0.4114  0.0553
  139MOL     C430640   4.036   3.940   6.586  0.1585 -0.4114 -0.1104
  139MOL     C530641   4.114   3.696   6.282 -0.0809  0.0383 -0.3994
  139MOL     H630642   4.205   3.854   6.401 -0.2029  0.6487 -0.1910
  139MOL     H730643   4.128   3.996   6.568 -0.3935  0.9946  1.3642
  139MOL     H830644   3.959   4.015   6.604  1.9689  0.9023  2.5544
  139MOL     H930645   4.042   3.906   6.690 -0.4498  0.9500  0.3814
  139MOL    H1030646   4.180   3.744   6.210  1.2721 -2.0528 -0.5951
  139MOL    H1130647   4.014   3.714   6.243  0.3530 -0.7469 -1.9186
  139MOL    H1230648   4.180   3.713   6.492 -0.5726  1.3326  1.5286
  139MOL    C1330649   4.119   3.546   6.284 -0.6832  0.0342  0.0404
  139MOL    C1430650   4.061   3.479   6.412 -0.1276 -0.1234 -0.6061
  139MOL    O1530651   4.130   3.450   6.507 -0.3822 -0.3522  0.2462
  139MOL    C1630652   3.908   3.443   6.405  0.3632 -0.4424  0.1960
  139MOL    C1730653   4.258   3.494   6.248 -0.2179 -0.1446  0.0238
  139MOL    H1830654   4.059   3.520   6.197  0.2389 -0.1925 -0.5349
  139MOL    H1930655   3.861   3.541   6.400 -0.6070 -0.8443  1.1451
  139MOL    H2030656   3.873   3.379   6.324 -0.3553  0.7784 -0.4636
  139MOL    H2130657   3.872   3.414   6.504 -0.0082  1.9985  0.7962
  139MOL    H2230658   4.327   3.503   6.332  1.4802  0.9909 -1.4813
  139MOL    H2330659   4.300   3.551   6.166  0.9183 -1.8781 -0.6236
  139MOL    C2430660   4.261   3.343   6.214 -0.4861 -0.2368 -0.5915
  139MOL    C2530661   4.398   3.275   6.204 -0.1722 -0.6531 -0.4148
  139MOL    O2630662   4.488   3.326   6.143 -0.7931  0.1306  0.1397
  139MOL    C2730663   4.419   3.148   6.283  0.6692 -0.5971 -0.1647
  139MOL    C2830664   4.173   3.303   6.090 -0.0882  0.0087 -0.4113
  139MOL    H2930665   4.220   3.290   6.299  1.9441 -2.0119 -0.4620
  139MOL    H3030666   4.477   3.078   6.223  1.8657  1.1627 -1.1398
  139MOL    H3130667   4.481   3.173   6.369  0.1629 -0.3193  0.1182
  139MOL    H3230668   4.322   3.112   6.316  0.4215 -0.1400 -0.3859
  139MOL    H3330669   4.075   3.283   6.134 -0.0517 -2.0085 -1.1632
  139MOL    H3430670   4.196   3.198   6.071 -2.4485 -0.8781  1.3715
  139MOL    C3530671   4.177   3.386   5.959 -0.3904  0.0685  0.6982
  139MOL    C3630672   4.053   3.479   5.949  0.8804 -0.3680  1.0246
  139MOL    O3730673   3.944   3.431   5.986  0.5665  0.2168  0.1665
  139MOL    C3830674   4.051   3.603   5.866  0.1946 -0.8936 -0.1598
  139MOL    C3930675   4.186   3.308   5.833  0.0953 -0.7227  0.5641
  139MOL    H4030676   4.270   3.442   5.965 -0.3492  0.1528 -0.5488
  139MOL    H4130677   4.057   3.688   5.934  3.2623 -1.8337  0.8274
  139MOL    H4230678   4.134   3.606   5.795  0.0464  2.4710 -0.3123
  139MOL    H4330679   3.961   3.607   5.805  0.1204  0.6795  0.0195
  139MOL    H4430680   4.163   3.368   5.745 -0.0978  0.4721  1.4162
  139MOL    H4530681   4.097   3.245   5.831  0.4374 -1.1777 -1.4320
  139MOL    C4630682   4.323   3.245   5.820 -0.1655 -0.0401  0.0824
  139MOL    C4730683   4.414   3.350   5.763 -0.4230  0.4744  0.2322
  139MOL    O4830684   4.401   3.412   5.654  0.6017  0.3251  0.3068
  139MOL    C4930685   4.537   3.388   5.845 -0.2304  0.0083  0.0840
  139MOL    C5030686   4.314   3.114   5.738  0.8429 -0.1057  1.0625
  139MOL    H5130687   4.355   3.218   5.921  0.8371 -0.4677 -0.3473
  139MOL    H5230688   4.623   3.395   5.779  0.1719  1.1308  0.7149
  139MOL    H5330689   4.520   3.484   5.893  0.0258  0.2090 -0.2282
  139MOL    H5430690   4.554   3.317   5.926  0.2150  1.5747  1.4068
  139MOL    H5530691   4.258   3.140   5.648  0.7410 -0.1083  1.1251
  139MOL    H5630692   4.250   3.048   5.797  0.3916  0.2047  0.9210
  139MOL    C5730693   4.452   3.051   5.705  0.4168 -0.5919 -0.0841
  139MOL    C5830694   4.446   2.933   5.609 -0.1944 -0.0364  0.0917
  139MOL    O5930695   4.337   2.882   5.579 -0.0398  0.0692 -0.0437
  139MOL    C6030696   4.572   2.880   5.557 -0.2578 -0.0308  0.6763
  139MOL    C6130697   4.536   3.024   5.831 -0.1331 -0.0218 -0.5541
  139MOL    H6230698   4.505   3.126   5.645 -1.4185 -0.7476 -1.9698
  139MOL    H6330699   4.645   2.960   5.543 -0.0324 -0.5385 -1.0852
  139MOL    H6430700   4.608   2.796   5.617  0.6829  0.4163  0.7551
  139MOL    H6530701   4.560   2.838   5.457 -2.0282 -1.9844  1.6760
  139MOL    H6630702   4.547   3.113   5.894  2.7066 -0.7435  0.0546
  139MOL    H6730703   4.636   2.995   5.799  0.1590 -1.5015  1.6257
  139MOL    C6830704   4.503   2.900   5.920  0.2260  0.0954  0.2562
  139MOL    C6930705   4.357   2.889   5.971  0.3662 -0.0078 -0.4310
  139MOL    O7030706   4.310   2.968   6.056  0.4459 -0.5274  0.4939
  139MOL    C7130707   4.282   2.768   5.935  0.9595  1.0711 -0.3667
  139MOL    C7230708   4.609   2.880   6.036 -0.7143 -0.9263  0.3167
  139MOL    H7330709   4.512   2.820   5.846  0.9749 -0.5131  0.9934
  139MOL    H7430710   4.196   2.767   6.003  0.3289 -0.1361 -1.1829
  139MOL    H7530711   4.249   2.760   5.832  0.0709 -2.3941  0.1206
  139MOL    H7630712   4.336   2.675   5.953 -0.3759  0.0893 -1.3503
  139MOL    H7730713   4.563   2.800   6.095  1.8957 -2.7428 -0.0066
  139MOL    H7830714   4.606   2.963   6.106 -1.8803  0.6466 -1.5547
  139MOL    C7930715   4.757   2.840   5.990  0.3256 -0.3383  0.0028
  139MOL    C8030716   4.757   2.697   5.937 -0.5573 -0.2539 -0.7188
  139MOL    O8130717   4.685   2.610   5.983  0.7338 -0.2863  0.0732
  139MOL    C8230718   4.861   2.662   5.832 -0.0761  1.0803  0.1620
  139MOL    C8330719   4.849   2.865   6.115 -0.4081  0.4286  0.9304
  139MOL    H8430720   4.791   2.903   5.908  2.3613 -0.6816  0.5633
  139MOL    H8530721   4.944   2.732   5.823 -0.2548  0.8707 -4.0005
  139MOL    H8630722   4.900   2.561   5.842  0.7011  1.4390  0.7511
  139MOL    H8730723   4.814   2.649   5.734  0.3679 -1.6824  0.2862
  139MOL    H8830724   4.822   2.788   6.187 -1.0889  0.7720  1.0490
  139MOL    H8930725   4.823   2.963   6.157 -1.5145  0.2677  0.6350
  139MOL    C9030726   4.998   2.849   6.083 -0.4613  0.0097  0.0450
  139MOL    C9130727   5.087   2.813   6.203 -0.2374 -0.0589 -0.4313
  139MOL    O9230728   5.210   2.800   6.182 -0.0678  0.0843  0.5728
  139MOL    C9330729   5.025   2.806   6.335  0.2086 -0.2518  0.1611
  139MOL    C9430730   5.054   2.958   5.989  0.1676  0.6839 -0.3480
  139MOL    H9530731   5.004   2.752   6.034  0.8224 -0.7904  1.7608
  139MOL    H9630732   4.963   2.717   6.342 -0.1494 -0.0274 -0.1267
  139MOL    H9730733   5.098   2.798   6.415 -0.7450 -0.3256  1.0316
  139MOL    H9830734   4.961   2.894   6.346  0.9972  0.9769 -3.9853
  139MOL    H9930735   5.013   2.946   5.889  1.1374  1.0299 -0.7892
  139MOL   H10030736   5.162   2.947   5.984  0.3549  1.2202  1.8449
  139MOL   C10130737   5.030   3.100   6.039 -0.8266  0.1991 -0.1618
  139MOL   C10230738   4.907   3.170   5.980 -0.1854  0.0363 -0.3197
  139MOL   O10330739   4.870   3.134   5.872  0.0845  1.1516 -0.2095
  139MOL   C10430740   4.831   3.260   6.063 -0.7222  0.3485 -0.3406
  139MOL   C10530741   5.154   3.193   6.016  0.0065  0.0390  0.3040
  139MOL   H10630742   5.014   3.109   6.147 -0.5235 -0.4152 -0.0644
  139MOL   H10730743   4.787   3.207   6.147  1.1566 -0.5532  0.0869
  139MOL   H10830744   4.897   3.343   6.086  0.6431 -0.7987 -0.0741
  139MOL   H10930745   4.738   3.303   6.025 -0.0697  0.5202 -1.8013
  139MOL   H11030746   5.130   3.297   6.035 -0.5389 -0.4364  2.3948
  139MOL   H11130747   5.190   3.199   5.914  1.2492 -2.2314  0.5725
  139MOL   C11230748   5.271   3.182   6.116  0.1999  0.0928 -0.0450
  139MOL   C11330749   5.244   3.187   6.268 -0.0895  0.5007  0.0568
  139MOL   O11430750   5.157   3.260   6.313 -0.2021  0.1982 -0.3558
  139MOL   C11530751   5.329   3.095   6.354 -0.2175 -0.0743 -0.3338
  139MOL   C11630752   5.368   3.301   6.101 -0.3243  0.2745  0.4383
  139MOL   H11730753   5.317   3.085   6.099 -0.5431  0.0171 -1.7047
  139MOL   H11830754   5.364   3.010   6.295  0.7189  1.4086 -1.9512
  139MOL   H11930755   5.423   3.146   6.376  0.0815 -0.4092 -0.8191
  139MOL   H12030756   5.282   3.056   6.444 -0.7018 -1.1255 -1.0316
  139MOL   H12130757   5.460   3.272   6.152 -0.2005 -4.0294 -2.0604
  139MOL   H12230758   5.323   3.388   6.150 -1.9378 -1.4301  2.0292
  139MOL   C12330759   5.419   3.338   5.966  0.1370 -0.3875  0.2472
  139MOL   C12430760   5.488   3.222   5.893  0.0881  0.3952  0.7743
  139MOL   O12530761   5.561   3.139   5.948  0.2754 -0.2581  0.1324
  139MOL   C12630762   5.480   3.210   5.746 -0.4816  0.2713 -0.2518
  139MOL   C12730763   5.509   3.468   5.958 -0.2475 -0.0891  0.3042
  139MOL   H12830764   5.325   3.354   5.915 -1.0683 -3.6093  1.3347
  139MOL   H12930765   5.449   3.306   5.704  0.1260  0.3516 -0.5302
  139MOL   H13030766   5.585   3.205   5.718 -0.1843 -3.6271  1.3036
  139MOL   H13130767   5.421   3.125   5.712 -2.8214  1.9205 -0.4468
  139MOL   H13230768   5.471   3.530   6.039 -0.0660  0.1871  0.1761
  139MOL   H13330769   5.485   3.517   5.863  0.7182 -1.7256 -0.8097
  139MOL   C13430770   5.667   3.460   5.970 -0.1488 -0.0530 -0.3333
  139MOL   C13530771   5.696   3.430   6.120 -0.2066  0.5072 -0.3866
  139MOL   O13630772   5.629   3.488   6.208  0.2449  0.0374 -0.8325
  139MOL   C13730773   5.806   3.330   6.153  0.3304 -0.1130 -0.0190
  139MOL   C13830774   5.728   3.593   5.929  0.3433 -0.6222  0.1781
  139MOL   H13930775   5.715   3.384   5.910  0.7948 -0.1409  0.5142
  139MOL   H14030776   5.759   3.235   6.125  0.5995  0.4321 -2.4222
  139MOL   H14130777   5.903   3.350   6.107  0.2018 -2.6253 -1.4879
  139MOL   H14230778   5.829   3.329   6.259  0.2321  4.0666  0.1382
  139MOL   H14330779   5.827   3.603   5.973  0.2825 -0.9670  0.3919
  139MOL   H14430780   5.670   3.670   5.981  1.9162  0.8887 -0.2775
  139MOL   C14530781   5.741   3.615   5.778  0.0898  0.0218  0.0999
  139MOL   C14630782   5.881   3.662   5.731  0.9620  0.8238 -0.1355
  139MOL   O14730783   5.899   3.775   5.689 -0.1701 -0.4742  0.4158
  139MOL   C14830784   5.998   3.565   5.761 -0.1676  0.4817  0.4257
  139MOL   C14930785   5.632   3.711   5.728  0.6409  0.1456 -0.1502
  139MOL   H15030786   5.729   3.516   5.734  0.4397  0.4811 -1.0414
  139MOL   H15130787   6.030   3.582   5.863  0.8812 -1.0975  0.3710
  139MOL   H15230788   5.960   3.464   5.770  1.7143 -0.3591 -0.6557
  139MOL   H15330789   6.080   3.563   5.689 -1.3367 -1.1827 -0.9009
  139MOL   H15430790   5.672   3.811   5.746 -1.7183  0.7849  1.7114
  139MOL   H15530791   5.535   3.718   5.777 -0.5903  0.0881 -2.5154
  139MOL   C15630792   5.602   3.706   5.578 -0.6803 -0.7472  0.3651
  139MOL   C15730793   5.534   3.833   5.516 -0.3401 -0.4266 -0.9159
  139MOL   O15830794   5.418   3.832   5.481  0.4927  0.2847 -0.3990
  139MOL   C15930795   5.623   3.949   5.496  0.3408 -0.1688 -0.1809
  139MOL   C16030796   5.523   3.575   5.544 -0.1968  0.0011  0.3283
  139MOL   H16130797   5.700   3.695   5.532 -0.3395  1.9050  0.4068
  139MOL   H16230798   5.566   4.035   5.532 -0.7974 -0.6939 -0.7171
  139MOL   H16330799   5.717   3.938   5.550 -0.6934  0.7126  1.8393
  139MOL   H16430800   5.628   3.971   5.389  2.0800  1.5857  0.2249
  139MOL   H16530801   5.420   3.584   5.577  0.1372  1.6725  0.9662
  139MOL   H16630802   5.564   3.497   5.608  2.8324  1.9374  0.8500
  139MOL   C16730803   5.535   3.519   5.394 -0.4990  0.0352 -1.1536
  139MOL   C16830804   5.409   3.530   5.305  0.0256 -0.2853  0.5247
  139MOL   O16930805   5.300   3.497   5.350 -0.7743  0.1356 -0.2135
  139MOL   C17030806   5.417   3.557   5.158 -0.8159 -0.8330 -0.0437
  139MOL   C17130807   5.589   3.377   5.388 -0.1188  0.2339  0.1875
  139MOL   H17230808   5.607   3.582   5.342 -1.5738  1.4748 -0.9183
  139MOL   H17330809   5.319   3.561   5.110 -0.9150  1.2401  0.2489
  139MOL   H17430810   5.455   3.658   5.139 -0.5674 -0.6251  1.4954
  139MOL   H17530811   5.473   3.483   5.101 -2.4753 -0.1414 -2.6635
  139MOL   H17630812   5.594   3.347   5.283  1.4932  1.2021 -0.0342
  139MOL   H17730813   5.508   3.320   5.433  1.4436  0.6115  3.6115
  139MOL   C17830814   5.728   3.333   5.456 -0.6467 -0.5116  0.3499
  139MOL   C17930815   5.845   3.419   5.398 -0.9488  0.2675  0.0335
  139MOL   O18030816   5.933   3.471   5.467 -0.4426  0.1413  0.0905
  139MOL   C18130817   5.853   3.437   5.252 -0.2040 -0.2605  0.7411
  139MOL   C18230818   5.752   3.176   5.443  1.1606  0.2401 -0.4592
  139MOL   H18330819   5.717   3.356   5.562  2.2999 -0.4151  0.6774
  139MOL   H18430820   5.805   3.352   5.204 -1.3660 -0.6620  2.5589
  139MOL   H18530821   5.802   3.534   5.248  1.0054  0.4629  2.2161
  139MOL   H18630822   5.958   3.446   5.225 -0.3634 -0.3131  0.0775
  139MOL   H18730823   5.757   3.140   5.341  1.8073 -0.1215 -0.3094
  139MOL   H18830824   5.660   3.133   5.483  1.6173  0.8831  1.3498
  139MOL   C18930825   5.871   3.111   5.518 -0.3356 -0.6504  0.5176
  139MOL   C19030826   5.858   3.150   5.668 -1.0192 -0.0756 -0.1766
  139MOL   O19130827   5.867   3.266   5.712  0.0256  0.4280 -0.2366
  139MOL   C19230828   5.819   3.043   5.769  0.0615 -0.1483 -0.1805
  139MOL   C19330829   6.010   3.139   5.452 -0.2670  0.3685 -0.1397
  139MOL   H19430830   5.857   3.003   5.519  0.7454 -0.7980 -0.1175
  139MOL   H19530831   5.906   2.982   5.788  0.1445 -0.7616 -2.3345
  139MOL   H19630832   5.778   3.086   5.860  1.9278 -0.7128  0.9372
  139MOL   H19730833   5.738   2.982   5.729 -0.4837  0.1548  0.4552
  139MOL   H19830834   6.053   3.205   5.527 -0.1947  1.0915 -0.8182
  139MOL   H19930835   6.019   3.194   5.359 -2.9410 -0.8112 -1.1617
  139MOL   C20030836   6.094   3.003   5.427  0.4083 -0.2425  0.2338
  139MOL   C20130837   6.142   2.930   5.552 -0.6200  0.1372  0.1277
  139MOL   O20230838   6.194   2.996   5.641  0.1397  0.0571  0.3649
  139MOL   C20330839   6.128   2.781   5.571 -0.6357 -0.4446  0.0642
  139MOL   C20430840   6.217   3.028   5.336  0.3633  0.4933 -0.4581
  139MOL   H20530841   6.024   2.938   5.375 -0.5722  1.3429 -0.4907
  139MOL   H20630842   6.071   2.766   5.663 -1.8465 -0.3575 -0.6635
  139MOL   H20730843   6.073   2.731   5.492 -1.5248 -0.6173  0.7786
  139MOL   H20830844   6.222   2.734   5.598 -0.5728 -0.5578 -0.3540
  139MOL   H20930845   6.287   2.944   5.342 -0.1418  0.0399 -0.8814
  139MOL   H21030846   6.274   3.111   5.377 -0.5373  1.2993 -0.8358
  139MOL   C21130847   6.190   3.048   5.184  0.4147  0.4298 -0.2393
  139MOL   C21230848   6.139   2.918   5.118  0.3171  0.2191  0.7380
  139MOL   O21330849   6.125   2.815   5.190  0.2387 -0.6308  0.4095
  139MOL   C21430850   6.106   2.913   4.970 -0.1591 -0.4303 -0.1046
  139MOL   C21530851   6.319   3.092   5.107 -1.0470  0.0005 -0.5926
  139MOL   H21630852   6.123   3.132   5.169  0.3985  0.0619 -2.4023
  139MOL   H21730853   6.190   2.863   4.922  0.4020  1.6620 -1.3982
  139MOL   H21830854   6.025   2.846   4.944  0.7521 -1.1433 -1.1615
  139MOL   H21930855   6.078   3.008   4.924  0.5807 -0.4928 -0.6832
  139MOL   H22030856   6.406   3.026   5.109  0.1659  1.6224  2.4668
  139MOL   H22130857   6.351   3.186   5.152  2.3046 -0.9059 -0.9036
  139MOL   H22230858   6.291   3.114   5.004 -0.0131 -0.4912 -0.9853
  140MOL     C130859   7.231   4.080   6.201 -0.8624  0.1162 -0.1495
  140MOL     C230860   7.244   4.092   6.050  0.5601  0.1456 -0.2729
  140MOL     O330861   7.252   4.201   5.994  0.0863  0.9406  0.1589
  140MOL     C430862   7.247   3.965   5.978  0.4007  0.8768  0.7410
  140MOL     C530863   7.242   4.209   6.285 -0.0891  0.4553  0.4274
  140MOL     H630864   7.135   4.041   6.235 -0.2137  0.1438  1.7567
  140MOL     H730865   7.294   3.955   5.880  1.0427  1.9850  0.9288
  140MOL     H830866   7.287   3.884   6.039  0.2832  0.3597  0.1380
  140MOL     H930867   7.143   3.933   5.972  0.1811  1.7014 -0.0106
  140MOL    H1030868   7.200   4.180   6.382 -4.0479  1.3919 -0.9209
  140MOL    H1130869   7.172   4.284   6.250 -0.1590  0.5249  0.7171
  140MOL    H1230870   7.305   4.010   6.241  1.7505  2.5685 -0.5871
  140MOL    C1330871   7.390   4.253   6.299 -0.3954 -0.1069 -0.6677
  140MOL    C1430872   7.480   4.148   6.361  0.4519 -0.7023 -0.2020
  140MOL    O1530873   7.493   4.134   6.479 -0.2111  0.4688  0.3550
  140MOL    C1630874   7.564   4.069   6.257  0.4277  0.0072 -0.1172
  140MOL    C1730875   7.403   4.383   6.376 -0.3427  0.8227 -0.3629
  140MOL    H1830876   7.418   4.269   6.195  0.1655 -0.5515 -0.5837
  140MOL    H1930877   7.668   4.058   6.288  0.1534 -1.4841  0.2916
  140MOL    H2030878   7.535   3.967   6.235  0.0444  0.3093 -1.0612
  140MOL    H2130879   7.560   4.117   6.159  0.7435 -1.4029 -0.8312
  140MOL    H2230880   7.501   4.388   6.423  0.5187 -1.2563 -1.8579
  140MOL    H2330881   7.336   4.377   6.461  2.2545 -0.2110  1.6856
  140MOL    C2430882   7.371   4.509   6.289  0.1181 -0.2673 -0.1255
  140MOL    C2530883   7.480   4.535   6.184 -0.4216 -0.2675 -0.2556
  140MOL    O2630884   7.587   4.578   6.229  0.3043  0.3561 -0.0781
  140MOL    C2730885   7.462   4.502   6.037  0.7075 -0.6107  0.9665
  140MOL    C2830886   7.348   4.625   6.385 -0.3853 -0.6551 -0.2956
  140MOL    H2930887   7.278   4.488   6.237 -0.2132 -0.2505  0.4617
  140MOL    H3030888   7.393   4.420   6.020  1.7988 -1.2878 -0.2623
  140MOL    H3130889   7.416   4.590   5.993  1.9099  0.3946  1.6613
  140MOL    H3230890   7.556   4.498   5.982 -0.5891 -1.5400 -1.2224
  140MOL    H3330891   7.376   4.714   6.329 -0.6761  0.4877  1.3247
  140MOL    H3430892   7.424   4.624   6.463  0.3869 -0.1527 -1.0381
  140MOL    C3530893   7.207   4.632   6.454  0.2253  0.8896  0.8604
  140MOL    C3630894   7.090   4.546   6.393 -0.7108 -0.4969  0.2478
  140MOL    O3730895   7.063   4.438   6.443  0.4118 -0.5260  0.8856
  140MOL    C3830896   7.008   4.608   6.282  0.6621 -0.0995  0.3347
  140MOL    C3930897   7.162   4.775   6.491 -0.7050 -0.4890 -1.3428
  140MOL    H4030898   7.226   4.588   6.552 -0.1166  1.3494  1.1350
  140MOL    H4130899   6.985   4.712   6.306 -2.7793 -0.7885  0.2909
  140MOL    H4230900   7.078   4.603   6.198  0.7283 -1.2073  0.4513
  140MOL    H4330901   6.917   4.551   6.262 -1.5285  3.6837 -1.1587
  140MOL    H4430902   7.150   4.827   6.396 -0.5153  1.4508 -0.3102
  140MOL    H4530903   7.243   4.827   6.543 -3.0425  2.3178 -0.3676
  140MOL    C4630904   7.025   4.798   6.573 -0.3247 -0.6931  0.0176
  140MOL    C4730905   6.985   4.949   6.553 -0.4667  0.3930 -0.2500
  140MOL    O4830906   6.902   4.977   6.467 -0.2037  0.6570  0.6755
  140MOL    C4930907   7.075   5.050   6.616  0.3868  0.4965  0.5182
  140MOL    C5030908   7.037   4.760   6.721  0.4187 -0.9406 -0.0021
  140MOL    H5130909   6.947   4.741   6.521 -1.9415  0.8556  0.6908
  140MOL    H5230910   7.037   5.090   6.710  0.3429  1.1825  0.2117
  140MOL    H5330911   7.173   5.003   6.628 -0.6213 -1.3465  1.7889
  140MOL    H5430912   7.091   5.139   6.556  0.1017  1.1434  1.3995
  140MOL    H5530913   7.113   4.819   6.771 -1.0737 -0.7667  2.1127
  140MOL    H5630914   7.087   4.663   6.726 -0.5265 -1.3527  1.5758
  140MOL    C5730915   6.907   4.750   6.803 -0.3994  0.7550  0.6215
  140MOL    C5830916   6.933   4.735   6.952 -0.1863  0.5812 -0.8792
  140MOL    O5930917   6.929   4.625   7.003  0.2299 -0.1706  0.2403
  140MOL    C6030918   6.936   4.859   7.039 -0.4330  0.2417 -0.5318
  140MOL    C6130919   6.812   4.642   6.745 -0.0168 -0.0163 -1.5298
  140MOL    H6230920   6.864   4.848   6.779  1.0375  1.6417  1.6034
  140MOL    H6330921   6.845   4.906   7.076  1.2438  2.0943  1.4380
  140MOL    H6430922   6.990   4.835   7.130 -0.4953 -2.0794 -1.0902
  140MOL    H6530923   6.995   4.931   6.981  0.6000  1.0699  1.4762
  140MOL    H6630924   6.774   4.583   6.828  0.3962  0.9793 -0.6342
  140MOL    H6730925   6.854   4.564   6.681 -0.4748 -0.7821 -0.9081
  140MOL    C6830926   6.703   4.711   6.658 -0.1332 -0.3330  0.6781
  140MOL    C6930927   6.583   4.750   6.745 -0.4371  0.3281  0.0903
  140MOL    O7030928   6.483   4.680   6.749  0.0103  0.6897  0.5732
  140MOL    C7130929   6.593   4.881   6.820  0.7179  0.1507 -0.1753
  140MOL    C7230930   6.663   4.618   6.535 -0.1207  0.3920 -0.5980
  140MOL    H7330931   6.743   4.808   6.629  1.1882 -0.9786  0.3400
  140MOL    H7430932   6.684   4.892   6.878  0.2310  0.8330  0.4759
  140MOL    H7530933   6.594   4.968   6.755  0.7469 -1.1264 -1.9205
  140MOL    H7630934   6.513   4.892   6.894 -0.3884  1.7067 -1.5551
  140MOL    H7730935   6.617   4.527   6.574 -1.6454  0.9140 -1.1730
  140MOL    H7830936   6.747   4.582   6.476  2.6336  1.9392  2.1989
  140MOL    C7930937   6.566   4.687   6.443 -0.4591 -0.2059  0.5874
  140MOL    C8030938   6.461   4.587   6.401 -0.1884  0.0221 -0.0869
  140MOL    O8130939   6.494   4.484   6.338 -0.3816 -0.2628  0.5976
  140MOL    C8230940   6.311   4.614   6.416  0.4574 -0.0801  0.2564
  140MOL    C8330941   6.627   4.750   6.322 -0.0370 -0.0884  0.4085
  140MOL    H8430942   6.507   4.762   6.496 -0.5360  1.5680 -1.9016
  140MOL    H8530943   6.287   4.647   6.315  1.2871 -0.5297 -0.0933
  140MOL    H8630944   6.261   4.523   6.448 -3.1435  1.7347  0.0853
  140MOL    H8730945   6.283   4.687   6.492  0.0941 -0.1695  0.2060
  140MOL    H8830946   6.603   4.687   6.237  1.7970 -0.0154 -0.1824
  140MOL    H8930947   6.736   4.748   6.323  0.0057  1.2241 -1.3924
  140MOL    C9030948   6.586   4.891   6.291  0.6057 -0.7104  0.5275
  140MOL    C9130949   6.617   4.999   6.398  0.1262  0.1426  0.3663
  140MOL    O9230950   6.605   4.976   6.519 -0.0590  0.1547  0.2131
  140MOL    C9330951   6.668   5.139   6.350 -0.0686  0.4140 -0.1339
  140MOL    C9430952   6.439   4.911   6.225  0.1328  0.9179  0.9288
  140MOL    H9530953   6.657   4.920   6.213  0.8944  0.4390  1.2137
  140MOL    H9630954   6.776   5.154   6.351 -0.2875  1.9785  0.6705
  140MOL    H9730955   6.610   5.164   6.261 -0.3463  0.4747  0.0657
  140MOL    H9830956   6.631   5.209   6.424 -1.0512  1.9553 -2.0386
  140MOL    H9930957   6.397   5.002   6.266  1.7428  1.8391  0.5854
  140MOL   H10030958   6.383   4.828   6.269  0.7988  0.2091  0.4596
  140MOL   C10130959   6.419   4.905   6.072  0.3331  0.4903 -0.4171
  140MOL   C10230960   6.462   4.771   6.011 -0.0088 -0.4233  0.5509
  140MOL   O10330961   6.579   4.752   5.970 -0.4286 -0.0678  0.1041
  140MOL   C10430962   6.359   4.664   6.022 -0.4698  0.5716 -0.2749
  140MOL   C10530963   6.482   5.031   5.990  1.0186 -0.0971 -0.1259
  140MOL   H10630964   6.310   4.909   6.068  0.3084 -1.0187 -1.5598
  140MOL   H10730965   6.268   4.683   5.964 -1.3641  0.0303  0.9215
  140MOL   H10830966   6.402   4.574   5.978  0.1763  0.6827  0.1202
  140MOL   H10930967   6.336   4.628   6.122  1.5396 -1.0173 -0.3483
  140MOL   H11030968   6.586   5.027   6.023  1.8856 -1.2871 -2.8797
  140MOL   H11130969   6.432   5.121   6.026  1.7641  0.2999 -0.0879
  140MOL   C11230970   6.476   5.020   5.837  0.5882 -0.0893  0.1423
  140MOL   C11330971   6.582   5.108   5.774  0.3043  0.2915  0.1803
  140MOL   O11430972   6.677   5.050   5.718  0.0207 -0.5007 -0.1739
  140MOL   C11530973   6.567   5.260   5.778  0.1732  0.2631  0.1495
  140MOL   C11630974   6.330   5.029   5.779 -0.2383 -0.5953 -0.0204
  140MOL   H11730975   6.516   4.921   5.813  0.1365 -0.2168 -0.1016
  140MOL   H11830976   6.624   5.300   5.862 -0.5247  0.7861  0.3728
  140MOL   H11930977   6.583   5.318   5.687  1.8499  1.9697  1.4801
  140MOL   H12030978   6.465   5.277   5.811  0.9608  2.0139  1.7412
  140MOL   H12130979   6.294   5.132   5.773 -0.7718 -0.8039 -0.5143
  140MOL   H12230980   6.258   4.996   5.853  1.0415 -0.5078  1.2693
  140MOL   C12330981   6.301   4.956   5.645  0.4386  0.9489 -0.2072
  140MOL   C12430982   6.176   5.006   5.570  0.1353  0.0069  0.4514
  140MOL   O12530983   6.190   5.023   5.451  0.7108 -0.5540  0.4135
  140MOL   C12630984   6.058   5.040   5.644  0.1386 -0.3402  0.0748
  140MOL   C12730985   6.299   4.799   5.666  0.2068 -0.0283  0.0085
  140MOL   H12830986   6.386   4.977   5.581 -0.3490  0.2982 -1.4849
  140MOL   H12930987   6.057   4.986   5.739  0.3308 -0.4664  0.0025
  140MOL   H13030988   6.046   5.147   5.662 -1.0765 -0.2788 -1.0047
  140MOL   H13130989   5.966   5.021   5.588  1.7683 -1.5092 -2.2669
  140MOL   H13230990   6.201   4.785   5.712 -0.2129  0.4118 -0.7401
  140MOL   H13330991   6.358   4.765   5.751  1.1488 -0.2830 -0.7401
  140MOL   C13430992   6.333   4.705   5.547  0.4278 -0.4334  0.4729
  140MOL   C13530993   6.295   4.565   5.603  0.3718  0.2234  0.1308
  140MOL   O13630994   6.346   4.513   5.698  0.1035  0.6946  0.9851
  140MOL   C13730995   6.215   4.478   5.499 -0.4612  0.2415 -0.7963
  140MOL   C13830996   6.488   4.704   5.507  0.2110  0.2856 -0.0882
  140MOL   H13930997   6.263   4.727   5.466 -1.0554  1.4877  2.2325
  140MOL   H14030998   6.109   4.474   5.525 -0.9614  0.3935 -2.7590
  140MOL   H14130999   6.216   4.522   5.400 -2.3796  1.0159 -0.5037
  140MOL   H14231000   6.243   4.372   5.503  1.4161  0.7136 -1.0701
  140MOL   H14331001   6.519   4.603   5.482  0.4804  0.2739  0.2830
  140MOL   H14431002   6.551   4.743   5.587 -1.8466  0.4899  1.4868
  140MOL   C14531003   6.516   4.785   5.382  0.6969 -0.4923  0.4048
  140MOL   C14631004   6.438   4.741   5.258  0.1797 -0.0967  0.3366
  140MOL   O14731005   6.396   4.627   5.247  0.0573  0.0782 -0.1872
  140MOL   C14831006   6.401   4.847   5.153  0.3472 -0.9413 -0.0874
  140MOL   C14931007   6.664   4.796   5.333  0.0806  0.1000 -1.1272
  140MOL   H15031008   6.480   4.887   5.397  1.0036  0.1863 -3.0158
  140MOL   H15131009   6.336   4.805   5.076 -1.8461  0.0155  1.1937
  140MOL   H15231010   6.349   4.929   5.202  0.2153  0.2358 -2.1398
  140MOL   H15331011   6.496   4.888   5.119  0.2762  0.4513  1.3200
  140MOL   H15431012   6.666   4.811   5.225 -0.0101  0.2923 -1.1035
  140MOL   H15531013   6.709   4.697   5.335  1.8523  0.9020 -0.8033
  140MOL   C15631014   6.741   4.900   5.407 -0.2189 -0.2431 -0.0205
  140MOL   C15731015   6.681   5.038   5.369  0.1062  0.1977  0.2449
  140MOL   O15831016   6.605   5.060   5.275 -0.0008 -0.0875 -1.0841
  140MOL   C15931017   6.743   5.166   5.442  0.0155  0.3071  0.5645
  140MOL   C16031018   6.892   4.895   5.379 -0.1715  0.5640  0.3580
  140MOL   H16131019   6.716   4.892   5.513  1.0729 -0.9887  0.2384
  140MOL   H16231020   6.654   5.224   5.466 -0.9878 -0.6081 -0.8742
  140MOL   H16331021   6.803   5.132   5.526  0.7870 -0.2938 -0.2201
  140MOL   H16431022   6.802   5.230   5.376  2.0908 -1.5187  0.6147
  140MOL   H16531023   6.928   4.989   5.421 -0.4888  1.7960 -2.0266
  140MOL   H16631024   6.919   4.910   5.274 -2.5365 -1.5384 -0.6200
  140MOL   C16731025   6.969   4.778   5.438 -0.0494  0.4466  0.6336
  140MOL   C16831026   6.960   4.786   5.590  0.3370  0.0163 -0.3638
  140MOL   O16931027   7.056   4.820   5.653  0.1718 -0.3033 -0.1423
  140MOL   C17031028   6.827   4.739   5.656  0.1083  0.2480  0.0684
  140MOL   C17131029   7.105   4.784   5.375  0.1388  0.0956  0.5793
  140MOL   H17231030   6.933   4.678   5.411  0.9607  0.3318 -0.3060
  140MOL   H17331031   6.770   4.685   5.581 -0.7717 -0.5048  1.2823
  140MOL   H17431032   6.846   4.670   5.738  0.1664  0.7944  0.5189
  140MOL   H17531033   6.771   4.827   5.686  1.5191  0.9480  0.7333
  140MOL   H17631034   7.146   4.883   5.397 -3.9403  1.2612  3.6547
  140MOL   H17731035   7.092   4.772   5.268 -0.1823 -4.6061  1.0661
  140MOL   C17831036   7.209   4.679   5.421 -0.1724  0.3828  0.4199
  140MOL   C17931037   7.340   4.712   5.344  0.1644 -0.5058  0.4259
  140MOL   O18031038   7.344   4.735   5.225  0.3006 -0.4618 -0.2168
  140MOL   C18131039   7.470   4.702   5.421 -0.1011 -0.6480  0.6030
  140MOL   C18231040   7.159   4.533   5.400 -0.4050 -0.3400  0.0422
  140MOL   H18331041   7.237   4.694   5.526 -2.5493 -1.7231  1.4214
  140MOL   H18431042   7.550   4.724   5.350  0.7015 -1.4259  1.2564
  140MOL   H18531043   7.472   4.788   5.487  1.2475  0.1759 -0.4955
  140MOL   H18631044   7.485   4.602   5.463  1.2705  0.3262  2.4675
  140MOL   H18731045   7.236   4.475   5.349 -0.9135 -0.6910 -0.3267
  140MOL   H18831046   7.070   4.542   5.338 -0.1522 -0.3453 -0.3196
  140MOL   C18931047   7.117   4.457   5.526 -0.0264 -0.1077 -0.0611
  140MOL   C19031048   7.239   4.441   5.630  0.2595 -0.1295  0.2248
  140MOL   O19131049   7.356   4.441   5.588 -0.0873  0.4405  0.2878
  140MOL   C19231050   7.222   4.429   5.781 -1.0740  0.3507  0.5908
  140MOL   C19331051   7.057   4.320   5.491  0.6573 -0.6598  0.0145
  140MOL   H19431052   7.050   4.524   5.580 -0.5837 -1.3414  0.7951
  140MOL   H19531053   7.253   4.330   5.816  0.2520  0.6057  0.1531
  140MOL   H19631054   7.286   4.497   5.837 -0.2305 -0.8411  1.0962
  140MOL   H19731055   7.119   4.443   5.814 -1.7328 -0.4634 -1.0378
  140MOL   H19831056   7.135   4.258   5.446  0.0855 -1.9244  0.7065
  140MOL   H19931057   6.972   4.330   5.424 -1.4632 -0.9039  2.5547
  140MOL   C20031058   6.984   4.247   5.611  0.1665 -0.6702  0.0274
  140MOL   C20131059   6.965   4.101   5.564  0.2352 -0.0922  0.3559
  140MOL   O20231060   6.987   4.068   5.445  0.3859  0.0616  0.2908
  140MOL   C20331061   6.938   3.997   5.671 -0.1000  0.8212 -0.2078
  140MOL   C20431062   6.858   4.309   5.666 -0.7985  0.3740  0.2824
  140MOL   H20531063   7.061   4.241   5.688  0.8252  0.8143 -0.4875
  140MOL   H20631064   6.831   3.978   5.663 -0.7260  3.4669  1.0465
  140MOL   H20731065   6.974   3.896   5.654  0.8347  0.7626  1.9574
  140MOL   H20831066   6.965   4.015   5.775 -0.2256 -0.8635  0.1162
  140MOL   H20931067   6.861   4.418   5.666  0.6240  0.3471  1.4854
  140MOL   H21031068   6.859   4.281   5.771  1.8207  0.7096  0.3739
  140MOL   C21131069   6.723   4.268   5.596 -0.9304  0.0182 -0.5739
  140MOL   C21231070   6.711   4.348   5.461 -0.5626  0.1390 -0.0649
  140MOL   O21331071   6.754   4.463   5.452  0.3832 -0.1138 -0.3627
  140MOL   C21431072   6.650   4.274   5.339  0.0840 -0.8432 -0.0683
  140MOL   C21531073   6.603   4.320   5.671 -0.6051 -0.0767 -0.1935
  140MOL   H21631074   6.711   4.162   5.571 -1.6265 -0.2623  0.8967
  140MOL   H21731075   6.730   4.207   5.308  0.0617 -1.5497  1.3522
  140MOL   H21831076   6.568   4.207   5.365 -1.0102  0.2823 -0.5799
  140MOL   H21931077   6.634   4.340   5.254 -2.7784 -0.2708  0.8912
  140MOL   H22031078   6.602   4.278   5.771 -0.7593  0.0104 -0.1583
  140MOL   H22131079   6.512   4.300   5.614 -0.0839  1.0805 -1.4779
  140MOL   H22231080   6.608   4.428   5.687 -0.1443 -0.2436  0.7907
  141MOL     C131081   2.270   1.673   5.572  0.0012  0.3365 -0.1411
  141MOL     C231082   2.144   1.634   5.502 -0.4177  0.1851  0.2912
  141MOL     O331083   2.118   1.513   5.488  0.1726 -0.1295  0.1772
  141MOL     C431084   2.056   1.737   5.428  0.5042  0.1676  0.6039
  141MOL     C531085   2.401   1.663   5.493 -0.0862  0.3573 -0.4374
  141MOL     H631086   2.254   1.777   5.601 -0.0768  0.2771  0.0277
  141MOL     H731087   2.105   1.760   5.333  0.2965  0.8148  0.6513
  141MOL     H831088   1.963   1.685   5.406 -0.2971  1.4716  0.8510
  141MOL     H931089   2.033   1.831   5.478 -0.1294 -0.2162  1.0345
  141MOL    H1031090   2.372   1.632   5.392 -0.5543 -2.2356  0.4556
  141MOL    H1131091   2.459   1.578   5.527  0.3885  0.5556 -0.7411
  141MOL    H1231092   2.281   1.621   5.667 -1.7673  0.2989  0.0612
  141MOL    C1331093   2.482   1.795   5.478 -0.0110  0.2088  0.1109
  141MOL    C1431094   2.414   1.914   5.408  0.7736 -0.0865 -0.3468
  141MOL    O1531095   2.404   2.013   5.473  0.0860  0.4085  0.6493
  141MOL    C1631096   2.381   1.905   5.260  1.3949  0.6522 -0.0594
  141MOL    C1731097   2.613   1.741   5.418  0.6547 -1.0885 -0.3914
  141MOL    H1831098   2.505   1.837   5.576  1.6364 -0.4624  0.0330
  141MOL    H1931099   2.427   1.818   5.212 -0.4056  0.2340 -1.0752
  141MOL    H2031100   2.277   1.902   5.230  0.9345 -2.3395  1.6399
  141MOL    H2131101   2.427   1.992   5.213  1.2718 -0.2954 -1.9966
  141MOL    H2231102   2.593   1.674   5.334  0.3176  1.4611 -2.4209
  141MOL    H2331103   2.664   1.686   5.497 -0.6736 -0.4085  0.9797
  141MOL    C2431104   2.715   1.845   5.374  0.7201 -0.5962 -0.7400
  141MOL    C2531105   2.825   1.775   5.291 -0.1203  1.0273  0.4164
  141MOL    O2631106   2.895   1.689   5.339  0.2301  0.0686 -0.4445
  141MOL    C2731107   2.846   1.810   5.151 -0.0657 -0.1837 -0.1463
  141MOL    C2831108   2.780   1.923   5.497 -0.1770  0.1540 -0.5966
  141MOL    H2931109   2.665   1.914   5.306  0.4581  1.0118  1.0338
  141MOL    H3031110   2.948   1.794   5.118  0.0813 -0.1130  0.2738
  141MOL    H3131111   2.782   1.738   5.100 -0.4724  1.2529 -1.6912
  141MOL    H3231112   2.818   1.914   5.137 -1.4606 -0.5042  0.1680
  141MOL    H3331113   2.807   1.854   5.576 -0.1331  0.0808 -0.6757
  141MOL    H3431114   2.699   1.978   5.545  0.1851 -0.0147  0.2145
  141MOL    C3531115   2.888   2.033   5.459  0.6551  0.6873 -0.5951
  141MOL    C3631116   2.847   2.126   5.339 -0.4411  0.4305 -0.7735
  141MOL    O3731117   2.910   2.132   5.234 -0.1611  0.0604 -0.1917
  141MOL    C3831118   2.720   2.218   5.362 -0.0327  0.3701 -0.1555
  141MOL    C3931119   3.034   1.995   5.460 -0.4807 -0.5361 -0.1783
  141MOL    H4031120   2.871   2.107   5.538 -1.8709 -0.1761 -0.2680
  141MOL    H4131121   2.659   2.210   5.272 -1.4396 -2.7045  0.9890
  141MOL    H4231122   2.665   2.182   5.450 -0.7952  1.0725 -0.3374
  141MOL    H4331123   2.752   2.320   5.379  1.1086 -0.1207  0.6809
  141MOL    H4431124   3.085   2.088   5.439 -1.2113 -0.0761  0.0838
  141MOL    H4531125   3.069   1.927   5.382  1.4347  2.1489 -1.7055
  141MOL    C4631126   3.080   1.944   5.596  0.5049  0.1325 -0.1437
  141MOL    C4731127   3.030   2.042   5.710  0.2883 -0.1209  0.1330
  141MOL    O4831128   2.913   2.030   5.754 -0.3719  0.4989 -0.0046
  141MOL    C4931129   3.113   2.154   5.766 -0.3486 -0.4903  0.3186
  141MOL    C5031130   3.235   1.916   5.614  0.4529  0.1286  0.3816
  141MOL    H5131131   3.019   1.854   5.599 -0.3419  0.6550 -1.2632
  141MOL    H5231132   3.217   2.141   5.794  0.3178  0.6529 -1.5418
  141MOL    H5331133   3.126   2.240   5.700  0.4488 -0.3357  0.6701
  141MOL    H5431134   3.066   2.206   5.850 -0.0086 -0.0448  0.2367
  141MOL    H5531135   3.244   1.871   5.712  1.6329  1.9349  1.1403
  141MOL    H5631136   3.296   2.007   5.603  0.3321  0.3301  1.3929
  141MOL    C5731137   3.290   1.814   5.514 -0.2727 -0.3870 -0.1034
  141MOL    C5831138   3.249   1.669   5.548 -0.5870 -0.2572  0.1948
  141MOL    O5931139   3.264   1.626   5.663 -0.3900  0.6317 -0.6039
  141MOL    C6031140   3.170   1.583   5.446 -0.2397  0.2540 -0.3328
  141MOL    C6131141   3.449   1.818   5.501  0.1551  0.0464  0.2282
  141MOL    H6231142   3.248   1.826   5.414 -1.7560  2.2009  0.7836
  141MOL    H6331143   3.194   1.478   5.466 -2.1331 -0.0655  0.3799
  141MOL    H6431144   3.063   1.595   5.462  0.1663  3.4254  0.2361
  141MOL    H6531145   3.191   1.616   5.344  2.3938 -1.3802 -0.3781
  141MOL    H6631146   3.493   1.721   5.523  1.6546  0.7718  0.5273
  141MOL    H6731147   3.479   1.877   5.588 -0.3243 -0.8318  0.9944
  141MOL    C6831148   3.496   1.883   5.363  0.2524  0.4657 -0.3141
  141MOL    C6931149   3.627   1.843   5.315  0.2568  0.9953 -0.3952
  141MOL    O7031150   3.716   1.800   5.387  0.2903  0.5900 -0.4759
  141MOL    C7131151   3.661   1.857   5.162  0.1712 -0.2019 -1.0778
  141MOL    C7231152   3.473   2.040   5.355  0.0060  1.1533  0.0423
  141MOL    H7331153   3.440   1.832   5.285 -0.0499  1.1261 -0.5265
  141MOL    H7431154   3.665   1.966   5.153  0.4730 -0.0201  0.9550
  141MOL    H7531155   3.757   1.813   5.135 -0.2298 -0.4816 -2.0458
  141MOL    H7631156   3.578   1.814   5.106  0.0392 -0.7098 -0.4975
  141MOL    H7731157   3.382   2.066   5.410 -1.0002 -1.1553 -0.4730
  141MOL    H7831158   3.446   2.067   5.253  1.1542  0.7686 -0.3706
  141MOL    C7931159   3.582   2.127   5.400 -0.1747  0.2910  0.7870
  141MOL    C8031160   3.588   2.140   5.552  0.1866 -0.0496 -0.9081
  141MOL    O8131161   3.498   2.201   5.622 -0.3463  0.1390  0.3456
  141MOL    C8231162   3.705   2.062   5.617 -0.4265  0.5740  0.6265
  141MOL    C8331163   3.576   2.267   5.340 -0.2554  0.2385  0.1825
  141MOL    H8431164   3.674   2.086   5.358 -1.1213 -0.3612 -0.6926
  141MOL    H8531165   3.720   1.968   5.564  2.3611  1.4218 -0.1790
  141MOL    H8631166   3.802   2.111   5.622  0.6532 -1.3937 -0.2971
  141MOL    H8731167   3.662   2.043   5.716 -1.7710 -0.9087 -0.2023
  141MOL    H8831168   3.483   2.306   5.382 -0.2543 -1.5140  1.9348
  141MOL    H8931169   3.555   2.243   5.236 -3.6609 -0.6044  1.0112
  141MOL    C9031170   3.699   2.354   5.367 -0.2722  0.2538 -0.4737
  141MOL    C9131171   3.655   2.501   5.406 -0.4355  0.5222 -0.1302
  141MOL    O9231172   3.668   2.598   5.329  0.7205  0.0232  0.3860
  141MOL    C9331173   3.589   2.527   5.544  0.9110  0.2142 -0.1467
  141MOL    C9431174   3.795   2.358   5.249 -0.4690  0.3178  0.0742
  141MOL    H9531175   3.759   2.309   5.446  0.2724  1.7949  0.0190
  141MOL    H9631176   3.598   2.628   5.583 -1.2647  0.0691  0.7945
  141MOL    H9731177   3.486   2.494   5.552  1.5890 -1.8221  0.6301
  141MOL    H9831178   3.641   2.462   5.615  1.2808  0.2590 -0.3742
  141MOL    H9931179   3.867   2.437   5.269 -1.5231  0.9265  1.5899
  141MOL   H10031180   3.729   2.391   5.170 -0.6543  0.2360  0.1927
  141MOL   C10131181   3.851   2.219   5.200  0.9280 -0.0262 -0.5973
  141MOL   C10231182   3.942   2.159   5.307  0.1525 -0.1495  0.1044
  141MOL   O10331183   3.993   2.228   5.393 -0.2953  0.1872  0.7985
  141MOL   C10431184   3.963   2.002   5.313 -0.1010 -0.8595  0.1185
  141MOL   C10531185   3.926   2.244   5.067 -0.1311 -0.1924 -0.4243
  141MOL   H10631186   3.774   2.144   5.182 -1.0666  1.3497  1.8583
  141MOL   H10731187   3.892   1.947   5.251 -0.7807 -2.1210  1.9782
  141MOL   H10831188   4.067   1.985   5.284  0.4560 -0.3097  1.7275
  141MOL   H10931189   3.940   1.976   5.417 -1.2059  0.8764  0.3139
  141MOL   H11031190   3.987   2.158   5.040 -0.5630 -0.9948  1.0660
  141MOL   H11131191   3.982   2.337   5.072 -0.3584 -0.0174 -1.0549
  141MOL   C11231192   3.836   2.262   4.943 -0.5549 -0.9339 -0.4057
  141MOL   C11331193   3.749   2.143   4.920 -0.0665 -0.0169  0.5116
  141MOL   O11431194   3.797   2.037   4.876 -0.3935 -0.4819 -0.4384
  141MOL   C11531195   3.598   2.162   4.928  0.7766  0.2103  0.4749
  141MOL   C11631196   3.913   2.296   4.818 -0.2221 -0.1320 -0.9079
  141MOL   H11731197   3.769   2.347   4.958  0.0796 -0.4670 -0.1832
  141MOL   H11831198   3.565   2.095   5.007 -1.4112  1.0915  0.3230
  141MOL   H11931199   3.572   2.266   4.946 -1.8294 -0.4576  0.7446
  141MOL   H12031200   3.550   2.134   4.834  2.3077 -0.6071 -0.0790
  141MOL   H12131201   3.854   2.281   4.727 -0.2471 -0.0154 -0.9108
  141MOL   H12231202   3.990   2.221   4.804  1.1075  0.4496  2.8174
  141MOL   C12331203   3.970   2.436   4.812 -0.2744 -0.9340  0.9545
  141MOL   C12431204   3.873   2.559   4.829 -0.0335 -0.2382 -0.0121
  141MOL   O12531205   3.755   2.553   4.800  0.3166 -0.0024 -0.3399
  141MOL   C12631206   3.932   2.696   4.866 -0.7054  0.4334 -0.1034
  141MOL   C12731207   4.048   2.458   4.681 -0.5523  0.9439  0.7071
  141MOL   H12831208   4.040   2.452   4.894 -1.1668  1.8535  1.2082
  141MOL   H12931209   3.991   2.725   4.779  1.6413 -1.1553  0.8934
  141MOL   H13031210   3.846   2.758   4.889  0.4880  1.8201  0.7033
  141MOL   H13131211   3.995   2.692   4.955 -1.3107  2.7395  0.4588
  141MOL   H13231212   4.037   2.558   4.639  0.2189 -0.1093 -2.1104
  141MOL   H13331213   4.007   2.392   4.604  3.8955 -1.1106 -0.0629
  141MOL   C13431214   4.202   2.424   4.685  0.1789  0.8113 -0.2286
  141MOL   C13531215   4.239   2.279   4.664 -0.6914 -0.4961  0.0552
  141MOL   O13631216   4.279   2.207   4.756 -0.0107 -0.2922 -0.3590
  141MOL   C13731217   4.202   2.215   4.529 -0.0621  0.3225  0.0571
  141MOL   C13831218   4.288   2.496   4.788  1.1195  0.4532 -0.4520
  141MOL   H13931219   4.234   2.467   4.590 -0.1397  0.3909 -0.5311
  141MOL   H14031220   4.286   2.162   4.486  0.6842  2.0918 -0.7393
  141MOL   H14131221   4.117   2.146   4.531  2.2405 -2.6679 -2.4998
  141MOL   H14231222   4.166   2.289   4.458 -1.5074 -4.0437 -4.0034
  141MOL   H14331223   4.287   2.432   4.877  1.2725  2.0326  0.7080
  141MOL   H14431224   4.249   2.586   4.834  0.6102  1.0849 -2.0943
  141MOL   C14531225   4.441   2.524   4.745  0.2759  0.3740  0.3025
  141MOL   C14631226   4.535   2.514   4.871 -0.5650  0.1232 -0.4476
  141MOL   O14731227   4.614   2.606   4.900 -0.1625 -0.5198 -0.3314
  141MOL   C14831228   4.538   2.387   4.950  0.3068  0.1773  0.1282
  141MOL   C14931229   4.456   2.650   4.658  0.7224  0.2531  0.1219
  141MOL   H15031230   4.488   2.443   4.688  1.3305  2.3121 -1.6417
  141MOL   H15131231   4.638   2.345   4.955  0.6183  0.7429 -1.2131
  141MOL   H15231232   4.496   2.391   5.051  1.4006  0.4581  0.5814
  141MOL   H15331233   4.482   2.302   4.911  0.8800 -0.3520  0.4538
  141MOL   H15431234   4.404   2.654   4.563  0.1644 -0.9466  0.3728
  141MOL   H15531235   4.559   2.658   4.622  0.5845 -2.7246 -1.0730
  141MOL   C15631236   4.416   2.773   4.741 -0.7998  0.1662 -0.6248
  141MOL   C15731237   4.270   2.827   4.725 -0.1274  0.7627  0.1677
  141MOL   O15831238   4.211   2.815   4.619 -0.5896 -0.4081 -0.0857
  141MOL   C15931239   4.205   2.913   4.832 -0.1851  0.4795 -0.3431
  141MOL   C16031240   4.500   2.896   4.697  0.1334 -0.0219 -0.2158
  141MOL   H16131241   4.431   2.758   4.848 -0.7169  1.9651 -0.3666
  141MOL   H16231242   4.235   2.868   4.926  0.5310  2.3302  0.3372
  141MOL   H16331243   4.230   3.018   4.846  1.5021  0.0222  0.1373
  141MOL   H16431244   4.097   2.895   4.834 -0.1340  0.2885  1.4199
  141MOL   H16531245   4.443   2.989   4.690 -1.7964 -1.3591 -3.3762
  141MOL   H16631246   4.541   2.875   4.598 -0.8333 -2.3899 -0.1582
  141MOL   C16731247   4.629   2.917   4.778  0.3969 -0.8492  0.1761
  141MOL   C16831248   4.612   2.933   4.928 -0.4559  0.2352  0.0872
  141MOL   O16931249   4.506   2.978   4.979 -0.1475 -0.1666  0.3134
  141MOL   C17031250   4.731   2.897   5.017 -0.5097 -0.2393 -0.0407
  141MOL   C17131251   4.732   3.030   4.721 -0.2446 -0.5025  0.6495
  141MOL   H17231252   4.685   2.824   4.767 -1.1053 -2.0446  2.2948
  141MOL   H17331253   4.797   2.984   5.016 -0.4046 -0.2770  2.1825
  141MOL   H17431254   4.686   2.900   5.116 -1.6478  1.8803 -0.5880
  141MOL   H17531255   4.785   2.803   5.018 -2.7677 -1.5724 -0.0720
  141MOL   H17631256   4.725   3.019   4.613 -1.1354  0.9067  0.5414
  141MOL   H17731257   4.834   3.015   4.754 -0.0203  0.5693  0.4708
  141MOL   C17831258   4.693   3.174   4.756  0.1801 -1.2465  0.0280
  141MOL   C17931259   4.575   3.233   4.678 -0.2921  0.0302  0.5876
  141MOL   O18031260   4.592   3.284   4.570  0.1738  0.3651 -0.1766
  141MOL   C18131261   4.440   3.239   4.742 -1.0796 -0.3111 -0.4630
  141MOL   C18231262   4.822   3.270   4.729  0.1126  0.5294 -0.5555
  141MOL   H18331263   4.655   3.183   4.858  0.9456 -0.7076  0.2647
  141MOL   H18431264   4.427   3.158   4.814 -0.2834  0.6429  0.7720
  141MOL   H18531265   4.439   3.329   4.803  1.5943 -1.2226  0.9963
  141MOL   H18631266   4.359   3.232   4.669 -0.2535  0.4107 -1.4498
  141MOL   H18731267   4.783   3.372   4.722  2.0390  1.2566 -0.8707
  141MOL   H18831268   4.862   3.256   4.629 -2.1434  0.5554 -1.4922
  141MOL   C18931269   4.934   3.258   4.830 -0.3900  0.2579 -0.1486
  141MOL   C19031270   4.894   3.274   4.980 -0.3306 -0.4638  0.0144
  141MOL   O19131271   4.926   3.192   5.060 -0.0113  0.2476  0.0281
  141MOL   C19231272   4.799   3.383   5.015 -0.1999 -0.0714  0.2439
  141MOL   C19331273   5.052   3.357   4.797 -0.3326 -0.5037 -0.1844
  141MOL   H19431274   4.978   3.159   4.820 -1.8412 -0.5755  1.4325
  141MOL   H19531275   4.759   3.377   5.116 -0.7036  2.2599  0.2142
  141MOL   H19631276   4.848   3.477   4.989  0.2718 -0.9527 -2.2411
  141MOL   H19731277   4.713   3.373   4.948  1.6441  0.3426 -2.2736
  141MOL   H19831278   5.079   3.402   4.892 -0.1316 -0.8422 -0.0813
  141MOL   H19931279   5.029   3.447   4.740 -0.2772  0.6251  1.5435
  141MOL   C20031280   5.176   3.288   4.740 -0.2616  0.3445 -0.6624
  141MOL   C20131281   5.312   3.370   4.756  0.3019  0.4958 -0.6589
  141MOL   O20231282   5.329   3.470   4.689 -0.1652  0.2381 -0.2729
  141MOL   C20331283   5.410   3.311   4.865 -0.4578  0.3824 -0.5162
  141MOL   C20431284   5.159   3.238   4.598  0.3360 -0.2007  0.5793
  141MOL   H20531285   5.189   3.195   4.795 -1.9757 -0.7718 -2.0736
  141MOL   H20631286   5.405   3.369   4.957  0.0944  2.9203 -2.0225
  141MOL   H20731287   5.386   3.209   4.894  0.0024  1.0331  2.3276
  141MOL   H20831288   5.515   3.310   4.833  0.7922  0.6712  3.3902
  141MOL   H20931289   5.250   3.233   4.538 -0.8986  2.4517 -1.6522
  141MOL   H21031290   5.105   3.313   4.540 -1.8401 -1.8080  0.4581
  141MOL   C21131291   5.095   3.092   4.580 -0.5082 -0.8493  0.1435
  141MOL   C21231292   5.196   2.983   4.628  0.2526 -0.1396  0.3466
  141MOL   O21331293   5.162   2.903   4.714  0.0719  0.1165  0.2805
  141MOL   C21431294   5.335   2.974   4.581 -0.1359  0.6874 -0.0185
  141MOL   C21531295   5.058   3.059   4.435 -0.3646 -0.0603 -0.3777
  141MOL   H21631296   5.006   3.071   4.639 -0.6882 -0.3824  0.0382
  141MOL   H21731297   5.331   2.919   4.487  1.2019  0.2287  0.1871
  141MOL   H21831298   5.375   3.071   4.553 -0.1802  1.6129  2.9079
  141MOL   H21931299   5.397   2.923   4.654 -0.0302 -0.0470 -0.6194
  141MOL   H22031300   4.966   3.110   4.406  0.6048  2.4536  0.7813
  141MOL   H22131301   5.053   2.953   4.411 -0.2888 -0.3635  0.8803
  141MOL   H22231302   5.121   3.099   4.356 -1.5305 -0.0872 -1.3315
  142MOL     C131303   4.777   6.079   2.256  0.0914  0.8419 -0.7602
  142MOL     C231304   4.855   6.170   2.160 -0.5350 -0.0910  0.2050
  142MOL     O331305   4.790   6.234   2.079  0.4897 -0.0962 -0.0694
  142MOL     C431306   5.007   6.178   2.171 -0.0758  0.1963 -0.4018
  142MOL     C531307   4.623   6.079   2.260  0.4880 -0.3243 -0.8274
  142MOL     H631308   4.820   5.984   2.226 -0.0907  0.2179  0.8940
  142MOL     H731309   5.056   6.084   2.200 -0.2397 -0.0581 -0.9493
  142MOL     H831310   5.048   6.203   2.074 -0.9280 -0.9169 -1.0615
  142MOL     H931311   5.027   6.250   2.250  0.4443 -0.9933  0.5781
  142MOL    H1031312   4.589   6.004   2.331 -0.2620  0.1884 -0.6347
  142MOL    H1131313   4.592   6.038   2.163  0.4417  1.7669 -1.7230
  142MOL    H1231314   4.810   6.111   2.356 -0.4645 -0.3631 -0.1843
  142MOL    C1331315   4.554   6.206   2.306  0.1531  0.6512  0.3493
  142MOL    C1431316   4.613   6.258   2.436 -0.1565  0.2038 -0.3509
  142MOL    O1531317   4.625   6.194   2.533 -0.4131 -0.6450  0.7984
  142MOL    C1631318   4.642   6.408   2.431 -0.2881  0.2354 -0.3116
  142MOL    C1731319   4.400   6.200   2.303  0.2615  0.2778  0.2411
  142MOL    H1831320   4.589   6.277   2.231 -1.4696 -1.6461 -2.7049
  142MOL    H1931321   4.708   6.428   2.347 -1.2539 -1.7481 -1.5884
  142MOL    H2031322   4.552   6.468   2.416 -1.9979 -2.3356 -0.7099
  142MOL    H2131323   4.679   6.439   2.529 -3.0233 -1.7284  1.4278
  142MOL    H2231324   4.342   6.276   2.355 -0.4963 -1.0110  1.2902
  142MOL    H2331325   4.368   6.116   2.364  3.9086 -0.0759  1.7729
  142MOL    C2431326   4.331   6.191   2.164 -0.1231 -0.8353  1.3158
  142MOL    C2531327   4.393   6.287   2.057 -0.1227 -0.4105  0.1598
  142MOL    O2631328   4.380   6.409   2.070 -0.6296 -0.0987  0.1242
  142MOL    C2731329   4.473   6.239   1.936  0.0150  0.4886 -0.0353
  142MOL    C2831330   4.176   6.220   2.177 -1.1085  0.5041 -0.5973
  142MOL    H2931331   4.350   6.090   2.129 -0.9340 -0.7987  0.7405
  142MOL    H3031332   4.452   6.132   1.932  0.1851  0.4714 -0.5161
  142MOL    H3131333   4.429   6.278   1.844  0.6798  1.6434  0.1255
  142MOL    H3231334   4.580   6.251   1.947 -0.0583  1.4952 -0.4297
  142MOL    H3331335   4.158   6.317   2.224 -1.5364  0.0408  0.2099
  142MOL    H3431336   4.127   6.150   2.244  1.3668  0.6717  1.4710
  142MOL    C3531337   4.092   6.203   2.052 -0.1160  0.3189 -0.6692
  142MOL    C3631338   3.965   6.291   2.049  0.4136 -0.0910  0.2010
  142MOL    O3731339   3.947   6.370   1.959  0.4142  0.0472 -0.5040
  142MOL    C3831340   3.867   6.276   2.163  0.0123 -0.0363 -0.1937
  142MOL    C3931341   4.089   6.049   2.011  0.4556 -0.8103 -0.0955
  142MOL    H4031342   4.146   6.251   1.970  1.1628 -0.8502 -0.5103
  142MOL    H4131343   3.925   6.272   2.255 -0.9034 -1.0360  0.3518
  142MOL    H4231344   3.795   6.358   2.161 -0.4631 -0.2896  3.1403
  142MOL    H4331345   3.814   6.181   2.157  0.2568 -0.1635 -0.3247
  142MOL    H4431346   4.034   5.983   2.078 -1.7091  0.1675 -0.8339
  142MOL    H4531347   4.191   6.018   2.032 -0.0927 -1.1465  2.1977
  142MOL    C4631348   4.046   6.035   1.859 -0.2408 -0.0782 -0.6758
  142MOL    C4731349   4.005   5.885   1.828  0.1941 -0.6742  0.2785
  142MOL    O4831350   4.060   5.819   1.736  0.1038  0.4851  0.0371
  142MOL    C4931351   3.883   5.829   1.896 -0.1907  0.5457 -0.9857
  142MOL    C5031352   4.162   6.090   1.767 -0.5380  0.6887  0.3072
  142MOL    H5131353   3.958   6.098   1.850  0.6080  1.0045 -1.6741
  142MOL    H5231354   3.787   5.836   1.844 -1.2426  0.2381  0.8941
  142MOL    H5331355   3.895   5.721   1.910 -1.7519  0.1888 -2.3171
  142MOL    H5431356   3.875   5.867   1.998  1.1250 -0.2482 -0.5728
  142MOL    H5531357   4.254   6.032   1.775  1.1828  3.5762  2.0933
  142MOL    H5631358   4.205   6.189   1.779  0.0803  0.5764 -0.8589
  142MOL    C5731359   4.125   6.096   1.612  1.2667 -0.2171  1.2663
  142MOL    C5831360   4.247   6.136   1.534 -0.5704 -0.4357 -0.1843
  142MOL    O5931361   4.270   6.251   1.497 -0.1891  0.1016  0.8309
  142MOL    C6031362   4.357   6.037   1.510 -1.0347  0.3593 -1.0346
  142MOL    C6131363   4.001   6.181   1.571  0.0566  0.2637  0.1279
  142MOL    H6231364   4.105   5.992   1.586  2.6256  0.1119 -1.3053
  142MOL    H6331365   4.435   6.061   1.582 -2.0190 -1.0948  0.5552
  142MOL    H6431366   4.309   5.943   1.539 -0.5228  0.3971 -0.0579
  142MOL    H6531367   4.398   6.043   1.409 -0.1849  2.1801 -0.6004
  142MOL    H6631368   4.028   6.286   1.570  1.1782  0.0074  1.7539
  142MOL    H6731369   3.925   6.178   1.649  0.2960 -0.3027  0.3458
  142MOL    C6831370   3.924   6.127   1.446 -0.3271  0.3211  0.3133
  142MOL    C6931371   3.811   6.223   1.417  0.2793 -0.1542  0.1240
  142MOL    O7031372   3.695   6.199   1.452  0.1156  0.2557 -0.3271
  142MOL    C7131373   3.844   6.352   1.341  0.4116  0.0430 -0.1280
  142MOL    C7231374   3.871   5.980   1.472 -0.0389 -0.4348 -0.5809
  142MOL    H7331375   4.002   6.124   1.370  0.9884 -1.0928  1.6482
  142MOL    H7431376   3.879   6.424   1.414  1.5519 -0.1935 -0.4306
  142MOL    H7531377   3.931   6.341   1.277  1.1194  1.0429  0.6341
  142MOL    H7631378   3.758   6.386   1.283 -0.5954 -1.4297  0.4700
  142MOL    H7731379   3.819   5.984   1.567  0.7440  1.1802 -0.2043
  142MOL    H7831380   3.946   5.903   1.489 -0.9718 -0.9446  1.2975
  142MOL    C7931381   3.788   5.919   1.355 -0.1526  0.0439 -0.2416
  142MOL    C8031382   3.682   5.817   1.407 -0.3163  0.4816  0.2043
  142MOL    O8131383   3.690   5.702   1.376  0.0934  0.0393 -0.1698
  142MOL    C8231384   3.560   5.879   1.482  0.8514 -0.1694  0.2702
  142MOL    C8331385   3.877   5.867   1.239  0.6989  1.1889  0.1797
  142MOL    H8431386   3.725   6.001   1.320 -0.6751  0.6680  2.0975
  142MOL    H8531387   3.569   5.857   1.589  1.3360 -1.4155 -0.0248
  142MOL    H8631388   3.545   5.985   1.460  0.1765 -0.8343 -2.6379
  142MOL    H8731389   3.471   5.834   1.440  1.2676 -0.2660 -0.5099
  142MOL    H8831390   3.923   5.774   1.273 -0.4991 -0.5150 -2.7059
  142MOL    H8931391   3.959   5.936   1.216  1.8095 -0.2171 -0.1435
  142MOL    C9031392   3.798   5.835   1.112  0.0340 -0.2044 -0.4326
  142MOL    C9131393   3.849   5.716   1.038  0.1147  0.3655  0.7784
  142MOL    O9231394   3.927   5.733   0.946  0.0637  0.1714  0.2491
  142MOL    C9331395   3.815   5.573   1.080 -0.1627  0.4588  0.2855
  142MOL    C9431396   3.778   5.963   1.032  0.2262  0.2128  0.1298
  142MOL    H9531397   3.704   5.787   1.138  0.2759 -0.0163  0.8029
  142MOL    H9631398   3.905   5.516   1.060  0.9400  2.1116  0.4592
  142MOL    H9731399   3.780   5.577   1.184  2.5275  0.0860  1.2291
  142MOL    H9831400   3.739   5.525   1.019 -1.2402  1.7142  0.6069
  142MOL    H9931401   3.852   5.962   0.953  0.3336  0.4624  0.2288
  142MOL   H10031402   3.811   6.048   1.091  1.0567  1.8037 -2.5522
  142MOL   C10131403   3.637   5.992   0.960  0.6525 -0.0544  0.1499
  142MOL   C10231404   3.538   6.055   1.064  0.0641  0.8440  0.5330
  142MOL   O10331405   3.470   5.980   1.135  0.0665 -0.1107  0.4739
  142MOL   C10431406   3.563   6.196   1.116  0.0607  0.3131  0.1467
  142MOL   C10531407   3.572   5.867   0.889 -0.0927 -0.2823  0.3304
  142MOL   H10631408   3.656   6.071   0.887 -2.6968 -0.9568 -1.7699
  142MOL   H10731409   3.470   6.237   1.156 -0.1848 -0.8906  0.8253
  142MOL   H10831410   3.638   6.189   1.195  0.7993 -0.6876 -0.6252
  142MOL   H10931411   3.609   6.253   1.036 -1.0337  1.8124  0.5588
  142MOL   H11031412   3.470   5.895   0.865 -0.1587 -0.1672  0.7451
  142MOL   H11131413   3.558   5.789   0.964 -0.2540 -0.8021 -0.2334
  142MOL   C11231414   3.641   5.812   0.759 -0.0003 -0.1923  0.7279
  142MOL   C11331415   3.669   5.922   0.654 -0.8132  0.4257  0.1037
  142MOL   O11431416   3.578   5.998   0.611 -0.8416 -0.2356  0.2986
  142MOL   C11531417   3.820   5.948   0.633  0.8599  0.9858  0.2737
  142MOL   C11631418   3.547   5.707   0.697  0.8000  0.4732  0.3102
  142MOL   H11731419   3.736   5.780   0.802  0.2256  0.1122  0.4606
  142MOL   H11831420   3.879   5.872   0.583 -0.0488  0.3672  0.1239
  142MOL   H11931421   3.815   6.043   0.581 -1.0665  0.3149 -0.8239
  142MOL   H12031422   3.863   5.967   0.732  1.8961 -0.3658  0.0983
  142MOL   H12131423   3.483   5.769   0.634  0.5107  0.3288  0.4590
  142MOL   H12231424   3.482   5.656   0.768  1.8490 -0.9633  0.2687
  142MOL   C12331425   3.612   5.607   0.607 -0.1536  0.0857  0.5626
  142MOL   C12431426   3.511   5.517   0.527  0.6588  0.3959  1.0086
  142MOL   O12531427   3.444   5.426   0.578  0.1068  0.8266  0.2886
  142MOL   C12631428   3.492   5.555   0.382  0.0985 -0.2492 -0.0379
  142MOL   C12731429   3.717   5.521   0.685  0.3724  0.3430 -0.4199
  142MOL   H12831430   3.673   5.664   0.537  2.1381 -2.0256  0.7804
  142MOL   H12931431   3.407   5.498   0.343 -0.4316  0.7694 -0.4056
  142MOL   H13031432   3.457   5.659   0.379 -0.2506 -0.3953 -1.8603
  142MOL   H13131433   3.580   5.549   0.318  0.2773  0.5014  0.1334
  142MOL   H13231434   3.661   5.465   0.761  0.8032  0.6742  0.1463
  142MOL   H13331435   3.791   5.583   0.735  0.2323  1.9881 -2.2075
  142MOL   C13431436   3.788   5.403   0.608 -0.3404  0.7582 -0.4842
  142MOL   C13531437   3.848   5.305   0.711  0.1321 -0.9170  0.1395
  142MOL   O13631438   3.960   5.326   0.761  0.1250 -0.4565 -0.1120
  142MOL   C13731439   3.764   5.183   0.749 -0.0675  0.2649 -0.2856
  142MOL   C13831440   3.894   5.462   0.510 -0.1810 -0.2341 -0.0839
  142MOL   H13931441   3.717   5.337   0.560  0.2907 -0.0620 -0.3098
  142MOL   H14031442   3.739   5.127   0.659 -0.8963 -0.9940  0.7167
  142MOL   H14131443   3.818   5.127   0.825  0.6354  2.1562  0.6367
  142MOL   H14231444   3.665   5.208   0.785  0.3261  0.7892  0.4523
  142MOL   H14331445   3.979   5.497   0.569  0.2506 -0.8187 -0.3595
  142MOL   H14431446   3.847   5.550   0.464 -2.2852 -0.6545  1.1981
  142MOL   C14531447   3.956   5.373   0.404  0.0662 -0.0961  0.3331
  142MOL   C14631448   4.034   5.459   0.295  0.0057  0.1279  0.2182
  142MOL   O14731449   4.004   5.567   0.252  0.4480 -0.3429 -0.0249
  142MOL   C14831450   4.165   5.393   0.231 -0.1421  0.3901  0.3893
  142MOL   C14931451   3.855   5.289   0.326 -0.0968  0.3970  0.2567
  142MOL   H15031452   4.032   5.312   0.453 -0.5119 -0.2675  1.0115
  142MOL   H15131453   4.136   5.361   0.131  3.7507  0.4170 -0.8280
  142MOL   H15231454   4.246   5.466   0.224  1.5135 -1.1764  2.5253
  142MOL   H15331455   4.197   5.307   0.289 -0.4080  0.0033 -0.0332
  142MOL   H15431456   3.859   5.310   0.219  1.9364 -2.5617 -0.3085
  142MOL   H15531457   3.758   5.324   0.361  0.2411  0.7246  0.8529
  142MOL   C15631458   3.867   5.135   0.326  0.4642  0.2858  0.2831
  142MOL   C15731459   3.988   5.099   0.243  0.8704  1.2786  0.0205
  142MOL   O15831460   3.994   5.116   0.122 -0.3349  0.3832 -0.8471
  142MOL   C15931461   4.101   5.031   0.314 -0.4382  0.4083 -0.1203
  142MOL   C16031462   3.743   5.063   0.265 -0.3267 -0.6140  0.0287
  142MOL   H16131463   3.888   5.089   0.423 -0.4023 -0.2709  0.2101
  142MOL   H16231464   4.178   4.997   0.245 -0.7622  1.8360 -1.1958
  142MOL   H16331465   4.135   5.091   0.397 -2.6458  1.7581 -0.1441
  142MOL   H16431466   4.063   4.945   0.369 -1.9216 -0.4843 -2.4445
  142MOL   H16531467   3.726   5.074   0.158 -1.4536  2.0919  0.4492
  142MOL   H16631468   3.658   5.108   0.317  2.1649  0.5085  3.3037
  142MOL   C16731469   3.724   4.910   0.297  0.5620  0.1587 -0.0179
  142MOL   C16831470   3.835   4.817   0.264  0.0300  0.2412 -0.6274
  142MOL   O16931471   3.878   4.739   0.346 -1.1125  0.2113  0.0411
  142MOL   C17031472   3.878   4.779   0.125 -0.0472 -0.0385  0.7020
  142MOL   C17131473   3.588   4.863   0.236  0.1377 -0.0267 -0.0397
  142MOL   H17231474   3.729   4.894   0.405  1.0678  0.9498  0.0860
  142MOL   H17331475   3.859   4.862   0.056 -0.3751  0.5477  1.4753
  142MOL   H17431476   3.983   4.755   0.112  0.4426  1.6541  1.4054
  142MOL   H17531477   3.822   4.692   0.091  0.4594  0.9357 -2.8497
  142MOL   H17631478   3.610   4.797   0.152  0.5385 -0.1243  0.1396
  142MOL   H17731479   3.533   4.946   0.191  1.5792  0.7471 -0.3980
  142MOL   C17831480   3.498   4.786   0.329  0.1584  0.0823  1.1416
  142MOL   C17931481   3.456   4.871   0.452  0.0300  0.3206 -0.4156
  142MOL   O18031482   3.496   4.839   0.568 -0.3783  0.0891 -0.2782
  142MOL   C18131483   3.360   4.995   0.423 -0.3869  0.3800  0.1629
  142MOL   C18231484   3.556   4.646   0.379  0.4250 -0.3820  0.0480
  142MOL   H18331485   3.401   4.781   0.279 -0.4218  1.0837  2.1332
  142MOL   H18431486   3.267   4.957   0.382  0.8166  0.1326 -2.4720
  142MOL   H18531487   3.339   5.043   0.518 -0.3502  0.7756 -0.0256
  142MOL   H18631488   3.406   5.062   0.349  1.0834 -0.5838  0.1789
  142MOL   H18731489   3.619   4.666   0.466  1.8835 -2.4519 -0.4849
  142MOL   H18831490   3.620   4.587   0.313  0.1046 -0.6181 -0.0516
  142MOL   C18931491   3.441   4.543   0.412 -0.0110 -0.8514 -0.1622
  142MOL   C19031492   3.509   4.421   0.481 -0.9495 -0.4401 -0.7739
  142MOL   O19131493   3.535   4.321   0.414  0.4554  0.0029  0.1350
  142MOL   C19231494   3.539   4.428   0.634 -0.3374  0.4924  0.5002
  142MOL   C19331495   3.347   4.506   0.293 -0.8183 -0.1167  0.0733
  142MOL   H19431496   3.376   4.595   0.483 -0.1325 -0.7893 -0.3197
  142MOL   H19531497   3.498   4.518   0.680 -0.2146  1.2481 -0.8507
  142MOL   H19631498   3.490   4.337   0.668  0.1452  0.9577  2.5101
  142MOL   H19731499   3.645   4.420   0.659 -0.8053 -1.5441  1.9461
  142MOL   H19831500   3.286   4.593   0.267 -2.7702 -1.4708 -0.0076
  142MOL   H19931501   3.276   4.428   0.321 -0.8561 -0.4013 -0.8264
  142MOL   C20031502   3.414   4.445   0.167 -0.2732 -0.1862 -0.2269
  142MOL   C20131503   3.411   4.542   0.046  0.3668 -0.3093 -0.2391
  142MOL   O20231504   3.303   4.572   7.831 -0.5211  0.0725 -0.0396
  142MOL   C20331505   3.548   4.594   7.833  0.5020  0.2309 -0.1773
  142MOL   C20431506   3.359   4.308   0.127  0.2229 -0.4206 -0.1358
  142MOL   H20531507   3.514   4.422   0.203 -0.9015 -1.7698  0.5224
  142MOL   H20631508   3.548   4.699   7.807  0.3074 -0.3147 -2.5034
  142MOL   H20731509   3.622   4.585   0.070 -0.7936  1.1954  1.1799
  142MOL   H20831510   3.582   4.525   7.756 -0.4738  1.1345 -1.4256
  142MOL   H20931511   3.264   4.320   0.074  0.4539  0.5404 -0.3463
  142MOL   H21031512   3.337   4.247   0.215 -0.4994 -1.6405 -1.1376
  142MOL   C21131513   3.452   4.214   0.036  0.5039  0.5142  0.5425
  142MOL   C21231514   3.394   4.079   7.827 -0.0065 -0.8020 -0.1516
  142MOL   O21331515   3.277   4.047   0.004 -0.2546  0.2197 -0.4585
  142MOL   C21431516   3.476   3.983   7.756  0.1354  0.1352  0.2353
  142MOL   C21531517   3.580   4.174   0.116  0.3941 -0.5476  0.0097
  142MOL   H21631518   3.458   4.274   7.787 -0.1519 -1.3647 -0.7785
  142MOL   H21731519   3.559   3.951   7.819  0.8683  0.9038 -0.3174
  142MOL   H21831520   3.419   3.895   7.728 -1.9327  1.7536 -0.7672
  142MOL   H21931521   3.514   4.030   7.665  0.9547  0.5326  0.7767
  142MOL   H22031522   3.559   4.084   0.174 -0.6603  0.4308  1.1688
  142MOL   H22131523   3.612   4.251   0.187  2.5957  0.1886 -1.7340
  142MOL   H22231524   3.660   4.162   0.043  1.1749  1.5895  0.4711
  143MOL     C131525   6.189   5.472   2.760 -0.4835  0.3051  0.1433
  143MOL     C231526   6.284   5.359   2.713  0.0552 -0.4974  0.7020
  143MOL     O331527   6.362   5.383   2.624  0.1655  0.5978  0.3522
  143MOL     C431528   6.266   5.220   2.777  0.1350  0.0196  0.8595
  143MOL     C531529   6.218   5.615   2.709  0.3800 -0.3694  0.2863
  143MOL     H631530   6.089   5.436   2.736 -0.0193 -0.7184 -0.2700
  143MOL     H731531   6.244   5.139   2.708  0.1917  0.8210 -0.1097
  143MOL     H831532   6.356   5.217   2.838 -1.1958  0.7330  2.8820
  143MOL     H931533   6.182   5.216   2.845 -0.6844  2.0999 -0.0068
  143MOL    H1031534   6.138   5.688   2.723  0.5510 -0.2903  0.9044
  143MOL    H1131535   6.231   5.596   2.603  2.9991  0.9460  0.3313
  143MOL    H1231536   6.184   5.484   2.868 -0.3573 -0.0118  0.1834
  143MOL    C1331537   6.357   5.670   2.761 -0.5933 -0.2829 -0.4536
  143MOL    C1431538   6.336   5.741   2.899 -0.0716 -0.0256 -0.2439
  143MOL    O1531539   6.256   5.830   2.921  0.0325  0.3482 -0.2104
  143MOL    C1631540   6.414   5.678   3.016  0.1462 -0.3809  0.2749
  143MOL    C1731541   6.431   5.767   2.665 -0.4818  0.1411  0.2494
  143MOL    H1831542   6.429   5.588   2.768 -0.1551  0.4098  4.0958
  143MOL    H1931543   6.491   5.608   2.984 -0.4678 -1.1528  0.4417
  143MOL    H2031544   6.453   5.758   3.079  0.9693 -0.0149 -0.6861
  143MOL    H2131545   6.326   5.638   3.067 -1.6720  3.0211 -0.0708
  143MOL    H2231546   6.376   5.861   2.655  0.5131  0.3539 -3.7890
  143MOL    H2331547   6.413   5.715   2.571 -1.1701 -1.5247  1.2890
  143MOL    C2431548   6.578   5.789   2.680  0.3329 -0.9567  0.3857
  143MOL    C2531549   6.658   5.663   2.658  0.0802 -0.0596 -0.0262
  143MOL    O2631550   6.721   5.606   2.748  0.0886  0.4772 -0.7929
  143MOL    C2731551   6.662   5.613   2.519 -0.6928 -0.4895 -0.3228
  143MOL    C2831552   6.622   5.882   2.794  0.8788 -0.1540 -0.5305
  143MOL    H2931553   6.612   5.849   2.596 -1.1605 -0.9103 -0.1905
  143MOL    H3031554   6.636   5.507   2.530 -2.1363 -0.1451 -0.3135
  143MOL    H3131555   6.588   5.662   2.456 -1.2855 -0.8264  0.1005
  143MOL    H3231556   6.759   5.615   2.469 -1.5300  0.5692 -1.9275
  143MOL    H3331557   6.677   5.811   2.857  0.7534 -0.6891 -1.0162
  143MOL    H3431558   6.543   5.924   2.856  0.6663 -2.3670  0.7720
  143MOL    C3531559   6.709   6.006   2.752 -0.6528  0.2538  0.3529
  143MOL    C3631560   6.801   6.053   2.857  0.0878 -0.0464  0.5281
  143MOL    O3731561   6.778   6.024   2.972 -0.4299  0.5472 -0.2431
  143MOL    C3831562   6.929   6.121   2.816  0.1538 -0.3714 -0.2579
  143MOL    C3931563   6.609   6.108   2.694  0.0183  0.0490 -0.1188
  143MOL    H4031564   6.762   5.979   2.661 -1.1715  0.9961 -0.1692
  143MOL    H4131565   6.910   6.218   2.771  1.3520 -1.0272 -2.2293
  143MOL    H4231566   6.999   6.135   2.898 -1.4540  2.3319  0.7344
  143MOL    H4331567   6.979   6.060   2.741 -1.4487 -0.9371 -0.8895
  143MOL    H4431568   6.526   6.129   2.760  0.2188  1.7500 -0.3788
  143MOL    H4531569   6.557   6.058   2.613 -0.5075  1.6166 -0.7677
  143MOL    C4631570   6.664   6.240   2.633 -0.2079  0.7283 -0.1831
  143MOL    C4731571   6.548   6.329   2.587 -0.3431  0.0945  0.0368
  143MOL    O4831572   6.527   6.355   2.471 -0.0543 -0.4753 -0.4992
  143MOL    C4931573   6.468   6.401   2.702  0.0704 -0.2066 -0.7548
  143MOL    C5031574   6.765   6.210   2.513  0.8965  0.4423  0.4069
  143MOL    H5131575   6.714   6.303   2.707  2.6081 -0.1275 -1.2895
  143MOL    H5231576   6.374   6.447   2.670 -0.3592  1.1629  2.3627
  143MOL    H5331577   6.457   6.340   2.792  1.5481  0.4088 -0.1398
  143MOL    H5431578   6.524   6.484   2.744 -0.3780 -0.8181  1.0655
  143MOL    H5531579   6.855   6.155   2.539  0.7385 -0.3982 -0.7588
  143MOL    H5631580   6.810   6.305   2.484  0.4655  0.8975  1.2311
  143MOL    C5731581   6.713   6.141   2.381  0.2036 -0.3166 -1.7077
  143MOL    C5831582   6.689   5.982   2.375 -0.0720 -0.3208  0.2142
  143MOL    O5931583   6.774   5.902   2.417  0.7120  0.1679 -0.6264
  143MOL    C6031584   6.570   5.933   2.300 -0.4493  0.5318 -0.3912
  143MOL    C6131585   6.816   6.186   2.270  0.9930 -0.3526  0.3641
  143MOL    H6231586   6.615   6.180   2.356 -0.6308 -1.1430  0.1998
  143MOL    H6331587   6.591   5.917   2.194 -0.3754 -1.0630 -0.1390
  143MOL    H6431588   6.532   5.843   2.347 -0.7631  1.7944  1.8450
  143MOL    H6531589   6.482   5.996   2.307 -0.7646  0.2597 -1.7636
  143MOL    H6631590   6.860   6.097   2.226  0.3005 -0.5855  0.1427
  143MOL    H6731591   6.897   6.237   2.322  0.6186  0.4643  0.1539
  143MOL    C6831592   6.755   6.271   2.154 -0.0036  0.1158 -0.1844
  143MOL    C6931593   6.677   6.188   2.052  0.0951 -0.7804 -0.3575
  143MOL    O7031594   6.738   6.109   1.981  0.4717  0.2150 -0.1579
  143MOL    C7131595   6.532   6.193   2.051  0.2766  0.3376  0.4488
  143MOL    C7231596   6.864   6.350   2.075  0.2247  0.3599 -0.1457
  143MOL    H7331597   6.692   6.348   2.199  0.2817 -0.7615  1.7826
  143MOL    H7431598   6.483   6.169   2.145  0.4005 -0.2959  0.3552
  143MOL    H7531599   6.502   6.295   2.027  1.1681  0.3321 -0.7608
  143MOL    H7631600   6.498   6.121   1.976 -1.5610  1.0913  0.5432
  143MOL    H7731601   6.814   6.401   1.993  0.2409 -1.5751 -1.3632
  143MOL    H7831602   6.944   6.279   2.054  2.7651  3.0725 -0.0160
  143MOL    C7931603   6.909   6.471   2.144  0.9862 -0.6461  0.7437
  143MOL    C8031604   6.813   6.592   2.145 -0.4228 -0.1289  0.5443
  143MOL    O8131605   6.837   6.695   2.081  0.0255 -0.1192 -0.8307
  143MOL    C8231606   6.700   6.593   2.248  0.4281 -0.2478  0.2423
  143MOL    C8331607   7.054   6.508   2.097  0.0832  0.3355  0.6253
  143MOL    H8431608   6.908   6.448   2.251 -0.2728 -0.5693  0.7505
  143MOL    H8531609   6.716   6.514   2.322 -2.0350 -1.8680 -0.9014
  143MOL    H8631610   6.695   6.685   2.305 -1.1970 -1.0765  1.5011
  143MOL    H8731611   6.598   6.583   2.211  0.4846 -2.9273  0.6754
  143MOL    H8831612   7.038   6.559   2.002 -1.5474 -1.8909 -0.3516
  143MOL    H8931613   7.123   6.429   2.068 -1.1763 -0.1270 -1.2320
  143MOL    C9031614   7.138   6.611   2.184 -0.4861 -0.6011  0.2890
  143MOL    C9131615   7.210   6.707   2.085 -0.1635  0.5785 -0.1523
  143MOL    O9231616   7.331   6.696   2.055 -0.7265 -0.0146  0.2703
  143MOL    C9331617   7.125   6.811   2.022  0.4427 -0.1951 -0.0160
  143MOL    C9431618   7.237   6.536   2.285 -0.3857  0.5021 -0.5352
  143MOL    H9531619   7.064   6.676   2.231 -0.0267  0.3254 -0.2503
  143MOL    H9631620   7.048   6.777   1.953  1.8442 -0.1698 -1.6389
  143MOL    H9731621   7.074   6.875   2.093 -0.0965 -2.8328  2.0745
  143MOL    H9831622   7.185   6.882   1.966  0.3336  1.1327  1.5316
  143MOL    H9931623   7.305   6.600   2.342 -1.1477  1.2481 -0.4544
  143MOL   H10031624   7.308   6.475   2.230 -0.1098  0.4652 -0.1380
  143MOL   C10131625   7.168   6.454   2.395 -0.0354  0.4447 -0.3586
  143MOL   C10231626   7.070   6.545   2.475  0.1199  0.6560  0.8886
  143MOL   O10331627   6.946   6.529   2.469 -0.1713 -0.5480  0.5782
  143MOL   C10431628   7.142   6.642   2.563 -0.2008 -0.4657  0.6277
  143MOL   C10531629   7.274   6.383   2.490 -0.0903  0.3515  0.0239
  143MOL   H10631630   7.103   6.379   2.349 -0.9709  1.0370 -0.0241
  143MOL   H10731631   7.243   6.658   2.526 -0.5358 -0.1442 -0.1664
  143MOL   H10831632   7.089   6.737   2.563  0.8274  0.1094  1.0124
  143MOL   H10931633   7.161   6.606   2.664 -0.9230 -2.1739  0.1868
  143MOL   H11031634   7.222   6.362   2.583 -0.2512  2.2228  0.3865
  143MOL   H11131635   7.357   6.451   2.511  0.3078 -0.4603  1.1012
  143MOL   C11231636   7.325   6.246   2.437 -0.3602  0.7432 -0.2052
  143MOL   C11331637   7.207   6.144   2.449 -0.6159 -0.4027 -0.2940
  143MOL   O11431638   7.114   6.156   2.528  0.3693  0.8099 -0.4978
  143MOL   C11531639   7.219   6.032   2.348  0.4723 -0.3798  0.9732
  143MOL   C11631640   7.453   6.195   2.511  0.6681  0.2181  0.2172
  143MOL   H11731641   7.341   6.251   2.330  0.9267 -3.1877 -0.2825
  143MOL   H11831642   7.135   6.044   2.280  0.0764 -1.5439  1.2433
  143MOL   H11931643   7.312   6.033   2.291 -0.8964  0.7797 -1.2907
  143MOL   H12031644   7.212   5.946   2.414  0.4287  0.5759  2.2269
  143MOL   H12131645   7.474   6.092   2.481  0.5927  0.3362 -0.2545
  143MOL   H12231646   7.429   6.197   2.617  0.3854  0.9155  0.1449
  143MOL   C12331647   7.576   6.291   2.492  0.9010 -0.3796 -0.3391
  143MOL   C12431648   7.622   6.264   2.342 -0.2804  0.0151  0.2198
  143MOL   O12531649   7.652   6.152   2.305  0.6401 -0.2192 -0.7429
  143MOL   C12631650   7.644   6.379   2.245 -0.5977  0.9160  0.3182
  143MOL   C12731651   7.675   6.249   2.598  0.1020 -0.1050 -0.1569
  143MOL   H12831652   7.550   6.396   2.506  1.2154 -0.3587  0.1044
  143MOL   H12931653   7.743   6.408   2.280 -0.3571 -1.2462  1.5406
  143MOL   H13031654   7.641   6.361   2.138 -2.5150  2.3417  0.1046
  143MOL   H13131655   7.584   6.470   2.250  1.4381  2.2876  0.1705
  143MOL   H13231656   7.694   6.143   2.585  3.1123  0.2254  1.2117
  143MOL   H13331657   7.616   6.261   2.689 -0.5609 -1.3818 -0.4020
  143MOL   C13431658   7.810   6.330   2.611 -0.3455 -0.5744 -0.2291
  143MOL   C13531659   0.091   6.246   2.656  0.9616  0.4075 -0.2662
  143MOL   O13631660   0.114   6.216   2.777  0.0945 -0.2929  0.0663
  143MOL   C13731661   0.186   6.193   2.543  0.4438  0.5775  0.8904
  143MOL   C13831662   7.792   6.456   2.712  0.0833 -0.1686  0.3685
  143MOL   H13931663   7.838   6.362   2.511 -0.7203  1.4942  0.3012
  143MOL   H14031664   0.253   6.116   2.580  0.8303  1.0534  1.1758
  143MOL   H14131665   0.129   6.150   2.460  0.2103  1.0940  0.7775
  143MOL   H14231666   0.240   6.276   2.498 -0.1728 -0.2049 -1.4016
  143MOL   H14331667   0.031   6.529   2.704  1.0068 -1.3653 -1.4997
  143MOL   H14431668   7.807   6.406   2.808 -0.6988  1.1008  1.1604
  143MOL   C14531669   7.672   6.544   2.717  0.3829 -0.2644  0.2938
  143MOL   C14631670   7.646   6.622   2.582 -0.0300 -0.3390  0.3324
  143MOL   O14731671   7.740   6.638   2.497  0.0315 -0.4087 -0.2312
  143MOL   C14831672   7.512   6.687   2.572  0.3946 -0.0838 -0.0871
  143MOL   C14931673   7.677   6.627   2.843  0.2968  0.5059  0.6726
  143MOL   H15031674   7.597   6.469   2.740  0.9428 -0.5728  1.1311
  143MOL   H15131675   7.512   6.788   2.611 -1.4935 -0.6518  1.4586
  143MOL   H15231676   7.481   6.686   2.468 -0.4832 -0.9827  0.1684
  143MOL   H15331677   7.442   6.627   2.631  0.3539 -1.7439 -1.7779
  143MOL   H15431678   7.736   6.717   2.826  0.9699  0.3580  2.1624
  143MOL   H15531679   7.739   6.580   2.920  3.0328 -0.2926 -1.9148
  143MOL   C15631680   7.541   6.663   2.903  0.1647  0.1189  0.0260
  143MOL   C15731681   7.536   6.811   2.956 -0.5484  0.8734 -0.2466
  143MOL   O15831682   7.444   6.880   2.929  0.4084  0.0737 -0.1069
  143MOL   C15931683   7.651   6.860   3.045 -0.1539 -0.4847 -0.0186
  143MOL   C16031684   7.512   6.573   3.025 -0.0849  0.0613 -0.4928
  143MOL   H16131685   7.462   6.655   2.828  1.1614  0.1087 -1.0487
  143MOL   H16231686   7.752   6.823   3.026 -0.3030 -1.7864  1.6393
  143MOL   H16331687   7.665   6.963   3.012 -1.4436 -0.4445 -0.4606
  143MOL   H16431688   7.623   6.868   3.150 -1.4501  2.1009 -0.5293
  143MOL   H16531689   7.506   6.631   3.117 -0.4275 -0.9758  0.1525
  143MOL   H16631690   7.591   6.503   3.052 -0.5770  0.2437  1.4730
  143MOL   C16731691   7.379   6.495   3.022  1.1816  0.0238  0.6172
  143MOL   C16831692   7.381   6.379   2.917 -0.2974  0.7531  0.3004
  143MOL   O16931693   7.361   6.403   2.797 -0.0722 -0.0742 -0.3362
  143MOL   C17031694   7.370   6.236   2.969 -0.2217 -0.2170  0.1037
  143MOL   C17131695   7.261   6.590   2.999  0.7986  0.9100 -0.0605
  143MOL   H17231696   7.373   6.452   3.123  2.3419 -0.3098  0.5548
  143MOL   H17331697   7.275   6.216   3.020  0.8484 -0.2220  2.1400
  143MOL   H17431698   7.377   6.173   2.881  1.0476  1.2808 -0.8870
  143MOL   H17531699   7.445   6.201   3.040  1.7791  0.8104 -1.4660
  143MOL   H17631700   7.267   6.628   2.897 -1.5373  1.0240 -0.1820
  143MOL   H17731701   7.267   6.680   3.060  0.0984  0.0838  1.2414
  143MOL   C17831702   7.127   6.516   3.018  0.0147 -0.0303  0.2916
  143MOL   C17931703   7.010   6.585   2.952 -0.4622 -0.5116  0.0020
  143MOL   O18031704   7.009   6.705   2.916 -0.1949 -0.3386 -0.1431
  143MOL   C18131705   6.886   6.502   2.922  0.3928  0.0053 -0.0871
  143MOL   C18231706   7.096   6.479   3.170 -0.6307  1.0439  0.0184
  143MOL   H18331707   7.136   6.418   2.971 -2.0439 -1.1916  2.2375
  143MOL   H18431708   6.795   6.537   2.971  1.1157  0.7703  0.7374
  143MOL   H18531709   6.859   6.509   2.817 -0.1604  1.2801  0.1355
  143MOL   H18631710   6.895   6.394   2.934 -1.4015 -0.0813  0.6374
  143MOL   H18731711   7.160   6.394   3.193 -2.3715 -0.3552 -0.1454
  143MOL   H18831712   6.994   6.442   3.182 -0.4270  0.1213 -1.0463
  143MOL   C18931713   7.120   6.594   3.277  0.5861  0.0363  0.4912
  143MOL   C19031714   7.095   6.555   3.419 -0.0236  0.4323  0.1019
  143MOL   O19131715   6.999   6.490   3.449 -0.6288 -0.3898 -0.2925
  143MOL   C19231716   7.194   6.591   3.527 -0.6055 -0.4161 -0.5551
  143MOL   C19331717   7.060   6.733   3.238  0.7024 -0.2762  0.2195
  143MOL   H19431718   7.227   6.609   3.261  0.3948 -0.1032 -1.0206
  143MOL   H19531719   7.274   6.660   3.499 -0.9720  0.4229  0.4329
  143MOL   H19631720   7.145   6.634   3.614  0.2498 -1.1403  0.2982
  143MOL   H19731721   7.235   6.498   3.567 -2.3809 -0.6210  0.8435
  143MOL   H19831722   6.954   6.709   3.234  0.3163  1.3965 -0.0161
  143MOL   H19931723   7.091   6.759   3.136  1.6350 -1.5726  0.1499
  143MOL   C20031724   7.098   6.853   3.322  0.1369 -0.1370 -0.4974
  143MOL   C20131725   6.993   6.961   3.285 -0.2760  0.3099 -0.0944
  143MOL   O20231726   7.025   7.036   3.195 -0.7795 -0.1844  0.0075
  143MOL   C20331727   6.868   6.982   3.365 -0.0830  0.6206 -0.5477
  143MOL   C20431728   7.245   6.890   3.292  0.1759  0.4043 -0.4601
  143MOL   H20531729   7.097   6.824   3.428  0.6717 -1.1765 -0.7672
  143MOL   H20631730   6.817   6.886   3.376  0.8067  0.2634  0.5160
  143MOL   H20731731   6.895   7.038   3.454  2.6522 -1.7387  0.1653
  143MOL   H20831732   6.797   7.040   3.305 -0.9726  1.4766  1.3024
  143MOL   H20931733   7.260   6.897   3.184 -1.8675  1.9076 -0.6681
  143MOL   H21031734   7.308   6.803   3.312  1.3843  1.3594 -0.0599
  143MOL   C21131735   7.305   7.015   3.361  0.1874  0.0825 -0.7981
  143MOL   C21231736   7.443   7.049   3.316  0.9309  0.2057  0.0668
  143MOL   O21331737   7.539   6.974   3.322 -0.5783 -0.2029  0.3616
  143MOL   C21431738   7.467   7.195   3.272  0.9602  0.6471  0.5392
  143MOL   C21531739   7.301   7.004   3.517 -0.2667 -0.3668 -0.2656
  143MOL   H21631740   7.243   7.101   3.333  0.8648  0.5968 -0.7449
  143MOL   H21731741   7.432   7.264   3.349  2.6339  1.2649  0.7666
  143MOL   H21831742   7.576   7.198   3.269  0.9570  1.3398  1.0198
  143MOL   H21931743   7.410   7.211   3.180  1.8709 -4.1063 -1.0166
  143MOL   H22031744   7.206   6.966   3.553 -1.6221  2.4135 -0.6961
  143MOL   H22131745   7.306   7.103   3.563 -1.5072 -0.9172  1.0670
  143MOL   H22231746   7.389   6.959   3.562 -0.2471 -0.4451 -0.3805
  144MOL     C131747   2.118   4.225   4.355  1.3167 -0.0039  0.6403
  144MOL     C231748   2.165   4.356   4.407 -0.0621  0.4792  0.1429
  144MOL     O331749   2.089   4.450   4.438 -0.0410  0.5398  0.0534
  144MOL     C431750   2.308   4.363   4.451 -0.2851  0.2985 -0.7116
  144MOL     C531751   1.969   4.215   4.317  0.8359  0.1511 -0.8974
  144MOL     H631752   2.168   4.197   4.263  1.0378  0.6926  0.2772
  144MOL     H731753   2.316   4.351   4.559 -0.8207  0.7060 -0.6283
  144MOL     H831754   2.353   4.276   4.403 -1.1763 -0.5734  0.0138
  144MOL     H931755   2.358   4.454   4.416 -1.9801  0.8776 -1.6718
  144MOL    H1031756   1.962   4.117   4.270 -2.3604  1.4664 -3.3523
  144MOL    H1131757   1.948   4.295   4.248  0.6540  1.3969  0.5742
  144MOL    H1231758   2.151   4.157   4.434 -2.1065 -1.9512  0.4736
  144MOL    C1331759   1.863   4.224   4.434  1.0597  0.8252 -0.1706
  144MOL    C1431760   1.906   4.129   4.554 -0.0940 -0.2360  1.0259
  144MOL    O1531761   1.885   4.011   4.558 -0.1808  0.0414  0.2051
  144MOL    C1631762   1.987   4.187   4.666 -0.1415 -0.2196  0.0934
  144MOL    C1731763   1.722   4.206   4.375 -0.3183 -0.4320  0.3634
  144MOL    H1831764   1.862   4.326   4.474 -1.8153  0.3839  0.9503
  144MOL    H1931765   1.962   4.139   4.761 -3.5352 -0.3975 -0.8472
  144MOL    H2031766   2.091   4.159   4.646 -0.5999 -1.6224 -0.3080
  144MOL    H2131767   1.976   4.296   4.671  2.2937  0.0122  1.8634
  144MOL    H2231768   1.704   4.102   4.347 -0.3582 -1.6285  4.4786
  144MOL    H2331769   1.725   4.263   4.282  0.6388  2.8854  2.3688
  144MOL    C2431770   1.595   4.251   4.463 -0.3434 -0.5013 -0.6163
  144MOL    C2531771   1.470   4.170   4.434 -0.4010  0.5465  0.1233
  144MOL    O2631772   1.452   4.126   4.321 -0.4154  0.3237 -0.6516
  144MOL    C2731773   1.354   4.173   4.534  0.5142 -0.3940 -0.2081
  144MOL    C2831774   1.578   4.408   4.469  0.7330  0.0311 -0.2371
  144MOL    H2931775   1.610   4.228   4.569 -3.3242 -2.3143 -0.5385
  144MOL    H3031776   1.279   4.242   4.495  1.9096  0.3810 -1.6090
  144MOL    H3131777   1.320   4.069   4.536 -0.8087  0.0375  0.5335
  144MOL    H3231778   1.390   4.219   4.625  1.5599  1.2773 -1.4301
  144MOL    H3331779   1.678   4.436   4.502  0.1373 -0.8369  2.4563
  144MOL    H3431780   1.515   4.420   4.558  3.8375  1.0934  1.9129
  144MOL    C3531781   1.516   4.484   4.345  0.8460  0.1435 -0.1511
  144MOL    C3631782   1.609   4.503   4.224 -0.0179 -0.3670  0.6224
  144MOL    O3731783   1.556   4.473   4.115 -0.1685  0.2700 -0.5151
  144MOL    C3831784   1.746   4.573   4.228  0.1448 -0.0501 -0.2782
  144MOL    C3931785   1.440   4.614   4.390 -0.7632  0.6500 -0.4232
  144MOL    H4031786   1.439   4.414   4.311  1.6950 -0.0165 -1.7724
  144MOL    H4131787   1.749   4.653   4.154 -0.2797  2.5216  2.4066
  144MOL    H4231788   1.773   4.625   4.320  1.6305  0.1882 -0.8309
  144MOL    H4331789   1.815   4.492   4.206 -1.3153 -0.8285 -2.0868
  144MOL    H4431790   1.514   4.693   4.391 -2.0749  1.9248 -1.1791
  144MOL    H4531791   1.399   4.591   4.488  3.0122 -0.7022  0.9155
  144MOL    C4631792   1.334   4.657   4.280  0.1814 -0.6936 -0.2587
  144MOL    C4731793   1.341   4.808   4.233 -0.3925  0.3606 -0.2616
  144MOL    O4831794   1.299   4.906   4.300 -0.7953 -0.1707 -0.0224
  144MOL    C4931795   1.390   4.825   4.093 -0.2411  0.2745 -0.1776
  144MOL    C5031796   1.194   4.620   4.329 -0.2660 -0.4583  0.6922
  144MOL    H5131797   1.344   4.602   4.187  2.1820  0.5613 -0.8364
  144MOL    H5231798   1.331   4.760   4.029  0.0340 -0.3074  0.1539
  144MOL    H5331799   1.372   4.930   4.070 -0.6776  1.3278  4.4826
  144MOL    H5431800   1.494   4.796   4.086 -0.1682  0.3604  0.4957
  144MOL    H5531801   1.168   4.695   4.403  0.8270 -0.8684  1.5154
  144MOL    H5631802   1.186   4.523   4.379  1.9104 -0.0117  1.9770
  144MOL    C5731803   1.083   4.619   4.224 -0.4328  0.3225 -0.9148
  144MOL    C5831804   0.946   4.651   4.287  0.7160 -0.3304  0.1358
  144MOL    O5931805   0.889   4.579   4.373 -0.3920 -0.3677 -0.7126
  144MOL    C6031806   0.877   4.785   4.256 -0.3631 -0.2160  0.8287
  144MOL    C6131807   1.078   4.474   4.155 -0.0690  0.0790 -0.2284
  144MOL    H6231808   1.110   4.695   4.150  3.0376 -0.9466 -1.0501
  144MOL    H6331809   0.872   4.808   4.149 -1.5539  1.8335  1.3031
  144MOL    H6431810   0.782   4.794   4.308 -1.2758 -0.4801 -0.7495
  144MOL    H6531811   0.940   4.870   4.282  0.4314 -0.3500 -0.6110
  144MOL    H6631812   1.006   4.401   4.194 -0.3969  0.9433  0.7911
  144MOL    H6731813   1.174   4.429   4.177  0.3416 -0.1615 -2.4047
  144MOL    C6831814   1.051   4.475   4.002 -0.2542 -0.4029  0.4554
  144MOL    C6931815   0.899   4.471   3.954  0.4430 -0.2614 -1.0696
  144MOL    O7031816   0.810   4.443   4.032 -0.6249 -0.2660  0.0367
  144MOL    C7131817   0.866   4.498   3.812 -0.3343  0.3293 -0.7847
  144MOL    C7231818   1.128   4.356   3.935  0.1329  0.1481 -0.3307
  144MOL    H7331819   1.088   4.572   3.968  2.4681 -0.3491  3.2911
  144MOL    H7431820   0.854   4.405   3.756 -0.6298  0.3917 -0.8243
  144MOL    H7531821   0.789   4.575   3.807 -0.5827  0.0866 -0.7118
  144MOL    H7631822   0.953   4.549   3.770  0.8145 -0.9726 -0.0265
  144MOL    H7731823   1.084   4.325   3.840 -3.7243  1.2765  0.9625
  144MOL    H7831824   1.123   4.271   4.003 -1.4285  0.3966 -0.1174
  144MOL    C7931825   1.280   4.375   3.897  0.4693 -0.1540 -0.1800
  144MOL    C8031826   1.295   4.497   3.796 -0.0377 -0.3463 -0.3457
  144MOL    O8131827   1.203   4.537   3.727 -0.3223 -0.5015  0.5966
  144MOL    C8231828   1.441   4.548   3.778  0.0363 -0.6703  0.0616
  144MOL    C8331829   1.352   4.246   3.847 -0.1911  0.3222 -0.4382
  144MOL    H8431830   1.317   4.401   3.996 -1.3246  2.0388 -0.0320
  144MOL    H8531831   1.483   4.550   3.677 -0.5813  0.1981 -0.1873
  144MOL    H8631832   1.430   4.650   3.814 -0.9805 -1.0357  0.8356
  144MOL    H8731833   1.509   4.503   3.850  0.5020 -0.7985 -0.4593
  144MOL    H8831834   1.450   4.269   3.807  0.3831  0.6580  1.1268
  144MOL    H8931835   1.289   4.198   3.772  0.7387 -0.3573 -0.7885
  144MOL    C9031836   1.379   4.136   3.951 -0.2210 -0.1756 -0.0728
  144MOL    C9131837   1.511   4.071   3.928 -0.0599  0.2212  0.9727
  144MOL    O9231838   1.523   3.976   3.850 -0.7439  0.1921  0.0280
  144MOL    C9331839   1.631   4.132   4.002  0.2245  0.0583  0.2573
  144MOL    C9431840   1.259   4.032   3.951 -0.1660  0.4802  0.2231
  144MOL    H9531841   1.393   4.180   4.050 -1.8407 -0.9477  0.5269
  144MOL    H9631842   1.695   4.050   4.033 -0.6991  0.3375  3.0800
  144MOL    H9731843   1.685   4.186   3.925  2.3820  1.0627  2.4258
  144MOL    H9831844   1.606   4.209   4.076  0.8284 -0.8250  1.3912
  144MOL    H9931845   1.281   3.946   3.888 -0.0057 -0.4121  1.4808
  144MOL   H10031846   1.164   4.057   3.904 -1.0398 -0.7074  1.3427
  144MOL   C10131847   1.220   3.968   4.085 -0.6439  0.3949 -0.1366
  144MOL   C10231848   1.299   3.842   4.119  0.2830  0.6035 -0.5644
  144MOL   O10331849   1.283   3.737   4.053  0.0227  0.0467  0.0818
  144MOL   C10431850   1.394   3.851   4.233  0.6526  0.0798  0.0660
  144MOL   C10531851   1.064   3.953   4.085 -0.0401 -0.3772 -0.2694
  144MOL   H10631852   1.232   4.044   4.162  0.4703  2.2935 -2.1175
  144MOL   H10731853   1.344   3.872   4.327 -2.6357 -1.5917 -1.2374
  144MOL   H10831854   1.435   3.756   4.267 -0.5892 -0.6523 -0.4541
  144MOL   H10931855   1.472   3.926   4.218 -0.6982  1.3896 -0.5999
  144MOL   H11031856   1.039   3.874   4.015 -1.7582 -0.8089  0.8036
  144MOL   H11131857   1.026   4.050   4.053  0.3033 -0.0441  0.3331
  144MOL   C11231858   0.986   3.918   4.216  0.0838 -0.2494 -0.1080
  144MOL   C11331859   1.019   4.008   4.331 -0.4683 -0.4043  0.1653
  144MOL   O11431860   1.134   4.013   4.372  0.1509 -0.4197 -0.2194
  144MOL   C11531861   0.894   4.059   4.402  0.3173 -0.7268 -0.2805
  144MOL   C11631862   0.990   3.766   4.255  0.0268 -0.2166 -0.1033
  144MOL   H11731863   0.884   3.942   4.187  0.8609  0.7880 -2.0670
  144MOL   H11831864   0.889   4.164   4.372  0.3645 -0.2987  1.1621
  144MOL   H11931865   0.802   4.010   4.370  0.0994 -0.2274 -0.4356
  144MOL   H12031866   0.910   4.063   4.509 -2.1789 -1.8108  0.1657
  144MOL   H12131867   0.996   3.755   4.364 -0.8389 -1.8767 -0.2016
  144MOL   H12231868   1.075   3.723   4.202 -0.1704  0.6660 -1.1458
  144MOL   C12331869   0.868   3.678   4.211  0.2849  0.1667  0.4270
  144MOL   C12431870   0.848   3.670   4.062 -0.4773  0.0835  0.0003
  144MOL   O12531871   0.752   3.724   4.005  0.4397  0.1640 -0.1505
  144MOL   C12631872   0.952   3.596   3.968 -0.4345 -0.6892 -0.4449
  144MOL   C12731873   0.739   3.715   4.289 -0.2470 -0.2480  1.0680
  144MOL   H12831874   0.901   3.578   4.238  0.3355  0.0104 -0.2145
  144MOL   H12931875   0.903   3.551   3.881 -0.7875 -1.0658 -0.0540
  144MOL   H13031876   1.028   3.660   3.922 -2.6831  1.3818 -1.3893
  144MOL   H13131877   1.011   3.521   4.021  1.7164 -0.2863 -2.1551
  144MOL   H13231878   0.656   3.685   4.225  1.1785  0.1383 -1.0125
  144MOL   H13331879   0.723   3.822   4.303  2.2288  0.1107  1.4314
  144MOL   C13431880   0.723   3.644   4.430  0.3333 -0.3080 -0.4080
  144MOL   C13531881   0.689   3.491   4.400 -0.0791 -0.2673  0.0929
  144MOL   O13631882   0.593   3.461   4.331 -0.1344 -0.3486  0.1077
  144MOL   C13731883   0.795   3.386   4.442 -0.2097  0.1633 -0.4065
  144MOL   C13831884   0.611   3.708   4.519  0.3108 -0.3576 -0.6068
  144MOL   H13931885   0.824   3.651   4.471  1.4090  1.3724 -3.1864
  144MOL   H14031886   0.746   3.291   4.459 -1.2073  1.0608  1.9892
  144MOL   H14131887   0.866   3.377   4.360 -0.7483 -0.3180 -0.8253
  144MOL   H14231888   0.854   3.414   4.529  0.3092 -2.2222  0.0374
  144MOL   H14331889   0.515   3.706   4.466  1.5630  1.4492 -3.0420
  144MOL   H14431890   0.629   3.816   4.522  0.7688 -0.4049 -1.4755
  144MOL   C14531891   0.595   3.655   4.664  0.4270 -0.5938  0.0781
  144MOL   C14631892   0.729   3.671   4.740  0.2340  0.0838  0.6181
  144MOL   O14731893   0.804   3.580   4.762  0.8282  0.6371  0.4431
  144MOL   C14831894   0.762   3.801   4.808 -0.0760  0.1366 -0.1221
  144MOL   C14931895   0.526   3.515   4.688 -0.2852  0.6298 -0.2619
  144MOL   H15031896   0.530   3.729   4.709  0.4824 -1.1003  1.0004
  144MOL   H15131897   0.866   3.832   4.797 -0.5476  1.3086 -1.4771
  144MOL   H15231898   0.695   3.884   4.782 -3.2556 -2.6633 -1.1601
  144MOL   H15331899   0.745   3.775   4.912  0.4220 -2.6293 -0.6943
  144MOL   H15431900   0.552   3.477   4.787 -1.3875 -1.9052 -0.9053
  144MOL   H15531901   0.571   3.450   4.613 -2.9087 -1.0954 -0.4091
  144MOL   C15631902   0.360   3.524   4.666  0.1199  0.4959  0.7270
  144MOL   C15731903   0.283   3.586   4.786  0.0137  0.3154 -0.4323
  144MOL   O15831904   0.244   3.524   4.882 -0.4930 -0.3752 -0.3942
  144MOL   C15931905   0.245   3.734   4.778 -0.8844 -0.2617 -0.0211
  144MOL   C16031906   0.307   3.381   4.653 -0.0056 -0.3024  0.1961
  144MOL   H16131907   0.338   3.586   4.579 -0.1871 -1.1234 -0.3793
  144MOL   H16231908   0.337   3.792   4.784 -0.6471 -0.6614  0.2243
  144MOL   H16331909   0.187   3.764   4.691 -0.7078 -1.9102 -0.7329
  144MOL   H16431910   0.191   3.746   4.871 -0.9721 -0.0949 -0.0939
  144MOL   H16531911   0.340   3.336   4.747 -0.4999 -0.8704  0.1041
  144MOL   H16631912   0.366   3.329   4.578  1.1388 -0.3995  1.1459
  144MOL   C16731913   0.157   3.354   4.610 -1.1554 -0.4147 -0.9279
  144MOL   C16831914   0.125   3.202   4.622 -0.7869  0.0756  0.9320
  144MOL   O16931915   0.142   3.124   4.526  0.2740  0.1998  0.5127
  144MOL   C17031916   0.084   3.148   4.763  0.7252 -0.1203  0.0016
  144MOL   C17131917   0.130   3.418   4.466  0.3758 -0.4575  0.7858
  144MOL   H17231918   0.094   3.412   4.678  0.9541  0.8122  0.0300
  144MOL   H17331919   7.825   3.179   4.791  0.6779  0.0174 -0.3223
  144MOL   H17431920   0.083   3.039   4.766  1.5507 -0.1548 -0.9492
  144MOL   H17531921   0.152   3.188   4.838  0.2961  0.1057  0.2791
  144MOL   H17631922   0.087   3.342   4.401 -0.5124  0.6193  0.0868
  144MOL   H17731923   0.222   3.444   4.415 -0.3449  0.4297 -0.0812
  144MOL   C17831924   0.031   3.540   4.459  0.4083 -0.3852  0.7203
  144MOL   C17931925   7.735   3.482   4.501  0.1441  0.3835  0.6541
  144MOL   O18031926   7.699   3.369   4.467  0.3909  0.0782 -0.0412
  144MOL   C18131927   7.641   3.564   4.586  0.3803 -0.0056 -0.3789
  144MOL   C18231928   0.021   3.614   4.326  0.6932  0.2911  0.3468
  144MOL   H18331929   0.065   3.617   4.528 -1.0234  0.5943  0.3727
  144MOL   H18431930   7.591   3.502   4.661 -0.3635  1.8771  0.7066
  144MOL   H18531931   7.701   3.643   4.631 -2.6362  1.0633  1.9821
  144MOL   H18631932   7.565   3.606   4.521  0.7050  0.8825 -0.1878
  144MOL   H18731933   7.824   3.550   4.247  0.1641  2.1731 -0.9616
  144MOL   H18831934   0.121   3.624   4.284  0.7869 -1.0309  0.2329
  144MOL   C18931935   7.767   3.737   4.322 -0.0761  0.6930  0.1041
  144MOL   C19031936   7.638   3.723   4.237  0.5352  0.2703  0.0519
  144MOL   O19131937   7.537   3.692   4.294 -0.0164  0.5650  0.5615
  144MOL   C19231938   7.642   3.748   4.083 -0.5835 -0.1316  0.3434
  144MOL   C19331939   0.007   3.863   4.281  0.4247 -0.1044 -0.6569
  144MOL   H19431940   7.722   3.748   4.421  1.3327  0.4404  0.7890
  144MOL   H19531941   7.681   3.848   4.062 -2.3319  0.1932 -1.4732
  144MOL   H19631942   7.700   3.670   4.033  0.3546  0.7500  0.0285
  144MOL   H19731943   7.545   3.754   4.033 -1.4797  0.7300  2.1407
  144MOL   H19831944   7.781   3.941   4.247  1.1681  0.2803 -1.2701
  144MOL   H19931945   0.062   3.844   4.189 -0.3612 -4.1725 -0.3826
  144MOL   C20031946   0.098   3.943   4.384 -0.1286  0.3230  0.0118
  144MOL   C20131947   0.242   3.889   4.391 -0.1281  0.5439  0.2831
  144MOL   O20231948   0.271   3.786   4.448 -0.2338  0.6442 -0.2942
  144MOL   C20331949   0.346   3.947   4.295  0.0294  0.2756 -0.4627
  144MOL   C20431950   0.033   3.950   4.518 -0.2800 -0.2167  0.8416
  144MOL   H20531951   0.107   4.041   4.337 -1.6591 -0.2911 -1.5802
  144MOL   H20631952   0.414   3.867   4.263  0.3839 -0.2421  1.4973
  144MOL   H20731953   0.300   3.985   4.204 -0.6724  0.0383 -0.2046
  144MOL   H20831954   0.410   4.023   4.340 -0.8944  0.2870  0.8663
  144MOL   H20931955   0.013   3.853   4.563  2.9792 -1.4306 -0.2046
  144MOL   H21031956   7.775   3.993   4.514 -0.4696 -0.5746  1.6117
  144MOL   C21131957   0.104   4.032   4.636  0.2574 -0.5030  0.2715
  144MOL   C21231958   0.013   4.035   4.770 -0.3945 -0.5205 -0.4594
  144MOL   O21331959   7.743   3.985   4.775 -0.2856 -0.5354 -0.0346
  144MOL   C21431960   0.075   4.099   4.895  0.6472 -0.2952 -0.0696
  144MOL   C21531961   0.142   4.172   4.592 -0.1953  0.1325  0.0120
  144MOL   H21631962   0.201   3.993   4.665  2.9434  3.5100 -2.7886
  144MOL   H21731963   0.171   4.138   4.861  1.7101 -3.4270 -0.8861
  144MOL   H21831964   0.006   4.180   4.915  0.7831 -0.3660  0.7150
  144MOL   H21931965   0.076   4.021   4.971  0.5958  0.1705  0.4090
  144MOL   H22031966   0.167   4.229   4.682  1.9388 -2.1593  0.9163
  144MOL   H22131967   0.056   4.224   4.549 -1.2453 -3.0394 -1.8641
  144MOL   H22231968   0.226   4.174   4.522  0.1900  0.7791  0.4836
  145MOL     C131969   5.357   3.983   0.699  0.3526  0.0619 -0.2076
  145MOL     C231970   5.342   3.986   0.549 -0.3707  0.3475  0.4272
  145MOL     O331971   5.307   4.086   0.489 -0.2060  0.4007  0.8220
  145MOL     C431972   5.389   3.864   0.463  0.0480 -0.4189  0.9507
  145MOL     C531973   5.287   4.093   0.778 -0.0760 -0.1021  0.3384
  145MOL     H631974   5.321   3.891   0.747 -0.2511  0.5083  0.2100
  145MOL     H731975   5.303   3.797   0.454 -0.4424  0.3848 -0.5923
  145MOL     H831976   5.427   3.891   0.365 -1.1148 -0.2010  0.5503
  145MOL     H931977   5.464   3.816   0.527 -2.9303 -3.3520  2.4387
  145MOL    H1031978   5.180   4.088   0.757  0.4647 -2.9137 -2.1013
  145MOL    H1131979   5.329   4.184   0.734  0.2898 -0.6019 -0.3592
  145MOL    H1231980   5.465   3.991   0.712  0.3843 -0.1299 -0.3496
  145MOL    C1331981   5.316   4.093   0.928 -0.5351 -0.5833  0.0456
  145MOL    C1431982   5.222   3.994   0.997  0.0666  0.0319  0.3158
  145MOL    O1531983   5.108   4.032   1.026  0.0856  0.2136 -0.0093
  145MOL    C1631984   5.264   3.851   1.024 -0.2272 -0.4587 -0.2076
  145MOL    C1731985   5.317   4.236   0.996 -0.2391 -0.2321 -0.1582
  145MOL    H1831986   5.419   4.057   0.923 -0.7196 -0.9276 -2.1479
  145MOL    H1931987   5.367   3.864   1.060 -0.9215  1.4337  1.2024
  145MOL    H2031988   5.208   3.803   1.104 -0.3475 -0.6928 -0.4340
  145MOL    H2131989   5.253   3.795   0.931  1.1629 -0.4033 -0.4222
  145MOL    H2231990   5.219   4.280   0.983  1.0510  3.2054  1.1924
  145MOL    H2331991   5.384   4.300   0.938  0.6157 -0.5785  0.4227
  145MOL    C2431992   5.364   4.248   1.147 -0.1683 -0.2030  0.4984
  145MOL    C2531993   5.331   4.380   1.212  1.0916 -0.1860  0.3472
  145MOL    O2631994   5.385   4.482   1.168 -0.6333  0.5176 -0.0922
  145MOL    C2731995   5.218   4.389   1.315 -0.3220 -0.2744  0.3991
  145MOL    C2831996   5.517   4.217   1.164 -0.1118  0.4789  0.6165
  145MOL    H2931997   5.319   4.168   1.206 -0.7986  0.8131  1.4074
  145MOL    H3031998   5.124   4.416   1.267  0.0771 -0.5968 -0.5775
  145MOL    H3131999   5.193   4.293   1.359 -0.5009 -0.0941  0.6928
  145MOL    H3232000   5.240   4.461   1.394  1.9786  0.2239 -0.6450
  145MOL    H3332001   5.566   4.304   1.121  0.1168 -0.1323 -0.3574
  145MOL    H3432002   5.548   4.135   1.099  0.1318 -1.5237  3.1656
  145MOL    C3532003   5.567   4.202   1.311  0.3128 -0.6969  0.6996
  145MOL    C3632004   5.618   4.331   1.380 -0.4730  0.5646 -0.1031
  145MOL    O3732005   5.727   4.382   1.344 -0.0905  0.5978 -0.5014
  145MOL    C3832006   5.534   4.397   1.490 -0.0578 -0.1085 -0.2444
  145MOL    C3932007   5.669   4.084   1.323  0.3500  0.3888 -0.2026
  145MOL    H4032008   5.479   4.175   1.370 -0.0123 -1.2716 -0.0442
  145MOL    H4132009   5.500   4.496   1.459  2.2755  0.9835  0.5638
  145MOL    H4232010   5.445   4.338   1.511  0.2907 -1.6143 -2.7922
  145MOL    H4332011   5.598   4.413   1.577 -1.5184  0.4098  0.7620
  145MOL    H4432012   5.681   4.081   1.431 -0.2818  0.6269 -0.1265
  145MOL    H4532013   5.757   4.109   1.264  0.9675 -0.7864  0.2000
  145MOL    C4632014   5.610   3.941   1.285 -0.8121  0.0234  0.5378
  145MOL    C4732015   5.494   3.896   1.381  0.4434 -0.9636  0.0168
  145MOL    O4832016   5.479   3.952   1.488  0.3223  0.1393  0.0792
  145MOL    C4932017   5.420   3.761   1.359  0.4619 -0.7206 -0.0897
  145MOL    C5032018   5.726   3.845   1.270  0.1061  0.4616  0.0887
  145MOL    H5132019   5.573   3.936   1.182  2.4321 -2.4350 -0.5723
  145MOL    H5232020   5.478   3.720   1.276  0.1434 -0.5307 -0.4030
  145MOL    H5332021   5.445   3.686   1.435 -0.2610  1.2539  2.1639
  145MOL    H5432022   5.312   3.762   1.349  0.3054 -2.7961  0.9686
  145MOL    H5532023   5.698   3.747   1.309  0.5559 -0.2060 -1.2241
  145MOL    H5632024   5.816   3.874   1.325  0.4376 -1.3047  0.4897
  145MOL    C5732025   5.784   3.828   1.126 -0.2492  0.1212  1.0767
  145MOL    C5832026   5.679   3.799   1.015  0.3470  0.1188  0.4394
  145MOL    O5932027   5.645   3.899   0.949 -0.4238  0.0378  0.2711
  145MOL    C6032028   5.635   3.662   0.996  0.1792  0.3581 -0.0455
  145MOL    C6132029   5.907   3.723   1.122 -0.0608 -0.4102 -0.3930
  145MOL    H6232030   5.823   3.926   1.099 -1.4488 -0.5166 -3.3151
  145MOL    H6332031   5.675   3.600   1.076 -0.8860 -0.8615 -0.4383
  145MOL    H6432032   5.530   3.636   0.982 -0.0547  0.5565  1.1896
  145MOL    H6532033   5.676   3.632   0.900 -1.0395 -1.6832  0.0384
  145MOL    H6632034   5.918   3.673   1.026 -0.5759 -0.8770 -0.2096
  145MOL    H6732035   5.892   3.651   1.202 -1.8463  1.2682  0.8378
  145MOL    C6832036   6.048   3.795   1.140  0.0290 -0.5027  0.3752
  145MOL    C6932037   6.085   3.882   1.021 -0.1122  0.1259 -0.2499
  145MOL    O7032038   6.070   3.832   0.910  0.6061  0.3412  0.3486
  145MOL    C7132039   6.115   4.028   1.045  0.2722 -0.4040 -0.0019
  145MOL    C7232040   6.157   3.689   1.162  0.6208  0.4927  0.4766
  145MOL    H7332041   6.033   3.851   1.232  0.0872  2.0261 -1.0995
  145MOL    H7432042   6.031   4.077   1.094  1.8990  3.7863 -1.1578
  145MOL    H7532043   6.202   4.025   1.111  2.0128 -1.4867 -2.2304
  145MOL    H7632044   6.134   4.073   0.947  2.0323 -2.7480 -0.7996
  145MOL    H7732045   6.149   3.614   1.082 -2.5961 -1.3827  2.4240
  145MOL    H7832046   6.131   3.630   1.250 -1.6769  1.5595  0.5560
  145MOL    C7932047   6.306   3.734   1.173  0.0671  0.6975 -0.7859
  145MOL    C8032048   6.409   3.622   1.142 -0.3762  1.2033  0.8599
  145MOL    O8132049   6.375   3.499   1.157 -0.1921 -0.7422 -0.3344
  145MOL    C8232050   6.539   3.652   1.078 -0.0250 -0.4527 -0.2031
  145MOL    C8332051   6.325   3.793   1.316  0.1515 -0.5169 -0.1373
  145MOL    H8432052   6.323   3.807   1.094 -1.1102 -0.1505 -1.8332
  145MOL    H8532053   6.622   3.635   1.147 -0.2187 -0.0995  0.1162
  145MOL    H8632054   6.549   3.581   0.996  2.4629 -0.8623  0.4254
  145MOL    H8732055   6.540   3.750   1.032 -0.4614 -2.0833 -3.8327
  145MOL    H8832056   6.325   3.707   1.383 -0.5785 -0.7501 -0.4334
  145MOL    H8932057   6.241   3.848   1.358  2.4333  1.7221  1.6688
  145MOL    C9032058   6.448   3.872   1.337 -0.4180 -0.1998  0.5214
  145MOL    C9132059   6.474   3.886   1.490  0.6508 -0.1459  0.2444
  145MOL    O9232060   6.378   3.897   1.567 -0.3472  0.2180 -0.1705
  145MOL    C9332061   6.612   3.875   1.553  0.3791 -0.0493 -0.6950
  145MOL    C9432062   6.444   4.015   1.262 -0.0996  0.8150  0.5199
  145MOL    H9532063   6.524   3.812   1.287  0.5592  2.1607 -0.9441
  145MOL    H9632064   6.689   3.832   1.488 -0.3813 -1.6026 -0.5835
  145MOL    H9732065   6.639   3.978   1.576 -1.6262  0.0297  1.4209
  145MOL    H9832066   6.617   3.822   1.648  1.5843 -0.3658 -0.9194
  145MOL    H9932067   6.360   4.071   1.302 -0.5775  0.4309  0.0669
  145MOL   H10032068   6.407   3.984   1.164  1.8084  1.4733 -0.4353
  145MOL   C10132069   6.567   4.105   1.253  0.6030 -0.3662 -0.8872
  145MOL   C10232070   6.535   4.233   1.182 -0.6236 -0.1543 -0.1262
  145MOL   O10332071   6.470   4.236   1.075  0.4740 -0.1137 -0.4153
  145MOL   C10432072   6.581   4.356   1.256 -0.3590 -0.1435  0.3962
  145MOL   C10532073   6.683   4.023   1.189  0.1569 -0.4257  0.1462
  145MOL   H10632074   6.590   4.134   1.356  0.7906 -2.1866 -0.4089
  145MOL   H10732075   6.665   4.333   1.322  0.1324 -4.1838 -1.5073
  145MOL   H10832076   6.610   4.417   1.170  0.5349 -0.4047  0.5047
  145MOL   H10932077   6.505   4.411   1.310  0.5912 -0.7704  2.4265
  145MOL   H11032078   6.642   3.979   1.098 -0.9369  0.1997  0.3246
  145MOL   H11132079   6.714   3.943   1.255  4.2118  0.9419  0.0023
  145MOL   C11232080   6.819   4.106   1.159 -0.3952 -0.8556  0.0797
  145MOL   C11332081   6.888   4.047   1.036 -0.1629  0.0241 -0.2236
  145MOL   O11432082   6.928   4.125   0.949 -0.5946 -0.0759 -0.5725
  145MOL   C11532083   6.894   3.897   1.019 -0.1801 -0.3929  0.3998
  145MOL   C11632084   6.917   4.115   1.280  0.2083 -0.2758  0.1257
  145MOL   H11732085   6.789   4.205   1.126 -0.7505 -0.6620  0.9786
  145MOL   H11832086   6.803   3.881   0.963  0.5175  0.1740 -0.9164
  145MOL   H11932087   6.978   3.857   0.962 -0.5106 -1.5758  0.7368
  145MOL   H12032088   6.893   3.845   1.115  2.1835 -2.0633 -0.4394
  145MOL   H12132089   6.930   4.008   1.296 -1.2153 -0.1994  1.9759
  145MOL   H12232090   6.864   4.145   1.370 -2.3173 -2.9265 -0.3921
  145MOL   C12332091   7.036   4.205   1.243  0.1669  0.0132  0.1436
  145MOL   C12432092   7.161   4.186   1.332  0.3861  0.5304  1.1152
  145MOL   O12532093   7.163   4.101   1.413  0.1530 -0.0411  0.0732
  145MOL   C12632094   7.287   4.263   1.300  0.2301  0.4114 -0.0001
  145MOL   C12732095   6.992   4.356   1.248 -0.4016 -0.8488  0.2714
  145MOL   H12832096   7.072   4.183   1.143 -1.0869  0.9524 -0.5202
  145MOL   H12932097   7.374   4.204   1.329  1.0946  1.9292  0.5508
  145MOL   H13032098   7.288   4.266   1.191  0.4841 -1.1877 -0.0587
  145MOL   H13132099   7.306   4.364   1.334 -1.1596  0.0790  1.8214
  145MOL   H13232100   7.004   4.386   1.352 -0.2240  0.0435  0.0037
  145MOL   H13332101   6.884   4.366   1.237 -0.3798  0.3837  1.0025
  145MOL   C13432102   7.060   4.458   1.148 -0.1296 -0.6156 -0.3637
  145MOL   C13532103   7.017   4.601   1.193  0.3642 -0.1044  0.3766
  145MOL   O13632104   6.900   4.647   1.179 -0.0768  0.9223  0.3655
  145MOL   C13732105   7.123   4.681   1.251  0.0836 -0.7779 -0.3418
  145MOL   C13832106   7.023   4.434   0.998 -0.2269 -0.3487  0.4798
  145MOL   H13932107   7.167   4.445   1.164  0.2361  0.7427 -1.7365
  145MOL   H14032108   7.144   4.630   1.345  3.0740 -0.1507 -0.6429
  145MOL   H14132109   7.211   4.696   1.189 -0.1201  0.3528 -0.3741
  145MOL   H14232110   7.081   4.781   1.268 -1.3887 -1.3429 -0.5618
  145MOL   H14332111   6.924   4.477   0.987  0.3510  1.3851  1.9140
  145MOL   H14432112   7.020   4.327   0.978  0.5593 -0.2250 -0.3562
  145MOL   C14532113   7.122   4.496   0.897  0.0468  0.3719  0.7240
  145MOL   C14632114   7.065   4.483   0.754  0.1896  0.1732  0.3107
  145MOL   O14732115   7.092   4.391   0.673  0.3629 -0.0321 -0.5351
  145MOL   C14832116   6.967   4.594   0.716 -1.0761  0.3294  0.2392
  145MOL   C14932117   7.250   4.420   0.921  0.2043 -0.4713  0.5100
  145MOL   H15032118   7.136   4.602   0.917  0.3324  0.8563 -1.8401
  145MOL   H15132119   6.997   4.696   0.740  2.9838 -0.9482  0.9796
  145MOL   H15232120   6.940   4.600   0.611  1.2854  1.3788 -0.3197
  145MOL   H15332121   6.874   4.572   0.769 -0.3657  0.9425  1.7691
  145MOL   H15432122   7.222   4.315   0.919  2.5922 -1.1189 -0.6569
  145MOL   H15532123   7.295   4.437   1.019  0.5852  0.0740  0.2382
  145MOL   C15632124   7.375   4.450   0.837 -0.0650  0.1311 -0.2404
  145MOL   C15732125   7.449   4.320   0.807  0.2542 -0.1141  0.6864
  145MOL   O15832126   7.536   4.282   0.884  0.4400  0.3049 -0.5198
  145MOL   C15932127   7.415   4.252   0.683 -0.0267  0.6631  0.0219
  145MOL   C16032128   7.474   4.556   0.895 -0.0629  0.0766 -0.6087
  145MOL   H16132129   7.336   4.493   0.745 -1.6830 -1.1192 -0.1458
  145MOL   H16232130   7.500   4.203   0.635  0.9559  3.0527 -0.7553
  145MOL   H16332131   7.336   4.178   0.691  0.2061  0.5452  1.3895
  145MOL   H16432132   7.380   4.325   0.611 -2.1977 -0.8151 -0.4671
  145MOL   H16532133   7.509   4.524   0.993 -0.3439  3.4311  0.6433
  145MOL   H16632134   7.424   4.637   0.947 -0.3389 -0.0844 -0.6187
  145MOL   C16732135   7.589   4.613   0.805  0.5858  0.5099  0.7030
  145MOL   C16832136   7.724   4.599   0.882 -0.0638 -0.6969 -0.4767
  145MOL   O16932137   7.768   4.697   0.943  0.0087  0.8405 -0.6518
  145MOL   C17032138   7.811   4.468   0.861  0.0076  0.4156 -0.6420
  145MOL   C17132139   7.572   4.765   0.751 -0.3219 -0.1346  0.0981
  145MOL   H17232140   7.606   4.552   0.717  0.1713  3.1061 -1.2542
  145MOL   H17332141   0.063   4.477   0.915 -1.3195 -1.7219  2.1624
  145MOL   H17432142   7.759   4.377   0.892 -1.8245 -0.0770 -4.8894
  145MOL   H17532143   7.838   4.451   0.757  2.3934  1.9308 -0.3066
  145MOL   H17632144   7.672   4.793   0.717 -0.1521  0.4611  1.0765
  145MOL   H17732145   7.546   4.822   0.840 -0.5548  0.1863 -0.1741
  145MOL   C17832146   7.471   4.779   0.639 -0.0628 -0.4269 -0.3278
  145MOL   C17932147   7.330   4.770   0.685 -0.2494 -0.0478 -0.2431
  145MOL   O18032148   7.251   4.686   0.636  0.0760  0.1194 -0.1324
  145MOL   C18132149   7.268   4.883   0.776 -0.2156 -0.6441  0.1499
  145MOL   C18232150   7.508   4.691   0.512  0.7134 -0.0893 -0.2971
  145MOL   H18332151   7.480   4.881   0.601  2.2243 -0.6866 -0.5705
  145MOL   H18432152   7.179   4.933   0.739  0.5412  1.4104  1.0233
  145MOL   H18532153   7.249   4.841   0.875 -1.1537 -2.3160 -0.7285
  145MOL   H18632154   7.338   4.963   0.801  0.2464 -0.7550 -0.7614
  145MOL   H18732155   7.418   4.696   0.450  1.2064  0.3252 -0.9866
  145MOL   H18832156   7.507   4.585   0.538  1.2022  0.4310  1.9953
  145MOL   C18932157   7.644   4.715   0.433  0.4331  0.0104 -0.8779
  145MOL   C19032158   7.662   4.866   0.402  0.0895 -0.4463 -0.4686
  145MOL   O19132159   7.574   4.935   0.353 -0.0906  0.6228  0.1275
  145MOL   C19232160   7.796   4.926   0.432  0.2085 -0.3741  0.1266
  145MOL   C19332161   7.645   4.644   0.301 -0.4691 -0.0832 -0.1278
  145MOL   H19432162   7.728   4.677   0.491  0.7057 -0.0990 -1.3383
  145MOL   H19532163   7.841   4.980   0.348 -0.2823  0.8276  0.6405
  145MOL   H19632164   7.782   4.983   0.523  0.2370  1.0144 -0.7226
  145MOL   H19732165   0.032   4.853   0.455  0.4541 -0.0155  0.4268
  145MOL   H19832166   7.731   4.673   0.241 -0.5042  1.4536  0.5461
  145MOL   H19932167   7.561   4.668   0.237 -0.1155 -1.4929 -1.1596
  145MOL   C20032168   7.641   4.489   0.303 -0.4191 -0.3930  0.1657
  145MOL   C20132169   7.757   4.421   0.382 -0.0964  0.3486 -0.8786
  145MOL   O20232170   0.017   4.482   0.408 -0.1429 -0.4906  0.0451
  145MOL   C20332171   7.731   4.287   0.443  0.5803  0.1594  0.1440
  145MOL   C20432172   7.627   4.429   0.158 -1.0571 -0.1345  0.3325
  145MOL   H20532173   7.556   4.477   0.370  0.0537  1.1814  1.0822
  145MOL   H20632174   7.704   4.311   0.546  0.0673 -0.9503  0.2738
  145MOL   H20732175   7.645   4.242   0.393  0.8519  1.2859 -1.3524
  145MOL   H20832176   7.818   4.222   0.437  1.4819  1.3287  0.5175
  145MOL   H20932177   7.527   4.449   0.117 -0.2258  0.4399 -1.4622
  145MOL   H21032178   7.626   4.322   0.176 -0.1768 -0.3092 -0.6389
  145MOL   C21132179   7.730   4.458   0.048 -0.6764  0.0427  0.0271
  145MOL   C21232180   7.676   4.392   7.765  0.4772 -0.5663  0.4149
  145MOL   O21332181   7.713   4.282   7.722  0.1895 -0.3489 -0.2758
  145MOL   C21432182   7.579   4.474   7.680  0.3618  0.8589  0.4215
  145MOL   C21532183   0.030   4.407   0.080  0.1610 -0.5330 -0.3045
  145MOL   H21632184   7.748   4.565   0.039  1.5997 -0.2240  0.9961
  145MOL   H21732185   7.496   4.522   7.731  1.4754 -0.0317  3.1701
  145MOL   H21832186   7.629   4.551   7.622  2.4179 -0.1604  0.7707
  145MOL   H21932187   7.539   4.405   7.606  0.5533  0.1963  0.9330
  145MOL   H22032188   0.046   4.341   0.166 -2.5890 -1.9984 -0.8658
  145MOL   H22132189   0.101   4.487   0.099  2.3681 -2.5716  0.3633
  145MOL   H22232190   0.074   4.355   7.837  1.2797 -0.7624  0.3991
  146MOL     C132191   7.237   7.476   0.208 -0.3193 -0.4312 -0.5515
  146MOL     C232192   7.284   7.434   0.072 -0.7778  0.2568 -0.3762
  146MOL     O332193   7.215   7.457   7.816 -0.3716 -0.1042  0.5631
  146MOL     C432194   7.425   7.370   0.058 -0.7564  0.7733  0.1683
  146MOL     C532195   7.086   7.523   0.231  0.0742  0.4494  0.0937
  146MOL     H632196   7.253   7.399   0.284  1.2591  0.7037  0.3112
  146MOL     H732197   7.424   7.308   0.148 -3.3531  0.0577 -0.3136
  146MOL     H832198   7.437   7.321   7.803 -2.1747 -0.0793  0.4033
  146MOL     H932199   7.500   7.446   0.079  0.3691 -0.4771  0.7496
  146MOL    H1032200   7.033   7.543   0.138  2.1119  0.4276 -1.1277
  146MOL    H1132201   7.077   7.612   0.293  2.6424 -0.6000  2.0929
  146MOL    H1232202   7.311   7.554   0.227 -0.3682  0.4220 -3.6144
  146MOL    C1332203   7.010   7.404   0.302 -0.3619 -0.3590 -0.1019
  146MOL    C1432204   6.965   7.292   0.203 -0.4528  0.7370 -0.3072
  146MOL    O1532205   6.899   7.319   0.104  0.1061 -0.2538 -0.4984
  146MOL    C1632206   7.011   7.153   0.227  0.0639  0.6139  0.1768
  146MOL    C1732207   6.879   7.456   0.367 -0.2496 -0.2755  0.0885
  146MOL    H1832208   7.082   7.367   0.376  0.2526  0.1241 -0.4517
  146MOL    H1932209   7.109   7.148   0.179 -0.6977  2.5114 -1.6874
  146MOL    H2032210   7.008   7.126   0.332 -1.1384 -0.0488 -0.0159
  146MOL    H2132211   6.930   7.096   0.181  0.3362  0.6058 -0.3018
  146MOL    H2232212   6.804   7.487   0.295  1.3123  0.2947 -1.3062
  146MOL    H2332213   6.906   7.547   0.420  1.5013 -1.0200  0.4979
  146MOL    C2432214   6.817   7.363   0.471 -0.2290 -0.7500  0.2997
  146MOL    C2532215   6.668   7.326   0.443  0.3786 -0.9987  0.1123
  146MOL    O2632216   6.637   7.206   0.426  0.2669 -0.3216 -0.6265
  146MOL    C2732217   6.565   7.435   0.464  0.5429 -0.1421  0.6394
  146MOL    C2832218   6.845   7.406   0.616 -0.2460  1.1756 -0.1291
  146MOL    H2932219   6.869   7.269   0.448 -1.3754 -1.3103 -0.0422
  146MOL    H3032220   6.482   7.416   0.396  0.7561 -1.6293  0.7623
  146MOL    H3132221   6.536   7.432   0.569  0.6507 -0.5557  0.6570
  146MOL    H3232222   6.614   7.529   0.441 -1.4187  1.0687  1.3408
  146MOL    H3332223   6.808   7.323   0.676  1.1247  0.6821  0.0383
  146MOL    H3432224   6.785   7.489   0.653 -1.1208  0.9101 -0.9080
  146MOL    C3532225   6.993   7.411   0.655 -0.0675  0.1551  0.0554
  146MOL    C3632226   7.071   7.280   0.647  0.3819  0.4182 -0.3520
  146MOL    O3732227   7.164   7.266   0.576  0.4919  0.4912 -0.0995
  146MOL    C3832228   7.025   7.162   0.731 -0.0676 -0.4354 -1.1257
  146MOL    C3932229   7.025   7.486   0.789  0.6227 -0.1700 -0.5383
  146MOL    H4032230   7.034   7.486   0.587  1.1961 -0.9337 -0.4010
  146MOL    H4132231   6.922   7.141   0.704 -0.6560  0.2947  0.4912
  146MOL    H4232232   7.081   7.070   0.713  2.6707  1.6245 -3.7202
  146MOL    H4332233   7.037   7.172   0.839  1.6456 -3.1016 -1.0306
  146MOL    H4432234   7.052   7.432   0.879  0.9291 -0.2232 -0.6623
  146MOL    H4532235   6.931   7.531   0.820 -0.1643 -0.8025 -1.9283
  146MOL    C4632236   7.131   7.600   0.775  0.2046  0.2804 -0.2875
  146MOL    C4732237   7.261   7.559   0.698 -0.4872  0.3437  0.1545
  146MOL    O4832238   7.340   7.482   0.750  0.1991  0.3137  0.0813
  146MOL    C4932239   7.285   7.607   0.555 -0.2977 -0.3486  1.7714
  146MOL    C5032240   7.161   7.661   0.912  0.0867  0.3732  0.3903
  146MOL    H5132241   7.086   7.673   0.708 -0.9819 -0.4899 -0.3501
  146MOL    H5232242   7.283   7.530   0.477  0.7168  0.5456  0.8386
  146MOL    H5332243   7.210   7.680   0.523 -0.1260 -0.6548  0.6277
  146MOL    H5432244   7.383   7.654   0.550 -0.7091  0.2479 -2.8891
  146MOL    H5532245   7.261   7.703   0.925 -0.7351  2.0443  1.5638
  146MOL    H5632246   7.157   7.581   0.986 -0.0502 -0.1001 -0.1278
  146MOL    C5732247   7.072   7.778   0.956 -0.2825  0.3420  0.1564
  146MOL    C5832248   7.094   0.072   0.884  0.3197  0.7800 -0.1916
  146MOL    O5932249   6.999   0.143   0.845  0.0329  0.6263  0.3464
  146MOL    C6032250   7.241   0.122   0.861 -0.3163  0.6490  0.1087
  146MOL    C6132251   7.086   7.802   1.109  0.6519 -0.1557 -0.2204
  146MOL    H6232252   6.967   7.756   0.937 -0.2115 -1.2259  1.4647
  146MOL    H6332253   7.243   0.224   0.823  0.8183  0.7568  0.4403
  146MOL    H6432254   7.302   0.114   0.951  1.1240 -1.5649 -1.0066
  146MOL    H6532255   7.288   0.067   0.780  2.4130  1.3691  1.1695
  146MOL    H6632256   7.188   7.836   1.122  0.7471 -0.7118  0.4799
  146MOL    H6732257   7.070   7.706   1.157  1.4682 -1.2371 -2.0557
  146MOL    C6832258   6.986   0.057   1.172  0.5642  0.1568 -0.0493
  146MOL    C6932259   7.025   0.118   1.317  0.1467  0.0464 -0.1150
  146MOL    O7032260   6.949   0.114   1.415  0.0145 -0.4313 -0.5137
  146MOL    C7132261   7.157   0.194   1.327  0.0373  0.9891 -0.5801
  146MOL    C7232262   6.839   0.000   1.161  0.9121 -0.4527 -0.2221
  146MOL    H7332263   6.988   0.149   1.114  0.9045  1.0632  1.3676
  146MOL    H7432264   7.142   0.277   1.257 -2.1905  0.8523 -0.2924
  146MOL    H7532265   7.164   0.224   1.431 -0.6408  0.7518 -0.4645
  146MOL    H7632266   7.232   0.121   1.297  0.5105  2.2458 -2.6059
  146MOL    H7732267   6.816   7.833   1.055  3.3861  1.3646 -0.9790
  146MOL    H7832268   6.779   0.085   1.193  1.3444  0.2550 -1.2450
  146MOL    C7932269   6.796   7.718   1.248  1.1955  0.5078 -0.1987
  146MOL    C8032270   6.791   7.588   1.163  0.3732 -0.2540 -0.1189
  146MOL    O8132271   6.742   7.582   1.056  0.6812 -0.0284  0.4978
  146MOL    C8232272   6.880   7.468   1.213  0.2888  0.5536  0.3384
  146MOL    C8332273   6.671   7.747   1.336  0.2564  0.2074 -0.0726
  146MOL    H8432274   6.877   7.705   1.320  0.4402 -0.8077  0.4402
  146MOL    H8532275   6.952   7.491   1.291  0.6578  0.1960  0.1054
  146MOL    H8632276   6.815   7.388   1.248 -2.2980  1.9606 -1.0250
  146MOL    H8732277   6.941   7.434   1.129  0.7939  0.2576  0.8216
  146MOL    H8832278   6.593   7.770   1.263 -0.5853  1.2110  1.1101
  146MOL    H8932279   6.677   7.837   1.398 -0.1008  0.8046 -0.8927
  146MOL    C9032280   6.636   7.642   1.446  0.0307  1.0405  0.9807
  146MOL    C9132281   6.742   7.597   1.554  0.5637  0.6051  0.1179
  146MOL    O9232282   6.770   7.483   1.577  0.2479 -0.7704  0.0254
  146MOL    C9332283   6.804   7.711   1.632 -0.3655  0.2318 -0.2174
  146MOL    C9432284   6.553   7.516   1.386 -0.2614 -0.7195  0.2994
  146MOL    H9532285   6.556   7.682   1.508  0.0774  0.0902  1.6486
  146MOL    H9632286   6.811   7.801   1.571 -3.8604 -0.2263 -1.4360
  146MOL    H9732287   6.744   7.731   1.721  0.9166  0.6647  0.5636
  146MOL    H9832288   6.903   7.687   1.670 -0.3040  0.1736 -0.4139
  146MOL    H9932289   6.535   7.449   1.470  1.7852 -1.3285  0.2812
  146MOL   H10032290   6.620   7.448   1.334 -2.7177 -1.9642 -1.3222
  146MOL   C10132291   6.417   7.539   1.309  0.3658  0.2108  0.1315
  146MOL   C10232292   6.309   7.609   1.397 -0.1189  0.0028  0.4092
  146MOL   O10332293   6.302   7.577   1.517  0.0407  0.7356 -0.1586
  146MOL   C10432294   6.223   7.721   1.337 -0.0201 -0.0121 -0.2465
  146MOL   C10532295   6.372   7.411   1.244  0.3358 -0.4581 -1.0202
  146MOL   H10632296   6.453   7.604   1.229  2.3480 -0.7241  0.2348
  146MOL   H10732297   6.248   7.815   1.385 -0.2458 -0.8028  1.4595
  146MOL   H10832298   6.250   7.748   1.235  0.5368  3.5503  0.7701
  146MOL   H10932299   6.116   7.703   1.341  0.3008 -1.8283  0.6607
  146MOL   H11032300   6.273   7.384   1.279  1.7290 -1.8769  2.0469
  146MOL   H11132301   6.425   7.325   1.286 -0.4643  0.3135  1.6509
  146MOL   C11232302   6.390   7.399   1.096 -0.4352 -0.3330  0.4583
  146MOL   C11332303   6.307   7.509   1.023  0.0214 -0.3928  0.2488
  146MOL   O11432304   6.221   7.581   1.075  0.2325 -0.1987  0.2084
  146MOL   C11532305   6.340   7.531   0.875 -0.1342  0.7628 -0.2654
  146MOL   C11632306   6.351   7.255   1.044 -0.2204  0.2090  0.2362
  146MOL   H11732307   6.496   7.418   1.081 -0.3747  2.1683  3.3845
  146MOL   H11832308   6.442   7.497   0.856  0.2734  1.3421  0.8448
  146MOL   H11932309   6.263   7.493   0.809  1.0050 -0.8018 -0.7317
  146MOL   H12032310   6.335   7.638   0.858  1.5624  1.0017  0.6171
  146MOL   H12132311   6.289   7.250   0.954  2.0262 -2.1251 -1.2599
  146MOL   H12232312   6.277   7.214   1.113 -0.6959  0.7472  0.0445
  146MOL   C12332313   6.465   7.154   1.021 -1.0320 -0.7264  0.2333
  146MOL   C12432314   6.574   7.202   0.915 -0.7151 -0.1911  0.1508
  146MOL   O12532315   6.537   7.256   0.808  0.6670 -0.5918  0.0525
  146MOL   C12632316   6.722   7.199   0.948  0.4913 -0.3366 -0.3827
  146MOL   C12732317   6.416   7.017   0.973  0.0873  0.3870 -0.7089
  146MOL   H12832318   6.522   7.135   1.111  0.1961 -1.0461 -0.5934
  146MOL   H12932319   6.747   7.302   0.975  0.4739 -0.3439 -0.3401
  146MOL   H13032320   6.756   7.134   1.029 -2.7859  0.9308  2.1441
  146MOL   H13132321   6.766   7.167   0.854 -1.7918 -3.0888 -0.5542
  146MOL   H13232322   6.496   6.953   0.934 -0.8393 -0.0707 -1.8883
  146MOL   H13332323   6.363   7.026   0.878  0.2485  2.4424 -0.6276
  146MOL   C13432324   6.328   6.938   1.077 -0.2340 -0.8163  0.2910
  146MOL   C13532325   6.410   6.881   1.200 -0.2697 -0.1288  0.0114
  146MOL   O13632326   6.533   6.874   1.203 -0.5621  0.1731  0.0536
  146MOL   C13732327   6.328   6.845   1.324  0.0832  0.6129 -0.3842
  146MOL   C13832328   6.229   6.848   1.005 -0.2747 -0.7490 -0.3961
  146MOL   H13932329   6.264   7.004   1.136 -1.3169 -1.0693 -0.5989
  146MOL   H14032330   6.267   6.759   1.295 -1.3048  1.2232  0.6793
  146MOL   H14132331   6.385   6.811   1.411  0.7616 -0.3327 -1.1741
  146MOL   H14232332   6.253   6.920   1.348 -0.3148  0.4942 -1.2479
  146MOL   H14332333   6.183   6.920   0.937  2.0449  0.4897 -0.6871
  146MOL   H14432334   6.157   6.811   1.079  0.8727 -2.5865 -0.1625
  146MOL   C14532335   6.291   6.723   0.935 -0.6268 -0.0184  0.1115
  146MOL   C14632336   6.320   6.745   0.786  0.6204  0.1397 -0.3174
  146MOL   O14732337   6.226   6.749   0.712 -0.1395  0.7151  0.0478
  146MOL   C14832338   6.462   6.769   0.745  0.3876  1.0693  0.2886
  146MOL   C14932339   6.198   6.598   0.954 -0.4359 -0.5767  0.3891
  146MOL   H15032340   6.387   6.700   0.980  0.5356 -0.0618 -2.3282
  146MOL   H15132341   6.494   6.873   0.752 -0.3326  1.3132  0.0223
  146MOL   H15232342   6.535   6.705   0.794 -0.5917 -1.7460 -1.7580
  146MOL   H15332343   6.473   6.728   0.644 -0.4799  2.3563 -0.3454
  146MOL   H15432344   6.227   6.513   0.892 -1.5349 -1.0813  0.5591
  146MOL   H15532345   6.099   6.633   0.925  0.7601  1.8831 -0.9334
  146MOL   C15632346   6.208   6.542   1.097 -0.0390 -0.1921  0.1865
  146MOL   C15732347   6.347   6.473   1.123 -0.6803 -0.2878  0.5047
  146MOL   O15832348   6.414   6.429   1.027  0.2156  0.4306  0.3703
  146MOL   C15932349   6.400   6.459   1.262  0.4621  0.3777  0.5663
  146MOL   C16032350   6.089   6.453   1.132  0.0319  0.3968  0.4328
  146MOL   H16132351   6.206   6.629   1.162  1.3069 -0.5293  0.6832
  146MOL   H16232352   6.451   6.552   1.288  1.2401 -0.4195  1.9432
  146MOL   H16332353   6.312   6.471   1.326 -0.5387  1.1418 -0.9312
  146MOL   H16432354   6.464   6.380   1.301 -0.3764  0.3173  1.8822
  146MOL   H16532355   6.110   6.377   1.208  1.4707  0.0050 -0.3342
  146MOL   H16632356   6.062   6.404   1.038  0.7176  1.8281 -0.5242
  146MOL   C16732357   5.964   6.524   1.181 -0.1003  0.2848  0.0604
  146MOL   C16832358   5.980   6.577   1.326  0.0466 -0.0807  0.4369
  146MOL   O16932359   6.080   6.558   1.397  0.0648  0.5337  0.1148
  146MOL   C17032360   5.866   6.662   1.371  0.2167 -0.1777  0.6071
  146MOL   C17132361   5.834   6.445   1.149  0.5680 -0.3398 -0.1236
  146MOL   H17232362   5.950   6.615   1.122  1.2726  0.7666  0.4514
  146MOL   H17332363   5.846   6.664   1.478 -1.2277  0.7266  0.3257
  146MOL   H17432364   5.884   6.764   1.339 -2.5777  0.3589  0.6715
  146MOL   H17532365   5.772   6.642   1.321  0.6463 -0.7038  0.0017
  146MOL   H17632366   5.818   6.438   1.042 -3.6706 -0.0625  0.4377
  146MOL   H17732367   5.747   6.502   1.181  0.8741  0.3894 -0.5782
  146MOL   C17832368   5.815   6.303   1.220  0.4530 -0.6416  0.0945
  146MOL   C17932369   5.781   6.189   1.124 -0.1652  0.9839  0.1962
  146MOL   O18032370   5.672   6.137   1.122  0.2073  0.0002 -0.2746
  146MOL   C18132371   5.901   6.122   1.052  0.1272  0.5057 -0.5956
  146MOL   C18232372   5.718   6.314   1.334 -0.0975 -0.0282 -0.0070
  146MOL   H18332373   5.905   6.263   1.266  0.8309 -0.1281 -0.1939
  146MOL   H18432374   5.987   6.185   1.031  0.0404  0.8742  0.1493
  146MOL   H18532375   5.940   6.039   1.111 -2.1210  0.1782  0.4768
  146MOL   H18632376   5.878   6.081   0.953  0.6412 -1.0738 -0.0739
  146MOL   H18732377   5.621   6.328   1.286 -0.8097 -1.1764  1.0818
  146MOL   H18832378   5.726   6.412   1.382 -0.4937  1.1311 -2.2204
  146MOL   C18932379   5.708   6.205   1.444 -0.7209 -0.2386 -0.5926
  146MOL   C19032380   5.565   6.157   1.464 -0.5063 -1.0050  0.5492
  146MOL   O19132381   5.479   6.238   1.510 -0.2671  0.0784  0.6130
  146MOL   C19232382   5.523   6.016   1.419  0.1060  0.0318  0.2076
  146MOL   C19332383   5.777   6.249   1.580 -0.4947  0.3514 -0.0708
  146MOL   H19432384   5.761   6.116   1.410  0.5425 -0.1077  1.0168
  146MOL   H19532385   5.610   5.951   1.409 -0.1263 -1.0822  4.3245
  146MOL   H19632386   5.449   5.969   1.485  0.7469 -0.2688  0.7192
  146MOL   H19732387   5.481   6.017   1.319  2.8480  0.5806 -0.9501
  146MOL   H19832388   5.762   6.171   1.655 -2.8780  1.2006  0.3816
  146MOL   H19932389   5.720   6.332   1.620 -2.1162  0.8263 -3.1852
  146MOL   C20032390   5.925   6.288   1.597  0.0124  0.0201 -0.6725
  146MOL   C20132391   6.017   6.171   1.551  0.3208 -0.1457 -0.5828
  146MOL   O20232392   6.009   6.054   1.592  0.4336 -0.4729  0.1026
  146MOL   C20332393   6.128   6.212   1.455 -0.9307 -0.0207  0.0285
  146MOL   C20432394   5.954   6.327   1.744 -0.3383  0.1696 -0.9992
  146MOL   H20532395   5.944   6.375   1.534 -0.5891  0.8725  0.3118
  146MOL   H20632396   6.227   6.171   1.477 -0.0567  1.0461 -1.7978
  146MOL   H20732397   6.111   6.191   1.349  2.4439  0.5800 -0.6948
  146MOL   H20832398   6.161   6.315   1.457  0.7936 -0.5645  0.4583
  146MOL   H20932399   5.930   6.237   1.801 -1.1104  1.2605  0.4317
  146MOL   H21032400   5.880   6.401   1.776  0.4480 -0.2250  1.9120
  146MOL   C21132401   6.087   6.391   1.775 -0.0207  0.9672  0.5295
  146MOL   C21232402   6.143   6.334   1.905 -0.6856  0.3651 -0.3384
  146MOL   O21332403   6.180   6.396   2.003 -0.3820 -0.4667 -0.1248
  146MOL   C21432404   6.175   6.183   1.904 -0.5957  0.0803 -1.3302
  146MOL   C21532405   6.080   6.544   1.767 -0.1706  0.3563 -0.5947
  146MOL   H21632406   6.160   6.354   1.703  0.4726  0.3352  1.3436
  146MOL   H21732407   6.114   6.128   1.976 -0.4131 -1.3184 -2.2391
  146MOL   H21832408   6.151   6.133   1.810 -0.7524  0.7020 -1.6233
  146MOL   H21932409   6.282   6.164   1.914 -0.7504 -0.1551  0.1217
  146MOL   H22032410   6.008   6.577   1.842 -0.4717 -3.6886  1.0332
  146MOL   H22132411   6.057   6.580   1.667 -1.5872 -0.7304 -0.6767
  146MOL   H22232412   6.177   6.588   1.789  1.3111 -2.6226 -0.8679
  147MOL     C132413   7.753   5.523   7.810 -0.1336 -0.3394  0.2659
  147MOL     C232414   7.758   5.617   7.689 -0.1886  0.0077 -0.0662
  147MOL     O332415   7.774   5.740   7.701  0.0558 -0.4022  0.3064
  147MOL     C432416   7.763   5.549   7.555 -0.0560  0.2836  0.5716
  147MOL     C532417   7.783   5.596   0.110 -0.0487  0.1650  0.6359
  147MOL     H632418   7.651   5.483   7.807  0.6013 -2.0997 -2.7827
  147MOL     H732419   7.669   5.568   7.504 -1.2185 -2.4330  1.6003
  147MOL     H832420   0.005   5.574   7.490  0.0625 -2.0013 -0.2203
  147MOL     H932421   7.777   5.442   7.568  0.2252 -0.0863 -2.4620
  147MOL    H1032422   7.764   5.530   0.195 -0.2618  0.5991  0.9309
  147MOL    H1132423   7.713   5.679   0.121  1.7035  2.0096 -1.5744
  147MOL    H1232424   7.827   5.449   7.782  0.9215  1.4854 -1.8915
  147MOL    C1332425   0.078   5.645   0.125 -0.7600  0.2800  0.0642
  147MOL    C1432426   0.163   5.530   0.177 -0.0052  0.5080  0.2202
  147MOL    O1532427   0.227   5.462   0.097  0.3338 -0.1496 -0.0299
  147MOL    C1632428   0.168   5.509   0.328  0.0700 -0.6454 -0.0565
  147MOL    C1732429   0.100   5.779   0.194  0.0378 -0.6915 -0.0554
  147MOL    H1832430   0.117   5.660   0.024  0.2429 -0.6761  0.3001
  147MOL    H1932431   0.176   5.402   0.348  1.6322 -1.0407 -2.5290
  147MOL    H2032432   0.254   5.571   0.353 -0.7432 -0.0259  1.1871
  147MOL    H2132433   0.079   5.547   0.376  1.4876  2.0539  0.5106
  147MOL    H2232434   0.077   5.782   0.301 -1.4053 -0.1592 -0.3703
  147MOL    H2332435   0.031   5.855   0.158  1.2983  0.6492  0.2963
  147MOL    C2432436   0.240   5.845   0.159 -0.1652 -0.5178 -0.8811
  147MOL    C2532437   0.299   5.946   0.261 -0.0343  0.0155 -0.3917
  147MOL    O2632438   0.424   5.956   0.262  0.1093 -0.1684  0.0085
  147MOL    C2732439   0.205   6.015   0.367 -0.4478  0.1995 -0.3714
  147MOL    C2832440   0.214   5.921   0.026 -0.5933  0.2636  0.8523
  147MOL    H2932441   0.313   5.765   0.143 -0.5487 -0.7645 -1.4524
  147MOL    H3032442   0.231   5.985   0.469  0.8674 -1.3180 -1.1169
  147MOL    H3132443   0.214   6.123   0.365 -1.3747  0.2506 -2.9151
  147MOL    H3232444   0.102   5.980   0.358  0.2188 -1.9741  0.0285
  147MOL    H3332445   0.192   6.027   0.039 -0.0841  0.3753  0.8116
  147MOL    H3432446   0.126   5.886   7.815 -0.0829  0.0200  0.1632
  147MOL    C3532447   0.341   5.916   7.772  0.4032 -0.5810 -0.5175
  147MOL    C3632448   0.362   6.048   7.685  0.3079  0.4013 -0.5489
  147MOL    O3732449   0.277   6.134   7.665  0.0103  0.1136 -0.1870
  147MOL    C3832450   0.502   6.076   7.625 -0.4292  0.6633 -0.1233
  147MOL    C3932451   0.321   5.793   7.672 -0.4953 -0.2302 -0.1000
  147MOL    H4032452   0.433   5.911   7.830  0.6277 -0.1017 -0.8224
  147MOL    H4132453   0.544   5.995   7.564  0.0682  0.7639  0.0819
  147MOL    H4232454   0.497   6.166   7.563  0.2230  1.3652  0.8371
  147MOL    H4332455   0.575   6.087   7.705  0.3537  1.1389 -0.8932
  147MOL    H4432456   0.368   5.824   7.579  2.4326 -2.8006  0.4447
  147MOL    H4532457   0.215   5.771   7.655  0.1961 -1.8250 -2.4720
  147MOL    C4632458   0.389   5.661   7.721  0.1768 -0.2675  0.0281
  147MOL    C4732459   0.535   5.685   7.750 -0.3429  0.1086 -0.4376
  147MOL    O4832460   0.597   5.746   7.663 -0.1932 -0.2215 -1.2217
  147MOL    C4932461   0.605   5.646   0.037  0.5288 -0.3975 -0.0397
  147MOL    C5032462   0.357   5.539   7.634 -0.3937 -0.4489  0.5341
  147MOL    H5132463   0.344   5.629   7.816  0.5892  1.7102  0.9252
  147MOL    H5232464   0.713   5.662   0.039  0.3582  0.7601  0.2707
  147MOL    H5332465   0.564   5.704   0.120 -0.1702  1.3173 -1.5448
  147MOL    H5432466   0.594   5.539   0.053 -2.3243 -0.0524  0.5043
  147MOL    H5532467   0.250   5.535   7.612 -0.5844  0.3017  1.3269
  147MOL    H5632468   0.377   5.447   7.690  0.0647 -0.8206 -0.2318
  147MOL    C5732469   0.428   5.532   7.498  0.4805 -0.6323 -0.0149
  147MOL    C5832470   0.370   5.619   7.387  0.2880 -0.1892  0.1976
  147MOL    O5932471   0.254   5.667   7.400 -0.4419 -0.1951 -0.6014
  147MOL    C6032472   0.466   5.675   7.286 -0.1016 -0.7849  0.0778
  147MOL    C6132473   0.439   5.380   7.449  0.0735 -0.2588 -0.5304
  147MOL    H6232474   0.527   5.571   7.523  0.0179  0.2384  0.4529
  147MOL    H6332475   0.514   5.589   7.241 -1.4768 -0.4035 -2.2179
  147MOL    H6432476   0.409   5.723   7.206  2.4098  3.1475  0.4738
  147MOL    H6532477   0.542   5.745   7.321  1.5846 -2.0108 -1.0996
  147MOL    H6632478   0.486   5.317   7.524 -0.0045 -0.9439 -1.0551
  147MOL    H6732479   0.521   5.369   7.378 -0.0343  2.1560 -1.0717
  147MOL    C6832480   0.310   5.321   7.394 -0.3363 -0.6579  0.1685
  147MOL    C6932481   0.271   5.185   7.457  0.2536 -0.6001 -0.5443
  147MOL    O7032482   0.299   5.084   7.391  0.0334  0.8967  0.2571
  147MOL    C7132483   0.175   5.187   7.576 -0.1974  0.3859  0.9169
  147MOL    C7232484   0.291   5.339   7.235  0.6758  0.7995  0.3204
  147MOL    H7332485   0.236   5.383   7.445  0.1362  0.4641 -0.4827
  147MOL    H7432486   0.118   5.279   7.586  1.7440  1.3345  4.4071
  147MOL    H7532487   0.101   5.108   7.575 -1.0249  1.1428  1.7293
  147MOL    H7632488   0.219   5.172   7.675  0.2903  0.0273  0.6484
  147MOL    H7732489   0.306   5.244   7.184  0.0003  0.2319  1.1763
  147MOL    H7832490   0.369   5.397   7.184  2.4872 -0.2705  1.8192
  147MOL    C7932491   0.153   5.397   7.207  0.1522  0.8080  0.3384
  147MOL    C8032492   0.053   5.278   7.197 -0.5002  0.4601 -0.1147
  147MOL    O8132493   7.816   5.251   7.287 -0.5429 -0.2657  0.0251
  147MOL    C8232494   0.083   5.177   7.094  0.1790 -0.2707 -0.0495
  147MOL    C8332495   0.137   5.505   7.097  0.1210 -0.3434 -0.2075
  147MOL    H8432496   0.122   5.451   7.296 -1.7678  0.0984  0.1220
  147MOL    H8532497   0.111   5.213   6.995  1.5041 -1.1267  0.0079
  147MOL    H8632498   0.141   5.095   7.134 -0.2175 -1.1260 -1.2039
  147MOL    H8732499   7.828   5.131   7.075 -1.0909  2.2568  0.0810
  147MOL    H8832500   0.117   5.447   7.007 -1.0801 -0.2610 -0.0036
  147MOL    H8932501   0.237   5.548   7.087 -0.7062  1.5458 -0.5753
  147MOL    C9032502   0.035   5.611   7.121  1.1289  0.1344 -0.3665
  147MOL    C9132503   7.732   5.567   7.104  0.3295 -0.0942 -0.4827
  147MOL    O9232504   7.695   5.536   6.993 -0.3970 -0.8535 -0.2380
  147MOL    C9332505   7.632   5.580   7.221  0.0229  0.3501  0.3501
  147MOL    C9432506   0.071   5.735   7.039  0.3949 -0.1348  0.8291
  147MOL    H9532507   0.027   5.640   7.226  2.0332 -0.5925 -0.0896
  147MOL    H9632508   7.617   5.476   7.251 -0.8999  0.1111 -0.8584
  147MOL    H9732509   7.681   5.638   7.299  2.7272 -1.6706  0.2204
  147MOL    H9832510   7.536   5.620   7.187 -0.7271 -1.8321 -0.1737
  147MOL    H9932511   0.040   5.729   6.935 -3.9254 -2.3429  2.1204
  147MOL   H10032512   0.180   5.738   7.033  0.4151 -0.4633  0.9941
  147MOL   C10132513   0.017   5.870   7.092  0.5659  0.0912  0.4436
  147MOL   C10232514   0.017   5.976   6.982  0.5814 -0.4659  0.5958
  147MOL   O10332515   0.121   6.006   6.920 -0.2194 -0.8986 -0.2034
  147MOL   C10432516   7.719   6.039   6.962  0.2443 -0.0804 -0.0675
  147MOL   C10532517   0.098   5.917   7.211 -0.0104 -0.0774 -0.4395
  147MOL   H10632518   7.757   5.852   7.126  0.7224 -2.1980 -0.2091
  147MOL   H10732519   7.695   6.099   7.050 -1.2411  0.2367 -0.6748
  147MOL   H10832520   7.706   6.100   6.873  0.8157  1.2627  0.7511
  147MOL   H10932521   7.645   5.959   6.954 -1.3363  0.7841  4.3505
  147MOL   H11032522   0.193   5.944   7.164 -0.2383  2.0515  0.2457
  147MOL   H11132523   0.123   5.838   7.281 -2.3799  0.9321  1.6378
  147MOL   C11232524   0.036   6.032   7.296 -0.5102 -0.4165  0.0177
  147MOL   C11332525   0.114   6.161   7.279  0.3446 -0.7769  0.0132
  147MOL   O11432526   0.067   6.248   7.203  0.4399 -0.7418 -0.4042
  147MOL   C11532527   0.244   6.186   7.352 -0.0093 -0.0094  0.3005
  147MOL   C11632528   0.018   5.987   7.445  0.7875  0.4755 -0.5292
  147MOL   H11732529   7.779   6.048   7.254 -0.7728  1.2330  1.2269
  147MOL   H11832530   0.257   6.281   7.405  2.3455 -0.7604  1.1213
  147MOL   H11932531   0.253   6.112   7.432 -1.3876  1.0503  1.4601
  147MOL   H12032532   0.330   6.173   7.287  0.3556 -0.1208  0.7975
  147MOL   H12132533   0.105   6.005   7.509 -1.0277  3.0149  1.3152
  147MOL   H12232534   0.002   5.879   7.455  2.4990  0.3282  0.8840
  147MOL   C12332535   7.743   6.046   7.526 -0.7561 -0.2469  0.0061
  147MOL   C12432536   7.604   6.023   7.465  0.3161  0.2047  0.0539
  147MOL   O12532537   7.513   6.109   7.463 -0.3389 -0.3093  0.0112
  147MOL   C12632538   7.566   5.890   7.400  0.1699 -0.0265 -0.2719
  147MOL   C12732539   7.772   6.199   7.547 -0.1240  0.6353  0.4551
  147MOL   H12832540   7.745   5.993   7.621  0.4644 -1.0445 -0.4622
  147MOL   H12932541   7.589   5.808   7.469 -0.0733  0.5898  0.5454
  147MOL   H13032542   7.460   5.886   7.375  0.1386 -0.0186 -0.1400
  147MOL   H13132543   7.622   5.877   7.307  0.9268  1.3188 -0.0145
  147MOL   H13232544   7.767   6.233   7.444  2.5176 -0.9427 -0.2430
  147MOL   H13332545   0.035   6.201   7.579 -0.2014  0.4692  0.7229
  147MOL   C13432546   7.684   6.272   7.647  0.2904 -0.1997  0.7243
  147MOL   C13532547   7.696   6.423   7.634  1.1708  0.7865 -0.7694
  147MOL   O13632548   7.728   6.492   7.733 -0.7443 -0.0215  0.3644
  147MOL   C13732549   7.676   6.480   7.498  0.0210 -0.0595 -0.1119
  147MOL   C13832550   7.709   6.223   7.790 -0.0351 -0.9469 -0.1504
  147MOL   H13932551   7.577   6.251   7.635  0.1751  1.4866 -1.4546
  147MOL   H14032552   7.697   6.586   7.489 -0.7335  0.0223 -0.9795
  147MOL   H14132553   7.749   6.427   7.436 -1.5831 -2.6582  0.1181
  147MOL   H14232554   7.579   6.448   7.462  0.2498 -1.2149  0.2664
  147MOL   H14332555   7.784   6.291   7.832 -0.8141  0.8289 -1.5258
  147MOL   H14432556   7.726   6.117   7.806 -1.2506 -1.3313 -1.2838
  147MOL   C14532557   7.568   6.234   0.019 -0.1212 -0.9050  0.2083
  147MOL   C14632558   7.582   6.253   0.163  0.9153  0.3269 -0.2263
  147MOL   O14732559   7.550   6.163   0.242  0.5616  0.1313 -0.2356
  147MOL   C14832560   7.659   6.377   0.218 -0.4353  0.7676 -0.1269
  147MOL   C14932561   7.475   6.117   7.830 -0.3263 -0.6907 -0.1500
  147MOL   H15032562   7.526   6.327   7.825  0.1770 -0.1716  1.7225
  147MOL   H15132563   7.600   6.408   0.304  0.5263  1.9669  0.1155
  147MOL   H15232564   7.751   6.345   0.268 -1.1587  0.6121  1.1226
  147MOL   H15332565   7.682   6.460   0.151 -0.0912 -0.2129 -1.2323
  147MOL   H15432566   7.514   6.022   0.025 -0.8056 -0.6732  0.4031
  147MOL   H15532567   7.477   6.077   7.728 -0.4955 -1.5307  0.1754
  147MOL   C15632568   7.327   6.135   0.041  0.1658  0.0803  0.4764
  147MOL   C15732569   7.266   5.994   0.038 -0.0414  0.1227 -0.7480
  147MOL   O15832570   7.208   5.946   7.781 -0.5558  0.0319  0.2758
  147MOL   C15932571   7.279   5.911   0.165 -0.0411 -0.1242 -0.1239
  147MOL   C16032572   7.245   6.232   7.799  0.2332 -0.5747 -0.0434
  147MOL   H16132573   7.328   6.162   0.146 -0.7760 -1.6959  0.9568
  147MOL   H16232574   7.196   5.841   0.171  0.9226 -1.6214 -3.1520
  147MOL   H16332575   7.376   5.861   0.165 -0.3306 -0.6910 -0.5435
  147MOL   H16432576   7.282   5.972   0.255 -0.8395  2.4273 -1.7473
  147MOL   H16532577   7.218   6.176   7.709  0.4507 -2.5129  1.0715
  147MOL   H16632578   7.308   6.315   7.765  0.0032 -0.9685 -1.4857
  147MOL   C16732579   7.113   6.276   0.021  0.5268  0.4465  0.8498
  147MOL   C16832580   6.999   6.173   7.827 -0.3651  0.0762 -0.0290
  147MOL   O16932581   6.966   6.151   7.711 -0.2005 -0.4844  0.3346
  147MOL   C17032582   6.923   6.110   0.096  0.1181  0.4544  0.7815
  147MOL   C17132583   7.073   6.419   7.809  0.0053  0.3352  0.1170
  147MOL   H17232584   7.123   6.284   0.129  0.1922  1.4440  0.8102
  147MOL   H17332585   6.819   6.131   0.073  0.1842  0.1458  0.1797
  147MOL   H17432586   6.949   6.004   0.096 -0.4344  0.2879 -1.1822
  147MOL   H17532587   6.953   6.156   0.189  0.3661 -3.2172  2.6136
  147MOL   H17632588   6.964   6.418   7.817 -0.0008 -2.4874  0.2840
  147MOL   H17732589   7.095   6.423   7.703 -0.0609 -0.1006  0.0855
  147MOL   C17832590   7.135   6.538   0.041 -0.2935 -0.2243 -0.4251
  147MOL   C17932591   7.084   6.542   0.188 -0.3096  0.1574  0.6117
  147MOL   O18032592   6.977   6.491   0.227 -0.0095 -0.2983  0.3370
  147MOL   C18132593   7.182   6.595   0.291  0.5053  0.0756 -0.0084
  147MOL   C18232594   7.118   6.673   7.807 -0.1078  0.3520 -0.3485
  147MOL   H18332595   7.242   6.517   0.046 -1.0046 -3.9568  1.0241
  147MOL   H18432596   7.159   6.696   0.324 -3.6092 -0.0666 -2.0572
  147MOL   H18532597   7.175   6.529   0.377  2.0161  2.2419  1.8503
  147MOL   H18632598   7.286   6.592   0.257  0.4238  0.7686 -0.3305
  147MOL   H18732599   7.138   6.752   0.037  2.0855  0.3468 -0.9275
  147MOL   H18832600   7.013   6.693   7.784 -0.5842 -1.0958  0.5119
  147MOL   C18932601   7.208   6.703   7.686  0.1451 -0.0406  0.0528
  147MOL   C19032602   7.343   6.757   7.728 -0.5379  0.8818  0.6018
  147MOL   O19132603   7.354   6.840   7.817  0.2442  0.5027  0.4574
  147MOL   C19232604   7.459   6.714   7.643  0.3235 -0.6728  0.2987
  147MOL   C19332605   7.137   6.769   7.567 -0.9657  0.3394  0.0530
  147MOL   H19432606   7.234   6.603   7.649 -1.0713 -0.5518  0.5373
  147MOL   H19532607   7.441   6.609   7.618 -1.2856 -0.4255  0.3487
  147MOL   H19632608   7.450   6.777   7.554  1.7325 -1.7997 -0.6582
  147MOL   H19732609   7.560   6.731   7.680  0.7630  2.2789 -2.0695
  147MOL   H19832610   7.050   6.712   7.533 -0.5697 -0.6678  0.7210
  147MOL   H19932611   7.201   6.753   7.480 -1.8386  4.6564 -1.5063
  147MOL   C20032612   7.113   6.921   7.576 -0.8470 -0.2143 -0.1259
  147MOL   C20132613   6.983   6.941   7.655 -0.3877  0.5872 -0.2054
  147MOL   O20232614   6.875   6.891   7.618 -0.6284 -0.0934  0.3691
  147MOL   C20332615   6.980   7.040   7.770 -0.2363 -0.5518 -0.2778
  147MOL   C20432616   7.087   6.996   7.444  0.2223  0.4282 -0.1237
  147MOL   H20532617   7.202   6.966   7.620 -0.6304 -1.5027  0.7931
  147MOL   H20632618   7.010   6.992   0.022  0.6236 -0.0313 -0.2843
  147MOL   H20732619   7.041   7.127   7.746 -1.0722  0.6419  1.7460
  147MOL   H20832620   6.877   7.075   7.778  0.3337  1.0267  0.2897
  147MOL   H20932621   7.043   7.092   7.470 -1.2839 -0.8499  2.1596
  147MOL   H21032622   7.006   6.952   7.385  2.9242 -1.2731 -2.6984
  147MOL   C21132623   7.203   7.027   7.355 -0.6094  0.2869 -0.4806
  147MOL   C21232624   7.279   7.147   7.411  0.1892 -0.1994  0.4682
  147MOL   O21332625   7.245   7.261   7.401  0.1622 -0.5186  0.4169
  147MOL   C21432626   7.414   7.120   7.490 -0.0996  0.3568  0.2811
  147MOL   C21532627   7.173   7.056   7.197  0.1830 -0.5535 -0.5193
  147MOL   H21632628   7.267   6.941   7.374 -0.7478 -0.3909 -2.8946
  147MOL   H21732629   7.399   7.097   7.596  0.0138  0.3815  0.3024
  147MOL   H21832630   7.470   7.035   7.450 -0.6871 -0.4908  1.2136
  147MOL   H21932631   7.472   7.212   7.485 -2.1230  1.6580  0.1419
  147MOL   H22032632   7.095   7.131   7.189 -0.9485 -1.4608  1.6656
  147MOL   H22132633   7.137   6.959   7.163 -1.1673 -0.6775  1.1781
  147MOL   H22232634   7.256   7.086   7.133  1.7152 -2.9855  0.2571
  148MOL     C132635   4.435   6.724   2.253  0.4256 -0.1095 -0.5330
  148MOL     C232636   4.443   6.878   2.259 -0.5857 -0.0582  0.0841
  148MOL     O332637   4.397   6.942   2.353 -0.2204 -0.0378 -0.2178
  148MOL     C432638   4.532   6.953   2.162  0.1372 -0.1453  0.5087
  148MOL     C532639   4.309   6.653   2.314  0.4104  0.0989  0.2439
  148MOL     H632640   4.441   6.700   2.147 -2.2844 -0.2937 -0.6717
  148MOL     H732641   4.614   6.985   2.226  1.1517 -0.1337 -0.7914
  148MOL     H832642   4.569   6.884   2.086 -1.4054  0.1644 -0.5381
  148MOL     H932643   4.488   7.039   2.112  2.5553 -0.2074 -1.8707
  148MOL    H1032644   4.314   6.662   2.422  1.7380  0.7154  0.1478
  148MOL    H1132645   4.308   6.547   2.287 -1.7121  0.6895 -2.2849
  148MOL    H1232646   4.514   6.667   2.301 -0.3403 -0.2065  0.6057
  148MOL    C1332647   4.170   6.698   2.267  0.1520  0.8271  0.3304
  148MOL    C1432648   4.069   6.701   2.381 -0.8625  0.2223  0.9799
  148MOL    O1532649   3.980   6.616   2.387  0.4874  0.2950 -0.1374
  148MOL    C1632650   4.073   6.809   2.485 -0.3402 -0.6354 -0.4090
  148MOL    C1732651   4.123   6.628   2.138 -0.1400 -0.1638 -0.7800
  148MOL    H1832652   4.180   6.802   2.236  3.3668  0.7366  0.8887
  148MOL    H1932653   3.968   6.818   2.514 -0.8543  1.1891 -2.6931
  148MOL    H2032654   4.132   6.783   2.573 -0.7472  0.3881  0.1689
  148MOL    H2132655   4.108   6.898   2.434  1.0551 -0.1106  1.4152
  148MOL    H2232656   4.034   6.568   2.161  0.1630 -0.2213  0.2913
  148MOL    H2332657   4.195   6.552   2.109  0.0936  0.5875 -2.1924
  148MOL    C2432658   4.103   6.727   2.012 -0.4931 -0.2118  0.2511
  148MOL    C2532659   4.237   6.771   1.955  0.5838  0.2232 -0.3721
  148MOL    O2632660   4.288   6.876   1.994 -0.1530 -0.5162  0.2108
  148MOL    C2732661   4.317   6.682   1.859  0.0717  0.0119  0.5740
  148MOL    C2832662   4.008   6.845   2.028 -0.1613 -0.0616  0.4012
  148MOL    H2932663   4.060   6.670   1.929  0.4390 -1.0673  0.3419
  148MOL    H3032664   4.421   6.659   1.881 -0.5905 -3.0068  0.8195
  148MOL    H3132665   4.270   6.586   1.838 -1.3162  0.0603  3.2047
  148MOL    H3232666   4.330   6.735   1.764  0.0138  0.0670  0.5965
  148MOL    H3332667   3.979   6.891   1.934  1.5904 -0.9841 -0.6231
  148MOL    H3432668   4.062   6.926   2.077 -1.1341  0.8347 -0.0083
  148MOL    C3532669   3.880   6.807   2.106  0.0528  0.7838  0.3392
  148MOL    C3632670   3.765   6.746   2.021  0.1903  0.3374  0.0214
  148MOL    O3732671   3.724   6.805   1.924  0.2136 -0.0481  0.0038
  148MOL    C3832672   3.719   6.607   2.070  0.0766 -0.1390 -0.1019
  148MOL    C3932673   3.833   6.918   2.209  0.0807 -0.0327  0.3682
  148MOL    H4032674   3.905   6.726   2.174 -3.1505  0.6356  1.4530
  148MOL    H4132675   3.681   6.609   2.172 -0.8212  0.4205 -0.4416
  148MOL    H4232676   3.654   6.564   1.994  0.7787 -0.8683 -0.2976
  148MOL    H4332677   3.806   6.544   2.055 -0.2955 -0.4428 -1.0430
  148MOL    H4432678   3.916   6.966   2.260 -0.3876  1.7048 -0.4851
  148MOL    H4532679   3.778   6.867   2.287 -0.2758  1.4749  1.1167
  148MOL    C4632680   3.733   7.029   2.155 -0.4695 -0.1718 -0.4091
  148MOL    C4732681   3.807   7.141   2.083  0.0745 -0.3316 -0.4004
  148MOL    O4832682   3.868   7.222   2.153  0.6301 -0.6242 -0.3696
  148MOL    C4932683   3.794   7.152   1.932 -0.2325  0.5118 -0.0674
  148MOL    C5032684   3.647   7.083   2.279  0.6131  0.0892  0.0664
  148MOL    H5132685   3.660   6.988   2.085  0.3625 -0.4042 -1.1434
  148MOL    H5232686   3.849   7.241   1.900  0.1244 -0.9167 -3.6663
  148MOL    H5332687   3.830   7.062   1.883 -2.5213 -0.0401 -0.8359
  148MOL    H5432688   3.695   7.173   1.890  0.1284  0.0973 -1.1588
  148MOL    H5532689   3.712   7.110   2.362 -1.2147  0.4672  1.3943
  148MOL    H5632690   3.595   6.995   2.316  0.4340  0.7545  1.4404
  148MOL    C5732691   3.537   7.195   2.263 -0.0236  0.3124 -0.4891
  148MOL    C5832692   3.434   7.176   2.147 -0.3690 -0.6052 -0.8037
  148MOL    O5932693   3.477   7.128   2.044  0.0192 -0.1240 -0.6616
  148MOL    C6032694   3.283   7.217   2.165  0.1348 -0.0007  0.2771
  148MOL    C6132695   3.602   7.336   2.268 -0.1395 -0.1375 -0.5207
  148MOL    H6232696   3.471   7.177   2.348 -1.0388  0.6823 -1.1910
  148MOL    H6332697   3.283   7.251   2.268 -0.3725 -0.7725  0.5302
  148MOL    H6432698   3.263   7.301   2.098  1.1413  0.2070  0.2302
  148MOL    H6532699   3.214   7.133   2.157  1.2741 -1.2241  2.7016
  148MOL    H6632700   3.640   7.365   2.170 -0.2097  0.9608 -0.2327
  148MOL    H6732701   3.684   7.331   2.340 -2.4172  1.7673  2.3258
  148MOL    C6832702   3.521   7.454   2.329 -0.3807  0.5374 -0.5877
  148MOL    C6932703   3.454   7.415   2.467 -0.4423  0.9263  0.6916
  148MOL    O7032704   3.339   7.378   2.483  0.0702  0.2371 -0.1313
  148MOL    C7132705   3.534   7.422   2.591 -0.8020 -0.6309  0.0713
  148MOL    C7232706   3.422   7.510   2.224  0.1705 -0.0431 -0.3232
  148MOL    H7332707   3.588   7.535   2.357 -0.0980 -0.7260  2.6289
  148MOL    H7432708   3.530   7.330   2.650 -3.4540 -2.1204 -2.2947
  148MOL    H7532709   3.635   7.454   2.566 -1.0582  1.6863  1.8851
  148MOL    H7632710   3.495   7.505   2.649  0.4322 -0.2719  0.3942
  148MOL    H7732711   3.318   7.501   2.254  0.4348  2.0281  1.3669
  148MOL    H7832712   3.427   7.454   2.131 -0.5550  1.3271 -1.2120
  148MOL    C7932713   3.455   7.660   2.203 -0.0957  0.8813  0.2484
  148MOL    C8032714   3.460   7.735   2.331 -0.0058 -0.4676  0.4671
  148MOL    O8132715   3.353   7.742   2.397  0.5363  0.2301  0.6648
  148MOL    C8232716   3.590   7.806   2.365  0.0128 -0.3253  0.4981
  148MOL    C8332717   3.349   7.720   2.095 -0.4906 -0.5010  0.0322
  148MOL    H8432718   3.554   7.676   2.160  0.2642  1.1044  1.1478
  148MOL    H8532719   3.676   7.745   2.393  1.2598  1.5565  0.9303
  148MOL    H8632720   3.628   0.027   2.284  1.2339 -2.6891 -0.8335
  148MOL    H8732721   3.579   0.020   2.458  1.8276 -1.6498  1.5564
  148MOL    H8832722   3.275   7.776   2.152 -0.0576  1.3816 -1.2307
  148MOL    H8932723   3.296   7.642   2.041 -1.0063 -0.6941  0.7968
  148MOL    C9032724   3.419   7.826   2.001 -0.1801 -0.3387  0.4369
  148MOL    C9132725   3.434   0.119   2.072 -0.3520 -0.5590  0.3782
  148MOL    O9232726   3.357   0.166   2.154 -0.2045  0.4442  0.2576
  148MOL    C9332727   3.553   0.206   2.030  0.1699  0.2182  0.4001
  148MOL    C9432728   3.318   7.834   1.887 -0.3243 -0.3765 -0.1617
  148MOL    H9532729   3.516   7.785   1.973  0.7720  1.6118  0.7633
  148MOL    H9632730   3.629   0.207   2.108 -2.2859 -2.2852  2.9459
  148MOL    H9732731   3.591   0.165   1.936 -0.6080 -2.5899  1.2529
  148MOL    H9832732   3.516   0.306   2.007 -1.2274 -0.2064  0.7914
  148MOL    H9932733   3.232   0.046   1.927  0.4407  0.0106  1.0128
  148MOL   H10032734   3.279   7.739   1.851 -0.5079 -0.9322  1.4430
  148MOL   C10132735   3.363   0.061   1.754 -0.5221  0.1036 -0.6512
  148MOL   C10232736   3.243   0.126   1.683 -0.9945 -0.2025  0.0099
  148MOL   O10332737   3.199   0.077   1.578 -0.6089  0.0381  0.6989
  148MOL   C10432738   3.198   0.261   1.745 -0.9135 -0.3993  0.0105
  148MOL   C10532739   3.442   7.815   1.657  0.4445 -0.4903 -0.5419
  148MOL   H10632740   3.431   0.141   1.784 -0.6091 -0.7290  1.8141
  148MOL   H10732741   3.226   0.258   1.850  0.9517 -0.8049 -0.4800
  148MOL   H10832742   3.265   0.338   1.706 -0.3041  0.0919  1.9579
  148MOL   H10932743   3.091   0.282   1.753 -1.3958 -2.6442 -0.1051
  148MOL   H11032744   3.445   0.021   1.559 -1.2396  1.8706  0.4955
  148MOL   H11132745   3.390   7.720   1.640  0.8363 -1.0487  1.2897
  148MOL   C11232746   3.580   7.778   1.699  0.0770 -0.1722  0.1633
  148MOL   C11332747   3.680   0.050   1.683 -0.6082  0.0003  0.1908
  148MOL   O11432748   3.642   0.151   1.628 -0.8771 -0.4175 -0.3582
  148MOL   C11532749   3.819   0.028   1.745 -0.2333  0.0690  0.1957
  148MOL   C11632750   3.633   7.656   1.615  0.5891  0.3884  0.2538
  148MOL   H11732751   3.585   7.749   1.804  0.2167  0.1539  0.2465
  148MOL   H11832752   3.821   7.787   1.815 -0.3915  0.6507  0.8930
  148MOL   H11932753   3.892   7.842   1.670  2.1757  2.8556  1.4004
  148MOL   H12032754   3.854   0.122   1.786 -0.2026 -0.0406  0.4178
  148MOL   H12132755   3.731   7.636   1.657  0.7679  3.1140  1.2279
  148MOL   H12232756   3.654   7.697   1.516 -0.7668  0.0603 -0.1808
  148MOL   C12332757   3.555   7.528   1.615 -0.5508  0.1779 -0.3245
  148MOL   C12432758   3.540   7.474   1.757 -0.3288 -0.0479 -0.0217
  148MOL   O12532759   3.634   7.477   1.836  0.3449 -0.2743 -0.1538
  148MOL   C12632760   3.401   7.434   1.804 -0.0733 -0.6367 -0.4146
  148MOL   C12732761   3.638   7.426   1.528  0.8105 -0.7091 -0.5907
  148MOL   H12832762   3.454   7.540   1.576 -0.2156 -0.2355 -1.3213
  148MOL   H12932763   3.350   7.370   1.732 -0.1047 -0.7511 -0.2896
  148MOL   H13032764   3.396   7.383   1.900  3.2910  1.7805  1.1475
  148MOL   H13132765   3.340   7.524   1.813 -2.6700 -2.0803 -2.6179
  148MOL   H13232766   3.731   7.415   1.583  1.0658 -0.5873 -0.9956
  148MOL   H13332767   3.653   7.475   1.431  0.0179 -2.2549 -1.5205
  148MOL   C13432768   3.585   7.291   1.494 -0.7902 -0.5220 -0.6465
  148MOL   C13532769   3.703   7.195   1.488 -0.5441  0.4661 -0.3365
  148MOL   O13632770   3.767   7.175   1.389 -0.0222 -0.4035 -0.0416
  148MOL   C13732771   3.750   7.149   1.624  0.2781 -0.6201  0.1941
  148MOL   C13832772   3.511   7.305   1.356  0.4417  0.0709 -0.0028
  148MOL   H13932773   3.517   7.260   1.574  0.6000  3.5198  2.2302
  148MOL   H14032774   3.658   7.128   1.679  0.6242 -1.1820  0.5643
  148MOL   H14132775   3.804   7.056   1.612 -0.5778 -1.2104  0.8742
  148MOL   H14232776   3.804   7.234   1.666 -0.3382 -0.1401  0.0202
  148MOL   H14332777   3.580   7.330   1.276  0.2607  0.9104  0.0972
  148MOL   H14432778   3.456   7.398   1.343 -1.3331 -0.7791  1.1681
  148MOL   C14532779   3.404   7.197   1.322 -0.2128  0.5570 -0.1051
  148MOL   C14632780   3.318   7.140   1.436 -0.6020  0.8839 -0.4437
  148MOL   O14732781   3.335   7.031   1.488  0.2086  0.5995  0.0873
  148MOL   C14832782   3.215   7.225   1.487  0.0209  0.5775  0.3117
  148MOL   C14932783   3.466   7.080   1.232  0.5322  0.2115  0.2596
  148MOL   H15032784   3.325   7.243   1.262 -0.5752 -0.3299 -0.3152
  148MOL   H15132785   3.124   7.200   1.433  0.2505 -0.5331  0.4266
  148MOL   H15232786   3.197   7.204   1.593  0.2747  0.1058  0.2646
  148MOL   H15332787   3.238   7.330   1.474  0.9385  0.0313 -2.8703
  148MOL   H15432788   3.434   6.976   1.246  0.0872  0.3738  0.4607
  148MOL   H15532789   3.566   7.056   1.268  0.3904  1.8701  1.8513
  148MOL   C15632790   3.473   7.100   1.080 -0.2281  0.1096 -0.1304
  148MOL   C15732791   3.552   7.224   1.031  1.1243 -0.1114  0.1261
  148MOL   O15832792   3.509   7.323   0.975  0.3948  0.7019 -0.1087
  148MOL   C15932793   3.706   7.212   1.047  0.5553  0.2599 -0.6847
  148MOL   C16032794   3.331   7.103   1.022 -0.3514 -0.0108  0.0324
  148MOL   H16132795   3.528   7.011   1.047  3.0104  1.7369  0.6918
  148MOL   H16232796   3.754   7.200   0.950  4.7343  0.8834  1.1919
  148MOL   H16332797   3.753   7.301   1.089  0.9642 -1.0115  1.6942
  148MOL   H16432798   3.749   7.125   1.097 -1.3692 -0.6405 -0.5325
  148MOL   H16532799   3.272   7.187   1.059 -1.7530 -0.6308 -0.7609
  148MOL   H16632800   3.280   7.013   1.056 -2.2927  0.7666 -0.7247
  148MOL   C16732801   3.314   7.078   0.872 -0.2000  0.4203 -0.4744
  148MOL   C16832802   3.200   7.161   0.814  0.2790 -0.1748  0.6001
  148MOL   O16932803   3.082   7.119   0.838  0.1153  0.2111 -0.0221
  148MOL   C17032804   3.235   7.289   0.734 -0.3590  0.7813  0.1741
  148MOL   C17132805   3.308   6.932   0.826 -0.2864  0.1012 -0.3760
  148MOL   H17232806   3.401   7.122   0.823 -0.7340  1.4134 -0.5486
  148MOL   H17332807   3.170   7.377   0.743 -0.9211  0.1989  2.0311
  148MOL   H17432808   3.340   7.310   0.755 -0.8659  1.9496  1.6336
  148MOL   H17532809   3.239   7.262   0.628 -0.9595 -2.2162  0.8623
  148MOL   H17632810   3.241   6.928   0.740 -2.7385  0.4848  1.4589
  148MOL   H17732811   3.250   6.874   0.898 -1.7354 -0.6485 -2.1067
  148MOL   C17832812   3.443   6.867   0.792  0.1568 -0.2479 -0.4193
  148MOL   C17932813   3.497   6.936   0.665 -0.2238 -0.2823  0.5304
  148MOL   O18032814   3.428   7.005   0.594  0.4727 -0.1003 -0.3675
  148MOL   C18132815   3.642   6.928   0.631 -0.3033  0.1719 -0.0104
  148MOL   C18232816   3.433   6.713   0.774 -0.4787  0.0590 -0.2995
  148MOL   H18332817   3.516   6.889   0.870 -0.1451  3.0749 -0.9656
  148MOL   H18432818   3.694   7.009   0.682  0.1387 -0.3856  0.4350
  148MOL   H18532819   3.664   6.830   0.673 -2.9576 -0.3150  0.3690
  148MOL   H18632820   3.649   6.942   0.523  1.4766  1.1247  0.2112
  148MOL   H18732821   3.470   6.686   0.675  1.1898  2.3850 -0.3472
  148MOL   H18832822   3.334   6.684   0.738  0.9281 -1.4429 -3.2131
  148MOL   C18932823   3.505   6.620   0.883  0.0215 -0.3371  0.1044
  148MOL   C19032824   3.469   6.642   1.038 -0.0878  0.2300  0.1472
  148MOL   O19132825   3.510   6.739   1.097 -0.5363  0.3034 -0.3271
  148MOL   C19232826   3.366   6.545   1.107 -0.0036 -0.1076  0.0979
  148MOL   C19332827   3.661   6.623   0.863  0.4858  0.1368  0.4747
  148MOL   H19432828   3.477   6.516   0.863 -3.4241  0.3456  1.0451
  148MOL   H19532829   3.272   6.591   1.078 -1.0544 -1.8289  0.6591
  148MOL   H19632830   3.370   6.447   1.059 -1.3515 -1.2748  2.2730
  148MOL   H19732831   3.381   6.534   1.214  1.3730  0.2304 -0.0520
  148MOL   H19832832   3.700   6.578   0.954 -0.3396 -1.5187  0.0278
  148MOL   H19932833   3.688   6.728   0.856 -2.2518  0.9076  0.9070
  148MOL   C20032834   3.722   6.562   0.739  0.1155  0.2638 -0.1459
  148MOL   C20132835   3.697   6.410   0.739  0.6704 -0.7123  0.2899
  148MOL   O20232836   3.721   6.334   0.833  0.1754 -0.3559 -0.3617
  148MOL   C20332837   3.624   6.346   0.614  0.2899 -0.5531  0.2525
  148MOL   C20432838   3.879   6.592   0.744  0.3685 -0.2939  0.0976
  148MOL   H20532839   3.671   6.607   0.654 -1.1378  2.4798  1.7246
  148MOL   H20632840   3.663   6.402   0.529  0.4315 -0.6218  0.2726
  148MOL   H20732841   3.646   6.240   0.601 -2.2319 -1.1904  0.9537
  148MOL   H20832842   3.515   6.351   0.609  0.5070  2.9898 -3.0502
  148MOL   H20932843   3.918   6.522   0.817 -0.3261 -1.3847 -0.5614
  148MOL   H21032844   3.907   6.684   0.794  0.4703 -1.2030  1.7462
  148MOL   C21132845   3.956   6.578   0.607  0.3499 -0.9157 -0.5115
  148MOL   C21232846   4.098   6.510   0.620 -0.0585  0.9143  0.6253
  148MOL   O21332847   4.170   6.511   0.719  0.4861 -0.1711  0.9367
  148MOL   C21432848   4.150   6.429   0.497  0.0959  0.1139  0.3364
  148MOL   C21532849   3.969   6.702   0.513  0.3436 -0.1034  0.7835
  148MOL   H21632850   3.898   6.506   0.551  0.2581 -0.7233 -0.6659
  148MOL   H21732851   4.207   6.345   0.536  1.4513  0.6060 -0.5582
  148MOL   H21832852   4.066   6.401   0.434  0.3844 -1.5082  0.6562
  148MOL   H21932853   4.217   6.481   0.428 -0.8544 -0.0205 -0.7045
  148MOL   H22032854   3.869   6.714   0.470  0.1776  2.1852  1.7211
  148MOL   H22132855   4.043   6.690   0.434  1.9464 -0.0957  2.2454
  148MOL   H22232856   3.990   6.798   0.560  0.9475  0.7790 -1.2788
  149MOL     C132857   7.407   1.505   5.084 -0.1798 -0.0945 -0.2277
  149MOL     C232858   7.497   1.593   5.012 -0.5176  0.6114  0.9161
  149MOL     O332859   7.481   1.612   4.894 -0.6449 -0.0167 -0.6824
  149MOL     C432860   7.601   1.675   5.081  0.1571 -0.3348  0.9093
  149MOL     C532861   7.270   1.570   5.123  0.6371  0.5228  1.1909
  149MOL     H632862   7.396   1.431   5.005 -2.1809 -0.2807  0.2051
  149MOL     H732863   7.659   1.727   5.005 -3.3407  1.9788 -0.3040
  149MOL     H832864   7.547   1.753   5.136 -1.0967 -1.7714  1.7408
  149MOL     H932865   7.655   1.600   5.138 -1.4910 -3.4434 -1.5018
  149MOL    H1032866   7.198   1.492   5.148 -0.2890  0.7553 -0.6042
  149MOL    H1132867   7.214   1.603   5.034  2.6824  1.8751  0.3705
  149MOL    H1232868   7.449   1.460   5.174  0.5698 -2.3883 -1.6922
  149MOL    C1332869   7.267   1.690   5.225  0.3390 -0.2179 -0.6652
  149MOL    C1432870   7.163   1.658   5.333 -0.2744 -0.5303  0.2672
  149MOL    O1532871   7.048   1.629   5.302  0.3702 -0.1186 -0.2313
  149MOL    C1632872   7.209   1.641   5.477  0.2388  0.2469  0.6749
  149MOL    C1732873   7.255   1.823   5.152  0.1654 -0.0861  0.3271
  149MOL    H1832874   7.356   1.686   5.288 -0.1448 -0.0629  0.0303
  149MOL    H1932875   7.122   1.634   5.543 -1.1419 -0.5032 -1.1731
  149MOL    H2032876   7.276   1.555   5.476 -0.0971 -0.0226 -1.6584
  149MOL    H2132877   7.264   1.733   5.495 -0.1434  0.2365  1.8973
  149MOL    H2232878   7.171   1.826   5.083  1.3182  5.2520 -1.0719
  149MOL    H2332879   7.341   1.832   5.086  1.0923  1.3882  1.6794
  149MOL    C2432880   7.250   1.955   5.234  0.9907 -0.1767  0.1268
  149MOL    C2532881   7.379   1.971   5.312 -0.1869  0.9609 -0.3468
  149MOL    O2632882   7.397   1.926   5.430 -0.3169 -0.4905 -0.0185
  149MOL    C2732883   7.492   2.048   5.239  0.0690  0.2973 -0.0140
  149MOL    C2832884   7.122   1.979   5.324 -0.8627  0.6663 -0.2149
  149MOL    H2932885   7.245   2.035   5.159 -0.8785 -0.2592  0.1397
  149MOL    H3032886   7.456   2.150   5.228 -0.8835 -0.1330 -0.9661
  149MOL    H3132887   7.587   2.040   5.293  1.1310  1.8319 -1.6273
  149MOL    H3232888   7.512   2.004   5.142  0.9517  0.9302 -0.1229
  149MOL    H3332889   7.133   1.921   5.415 -0.7407  1.2383  0.1371
  149MOL    H3432890   7.033   1.946   5.271 -1.0232  1.3728 -0.3760
  149MOL    C3532891   7.109   2.127   5.371  0.2449  0.4645  0.2277
  149MOL    C3632892   7.009   2.123   5.489 -0.5390  0.0294  0.0786
  149MOL    O3732893   6.902   2.064   5.494  0.2265  0.0570  0.1157
  149MOL    C3832894   7.044   2.200   5.619 -0.4009  0.0214 -0.4157
  149MOL    C3932895   7.042   2.202   5.252 -0.4928 -0.4530  0.2222
  149MOL    H4032896   7.204   2.170   5.403 -0.3371  1.3215  0.8372
  149MOL    H4132897   7.149   2.197   5.648 -0.4983  0.5848  0.0059
  149MOL    H4232898   7.017   2.303   5.595  0.7793  0.3013 -0.5702
  149MOL    H4332899   6.975   2.157   5.691  0.1867 -1.1989 -0.5677
  149MOL    H4432900   6.934   2.193   5.259 -0.4004 -1.8286 -0.0836
  149MOL    H4532901   7.059   2.148   5.159  2.2536 -0.1053  0.4755
  149MOL    C4632902   7.075   2.345   5.229  0.3209  0.2873  0.1436
  149MOL    C4732903   7.011   2.434   5.335 -0.0318 -0.1381 -0.2663
  149MOL    O4832904   7.080   2.521   5.388  0.2735 -0.6463 -0.2411
  149MOL    C4932905   6.862   2.440   5.366 -0.7617  0.0982 -0.5988
  149MOL    C5032906   7.028   2.395   5.087 -0.3848  0.7254 -0.1047
  149MOL    H5132907   7.184   2.354   5.233  0.2114  1.9056 -0.2594
  149MOL    H5232908   6.828   2.337   5.376  1.1948 -0.2380  3.5449
  149MOL    H5332909   6.857   2.488   5.464 -2.0827  0.3896 -0.7966
  149MOL    H5432910   6.805   2.503   5.297  2.0700  1.6120 -1.6595
  149MOL    H5532911   6.942   2.333   5.062 -1.3094  2.2746 -0.8697
  149MOL    H5632912   7.101   2.363   5.013 -1.3305 -1.5853 -0.0871
  149MOL    C5732913   6.990   2.533   5.041  0.4574  0.3028 -0.0196
  149MOL    C5832914   6.872   2.536   4.938 -0.2639  0.3662  0.8532
  149MOL    O5932915   6.860   2.450   4.850  0.1312  0.5587 -0.1754
  149MOL    C6032916   6.785   2.663   4.932  0.2431 -0.5894  0.2065
  149MOL    C6132917   7.101   2.608   4.980 -0.5985 -0.8777 -0.4738
  149MOL    H6232918   6.944   2.593   5.119 -0.2780  2.5672 -2.1306
  149MOL    H6332919   6.832   2.738   4.868 -1.3864  0.4672  0.2381
  149MOL    H6432920   6.683   2.646   4.897  0.0052 -0.3468  0.7785
  149MOL    H6532921   6.779   2.712   5.029  1.4229 -0.9446  0.4681
  149MOL    H6632922   7.063   2.698   4.931 -1.3739 -0.4218  0.9519
  149MOL    H6732923   7.153   2.558   4.898  2.0874  1.1028 -0.0612
  149MOL    C6832924   7.216   2.655   5.081 -0.1424  0.4497 -0.1008
  149MOL    C6932925   7.162   2.749   5.186 -0.2490 -0.1030 -0.2371
  149MOL    O7032926   7.054   2.803   5.168  0.5563  0.0395 -0.4896
  149MOL    C7132927   7.244   2.774   5.314 -0.0787  0.6978 -0.4197
  149MOL    C7232928   7.330   2.721   5.000 -0.5592  0.3600 -0.0706
  149MOL    H7332929   7.257   2.564   5.124 -2.4506 -0.2476  0.7160
  149MOL    H7432930   7.179   2.776   5.401  0.5407 -2.6480  0.1738
  149MOL    H7532931   7.327   2.704   5.325 -0.5662  0.3435  1.1541
  149MOL    H7632932   7.283   2.874   5.296 -2.6317  1.6035 -1.1560
  149MOL    H7732933   7.373   2.790   5.072 -0.5438 -0.8590  1.1028
  149MOL    H7832934   7.304   2.794   4.923 -1.9224  1.0445  1.0224
  149MOL    C7932935   7.434   2.613   4.938  0.0285 -0.0677  0.1036
  149MOL    C8032936   7.496   2.538   5.059  0.1375  0.5220 -0.2312
  149MOL    O8132937   7.530   2.599   5.161  0.0204  0.5178  0.2214
  149MOL    C8232938   7.490   2.386   5.051 -0.0411  0.2670 -0.4360
  149MOL    C8332939   7.543   2.674   4.853  0.3130 -0.4378 -0.5877
  149MOL    H8432940   7.376   2.539   4.883 -0.4084 -1.4534  2.3482
  149MOL    H8532941   7.499   2.347   4.949  0.7598 -1.1980  0.1779
  149MOL    H8632942   7.572   2.346   5.111 -0.7374  2.2192  1.8364
  149MOL    H8732943   7.391   2.354   5.082  0.2695  1.4965  1.8381
  149MOL    H8832944   7.597   2.751   4.907 -0.5409 -0.6820  0.6275
  149MOL    H8932945   7.501   2.734   4.772 -2.1278  0.7565  1.4960
  149MOL    C9032946   7.657   2.580   4.793  0.1087 -0.5603 -0.4943
  149MOL    C9132947   7.610   2.469   4.701 -0.3400 -0.3113  0.2945
  149MOL    O9232948   7.581   2.359   4.743  0.0306 -0.6222  1.0591
  149MOL    C9332949   7.604   2.513   4.551  0.8980  0.2160 -0.6726
  149MOL    C9432950   7.761   2.541   4.902 -0.2181  0.1103  0.3218
  149MOL    H9532951   7.696   2.656   4.726  0.8884  0.1366  0.7365
  149MOL    H9632952   7.574   2.427   4.492 -1.8689 -0.1320  1.1302
  149MOL    H9732953   7.527   2.583   4.519 -1.8393 -2.5397 -0.3004
  149MOL    H9832954   7.702   2.543   4.515  0.3386  1.3487 -1.2933
  149MOL    H9932955   7.720   2.454   4.953 -2.3700 -0.0126 -1.5183
  149MOL   H10032956   7.769   2.619   4.977 -0.5140 -1.4200  1.9725
  149MOL   C10132957   0.058   2.501   4.844  0.2432  0.5443 -0.3302
  149MOL   C10232958   0.134   2.427   4.956  0.1836 -0.0568 -0.5639
  149MOL   O10332959   0.235   2.467   5.009  0.3927 -0.4561  0.0304
  149MOL   C10432960   0.101   2.285   4.990  0.3362  0.0466 -0.0379
  149MOL   C10532961   0.137   2.620   4.796 -0.4923 -0.1273 -0.1343
  149MOL   H10632962   0.029   2.437   4.761  3.3988  0.4156 -1.4213
  149MOL   H10732963   7.836   2.268   4.980  0.6156 -0.8920 -1.6172
  149MOL   H10832964   0.139   2.214   4.916 -0.5936 -0.5182  0.0183
  149MOL   H10932965   0.121   2.255   5.093  2.6106  0.5059 -0.3089
  149MOL   H11032966   0.167   2.677   4.884  3.2876  0.5843 -1.7706
  149MOL   H11132967   0.077   2.690   4.737 -1.0843 -0.1776  0.4060
  149MOL   C11232968   0.267   2.586   4.718 -0.4439 -0.3103  0.1746
  149MOL   C11332969   0.395   2.658   4.774  0.5418 -0.0101 -0.1555
  149MOL   O11432970   0.510   2.608   4.777  0.5223 -0.0309  0.4520
  149MOL   C11532971   0.374   2.809   4.821 -0.3055  0.6108 -0.7239
  149MOL   C11632972   0.245   2.618   4.566 -0.0805  0.3395 -0.0284
  149MOL   H11732973   0.274   2.478   4.733 -1.9975 -0.1323  2.5310
  149MOL   H11832974   0.463   2.868   4.800  1.1636 -1.1921  0.3344
  149MOL   H11932975   0.298   2.858   4.759 -0.5665  0.4809 -0.5086
  149MOL   H12032976   0.352   2.829   4.926 -1.4499  0.3232 -0.8961
  149MOL   H12132977   0.231   2.726   4.559  0.4614  0.4524  0.6397
  149MOL   H12232978   0.150   2.572   4.539  1.5394 -1.9247 -2.0961
  149MOL   C12332979   0.358   2.568   4.471 -0.2276 -1.0318 -0.2831
  149MOL   C12432980   0.347   2.588   4.322  0.3138  0.7863 -0.2007
  149MOL   O12532981   0.234   2.608   4.269  0.1422 -0.1272 -0.1259
  149MOL   C12632982   0.476   2.582   4.245 -0.0320  0.0547  0.2083
  149MOL   C12732983   0.386   2.419   4.494  0.6310 -0.7676 -0.8936
  149MOL   H12832984   0.442   2.632   4.500 -1.3258  0.2235  0.1901
  149MOL   H12932985   0.487   2.478   4.215 -0.8020  0.0063  0.0887
  149MOL   H13032986   0.476   2.638   4.152  2.7301  0.5822  0.4863
  149MOL   H13132987   0.556   2.612   4.313 -0.3116  1.4184 -0.0396
  149MOL   H13232988   0.430   2.394   4.591 -0.0082  1.4847  0.0089
  149MOL   H13332989   0.470   2.390   4.430  0.5504 -1.7545 -0.5659
  149MOL   C13432990   0.272   2.320   4.460 -0.0127 -0.3329  0.2819
  149MOL   C13532991   0.204   2.242   4.575 -0.4133  0.0029 -0.8260
  149MOL   O13632992   0.261   2.208   4.681  0.6240  0.4440 -0.2492
  149MOL   C13732993   0.059   2.219   4.550  0.8704  0.4087 -0.3421
  149MOL   C13832994   0.296   2.211   4.344  0.2174  0.5178  0.4013
  149MOL   H13932995   0.196   2.383   4.413  0.5639 -0.2174 -0.5155
  149MOL   H14032996   0.051   2.145   4.471  2.3531 -0.2986  0.1482
  149MOL   H14132997   0.011   2.175   4.638  1.7772 -0.4602 -0.2685
  149MOL   H14232998   0.005   2.312   4.529 -0.0332  0.0039  0.1285
  149MOL   H14332999   0.349   2.267   4.267 -2.0232 -0.3665 -1.8390
  149MOL   H14433000   0.198   2.182   4.308 -0.2819  0.9155  1.4244
  149MOL   C14533001   0.390   2.093   4.391  0.6559 -0.5717  0.0353
  149MOL   C14633002   0.540   2.126   4.394 -0.0544 -0.3005  0.3604
  149MOL   O14733003   0.598   2.144   4.503  0.2937  0.3201 -0.0485
  149MOL   C14833004   0.611   2.151   4.263 -0.2920 -0.0079 -0.6928
  149MOL   C14933005   0.355   1.966   4.307  0.0733 -0.3039 -0.0316
  149MOL   H15033006   0.380   2.062   4.495 -1.5947  0.1522  0.0511
  149MOL   H15133007   0.550   2.179   4.177 -1.1300  1.2857  0.3229
  149MOL   H15233008   0.687   2.228   4.276 -0.3883 -0.2999  1.8543
  149MOL   H15333009   0.664   2.057   4.244  1.4709  0.8162 -0.0333
  149MOL   H15433010   0.359   1.997   4.203  0.7425 -0.9121 -0.1908
  149MOL   H15533011   0.246   1.958   4.317 -0.2348  0.6114 -2.3673
  149MOL   C15633012   0.446   1.840   4.330  0.2964 -0.0654  1.0040
  149MOL   C15733013   0.425   1.756   4.200  0.1642 -0.1164  0.3793
  149MOL   O15833014   0.312   1.729   4.160 -0.2427  0.3812  0.1886
  149MOL   C15933015   0.541   1.696   4.128 -0.7816  0.9030 -0.7619
  149MOL   C16033016   0.412   1.772   4.456  0.3571  0.7862 -0.4433
  149MOL   H16133017   0.550   1.871   4.324  0.3446 -0.4659 -0.4546
  149MOL   H16233018   0.627   1.712   4.193 -1.5464  0.5253  0.3715
  149MOL   H16333019   0.521   1.589   4.119  2.3583  0.3866 -2.1783
  149MOL   H16433020   0.558   1.722   4.024 -1.5485  1.4097 -0.7631
  149MOL   H16533021   0.306   1.746   4.451  0.5083 -0.2810  1.2432
  149MOL   H16633022   0.405   1.856   4.524  3.4998  1.4691 -0.8916
  149MOL   C16733023   0.496   1.657   4.514 -0.2141 -0.4090 -0.0533
  149MOL   C16833024   0.644   1.704   4.526 -0.1392  0.4529 -0.3368
  149MOL   O16933025   0.718   1.680   4.435 -0.1452  0.5492 -0.0820
  149MOL   C17033026   0.692   1.760   4.659 -0.5845 -0.2102 -0.0844
  149MOL   C17133027   0.482   1.519   4.447  0.4762 -0.3732  0.0423
  149MOL   H17233028   0.467   1.642   4.618 -1.1611  0.7293 -0.1482
  149MOL   H17333029   0.734   1.858   4.637  1.2422 -0.4084  2.2185
  149MOL   H17433030   0.599   1.787   4.708 -0.5675  0.0816 -0.2111
  149MOL   H17533031   0.767   1.700   4.712  0.3447  1.4082  0.4586
  149MOL   H17633032   0.555   1.448   4.485  1.3276 -0.6288 -2.0020
  149MOL   H17733033   0.510   1.526   4.342 -0.0530  2.2374  0.0249
  149MOL   C17833034   0.341   1.454   4.456  0.1784  0.3193 -0.0110
  149MOL   C17933035   0.304   1.420   4.600 -0.1175  0.2741 -0.1783
  149MOL   O18033036   0.367   1.330   4.659 -0.1314 -0.1196  0.1628
  149MOL   C18133037   0.194   1.494   4.664  0.0244  0.2318  0.2989
  149MOL   C18233038   0.325   1.327   4.365  0.3487  0.9212  0.9499
  149MOL   H18333039   0.268   1.528   4.426 -0.8589 -0.8812 -0.4849
  149MOL   H18433040   0.175   1.441   4.757  0.2244  0.0979  0.2650
  149MOL   H18533041   0.208   1.602   4.672  0.2387  0.3091 -0.9466
  149MOL   H18633042   0.105   1.474   4.604  0.1932 -0.2365  0.2062
  149MOL   H18733043   0.357   1.239   4.421  0.8962  0.7839  0.4325
  149MOL   H18833044   0.398   1.330   4.283 -0.1822  0.8816  0.4695
  149MOL   C18933045   0.190   1.297   4.299  0.0105  0.4793 -0.4720
  149MOL   C19033046   0.134   1.404   4.206  0.0159  0.4074  0.3456
  149MOL   O19133047   0.027   1.463   4.236 -0.5878  0.5248 -0.1842
  149MOL   C19233048   0.204   1.430   4.070  0.1474 -0.3786  0.1057
  149MOL   C19333049   0.082   1.238   4.402 -0.0171  0.1191  0.5026
  149MOL   H19433050   0.208   1.216   4.228 -0.6288 -1.0301  1.0603
  149MOL   H19533051   0.163   1.382   3.981  0.1476 -2.9889  1.4938
  149MOL   H19633052   0.195   1.538   4.051  1.1232 -0.5695 -1.5816
  149MOL   H19733053   0.313   1.429   4.062  0.0837  1.3886 -1.6336
  149MOL   H19833054   7.822   1.249   4.364 -0.7357  1.4002  2.7018
  149MOL   H19933055   0.081   1.297   4.494  0.2999  0.5953  0.1956
  149MOL   C20033056   0.103   1.093   4.459  0.0951  0.7406  0.2681
  149MOL   C20133057   0.118   0.994   4.338  0.4441  0.1664 -0.6462
  149MOL   O20233058   0.231   0.966   4.299 -0.8394 -0.1686 -1.0181
  149MOL   C20333059   7.835   0.958   4.265 -0.0304 -1.0563  0.5765
  149MOL   C20433060   7.834   1.048   4.563 -0.5176 -0.3017 -0.5470
  149MOL   H20533061   0.200   1.089   4.508  0.0020  2.6713  0.6649
  149MOL   H20633062   7.776   1.047   4.290  0.3340 -1.2559  2.1745
  149MOL   H20733063   0.001   0.960   4.156 -0.4127 -2.2348  0.5184
  149MOL   H20833064   7.789   0.876   4.320 -0.5851  0.1047  1.8940
  149MOL   H20933065   7.751   0.999   4.510  0.1149 -2.5795  0.4764
  149MOL   H21033066   7.785   1.133   4.610  1.3644  0.7116 -0.4110
  149MOL   C21133067   0.050   0.967   4.679  0.2605 -0.0101 -0.2287
  149MOL   C21233068   7.774   0.922   4.761 -0.1271  0.1140  0.5034
  149MOL   O21333069   7.732   0.984   4.860  0.3189 -0.3971 -0.0057
  149MOL   C21433070   7.706   0.792   4.730 -0.3219 -1.1333  0.3703
  149MOL   C21533071   0.138   1.060   4.769 -0.3160  0.0829  0.6761
  149MOL   H21633072   0.112   0.888   4.639  1.2149  1.3573 -1.4886
  149MOL   H21733073   7.769   0.715   4.774  0.0494 -1.1398 -0.1701
  149MOL   H21833074   7.606   0.782   4.773 -0.2577  1.6395  1.2403
  149MOL   H21933075   7.690   0.781   4.623  4.0436  2.0064 -0.7140
  149MOL   H22033076   0.227   1.096   4.717 -1.1335  0.1112 -0.7138
  149MOL   H22133077   0.170   1.000   4.854 -2.2409  0.6307  1.8033
  149MOL   H22233078   0.093   1.151   4.807  0.5243  1.2363 -1.0125
  150MOL     C133079   6.848   5.635   3.076 -0.0983 -0.1458 -0.2432
  150MOL     C233080   6.733   5.637   3.180 -0.1102  0.6095 -0.1053
  150MOL     O333081   6.675   5.534   3.222  0.1437 -0.6148  0.0249
  150MOL     C433082   6.701   5.766   3.250  0.4335  0.2978 -0.4081
  150MOL     C533083   6.993   5.684   3.123  0.5708 -0.6328 -0.2490
  150MOL     H633084   6.858   5.530   3.048 -0.6231  0.0113 -1.0318
  150MOL     H733085   6.726   5.849   3.183  0.6606  1.4714  1.0843
  150MOL     H833086   6.597   5.764   3.285  0.5652  3.7206  0.3618
  150MOL     H933087   6.762   5.772   3.340 -1.9435 -0.0686  1.2960
  150MOL    H1033088   7.016   5.635   3.218  1.8388 -0.5248 -0.4856
  150MOL    H1133089   6.982   5.789   3.151 -2.3824 -0.9030 -0.2412
  150MOL    H1233090   6.832   5.682   2.979  1.1896 -0.9329 -0.8382
  150MOL    C1333091   7.107   5.652   3.023  0.2387  0.4666 -0.3750
  150MOL    C1433092   7.243   5.689   3.074 -0.4868  0.2649  0.2526
  150MOL    O1533093   7.324   5.604   3.101 -0.0282  0.1962  0.1702
  150MOL    C1633094   7.284   5.837   3.071  0.4226  0.1733 -0.0198
  150MOL    C1733095   7.080   5.713   2.884  0.6469  0.4786  0.2523
  150MOL    H1833096   7.117   5.546   3.003  1.7020  0.9052 -2.0763
  150MOL    H1933097   7.314   5.878   3.168 -0.6350 -1.4670  1.0188
  150MOL    H2033098   7.379   5.847   3.018  0.5082 -2.5113 -0.4200
  150MOL    H2133099   7.200   5.895   3.034  1.7162  1.0549 -1.6786
  150MOL    H2233100   7.080   5.822   2.889 -0.6957  0.5284 -0.5608
  150MOL    H2333101   6.978   5.702   2.848  1.8226  0.6726 -3.2717
  150MOL    C2433102   7.170   5.671   2.763 -0.8668 -0.7121 -0.1724
  150MOL    C2533103   7.158   5.767   2.648  0.1010 -0.3890  0.3030
  150MOL    O2633104   7.259   5.804   2.591  0.0344  0.0594  0.4264
  150MOL    C2733105   7.018   5.801   2.590  0.5937 -0.1777 -0.0967
  150MOL    C2833106   7.118   5.524   2.717  1.1247 -0.3329 -0.2181
  150MOL    H2933107   7.275   5.668   2.796 -0.3847 -2.3839 -1.7757
  150MOL    H3033108   7.020   5.886   2.522  1.6429  0.8742  1.2051
  150MOL    H3133109   6.981   5.728   2.519 -1.4752  0.7595 -0.0132
  150MOL    H3233110   6.940   5.809   2.666 -0.5185 -0.4757 -1.1897
  150MOL    H3333111   7.023   5.527   2.663  0.7022  1.3230  0.5851
  150MOL    H3433112   7.092   5.461   2.802 -0.4093  0.1932 -0.2840
  150MOL    C3533113   7.232   5.461   2.622 -0.3589  0.7073  0.9125
  150MOL    C3633114   7.152   5.384   2.512  0.0756 -0.2416  0.1759
  150MOL    O3733115   7.122   5.267   2.525 -0.3261  0.0588 -0.6488
  150MOL    C3833116   7.091   5.462   2.395 -0.0857  0.0447  0.3855
  150MOL    C3933117   7.349   5.377   2.691  0.3198  0.9434 -0.0097
  150MOL    H4033118   7.277   5.535   2.556  0.9736 -0.2213  0.7642
  150MOL    H4133119   6.983   5.445   2.400 -0.0680  0.0218  0.7129
  150MOL    H4233120   7.112   5.569   2.391 -0.5671  0.1165 -0.3609
  150MOL    H4333121   7.117   5.413   2.302  0.3342  0.3749  0.3297
  150MOL    H4433122   7.415   5.455   2.730  0.0200  1.0389  0.3117
  150MOL    H4533123   7.418   5.327   2.623 -1.7208 -0.2455 -1.2542
  150MOL    C4633124   7.328   5.279   2.813 -0.0201  0.6446  0.3445
  150MOL    C4733125   7.463   5.248   2.872  1.5600  0.1974  0.4926
  150MOL    O4833126   7.544   5.190   2.795 -0.0129  0.2132  0.1930
  150MOL    C4933127   7.498   5.276   3.013 -0.3410  0.7246 -0.2266
  150MOL    C5033128   7.254   5.149   2.771 -0.2525 -0.4410  0.3515
  150MOL    H5133129   7.273   5.334   2.889 -1.4539  2.1555 -1.7246
  150MOL    H5233130   7.598   5.316   3.032 -1.0113  1.9984  0.6681
  150MOL    H5333131   7.429   5.353   3.047 -1.4534 -1.0594  1.7113
  150MOL    H5433132   7.490   5.195   3.085  2.0525  2.2034  1.7925
  150MOL    H5533133   7.301   5.057   2.805  1.9168  0.3916 -0.3152
  150MOL    H5633134   7.268   5.133   2.664  0.6138  1.5575  0.1500
  150MOL    C5733135   7.108   5.145   2.827 -0.5860  0.1110  0.0166
  150MOL    C5833136   7.090   5.150   2.984  0.3009 -0.3702  0.1829
  150MOL    O5933137   7.082   5.044   3.048 -0.1221  0.0400  0.0018
  150MOL    C6033138   7.061   5.287   3.042  0.0027 -0.5712 -0.0202
  150MOL    C6133139   7.029   5.032   2.764  0.1245  0.2368 -0.4680
  150MOL    H6233140   7.050   5.232   2.796  0.9701  2.0854  2.4326
  150MOL    H6333141   6.982   5.263   3.113  0.9195 -1.9110  0.5721
  150MOL    H6433142   7.150   5.337   3.079  0.7184 -1.2608 -0.8105
  150MOL    H6533143   7.008   5.359   2.980 -1.7551 -1.8200 -0.0178
  150MOL    H6633144   7.043   5.048   2.657  1.6906  0.4019 -0.2447
  150MOL    H6733145   6.924   5.060   2.776  0.0734 -1.0240  2.2810
  150MOL    C6833146   7.045   4.877   2.803  0.5690  0.1973  0.6302
  150MOL    C6933147   7.138   4.807   2.697  0.2843  0.7969  0.8239
  150MOL    O7033148   7.182   4.870   2.603  0.1283 -0.3511  0.2307
  150MOL    C7133149   7.170   4.654   2.707 -0.0683 -0.1663 -0.2425
  150MOL    C7233150   6.907   4.816   2.792  0.7450 -0.1698 -0.4461
  150MOL    H7333151   7.095   4.862   2.898 -0.7334  0.1628  1.3142
  150MOL    H7433152   7.116   4.608   2.624 -2.2217  1.7517  0.0427
  150MOL    H7533153   7.273   4.620   2.701  0.1927  0.4921  0.5868
  150MOL    H7633154   7.131   4.617   2.802 -0.4926  2.6941  0.7189
  150MOL    H7733155   6.921   4.708   2.779 -2.0834 -0.6270 -0.0432
  150MOL    H7833156   6.845   4.842   2.706  1.0860 -3.2893 -1.6958
  150MOL    C7933157   6.818   4.832   2.917 -0.7181 -0.0487 -0.5918
  150MOL    C8033158   6.847   4.719   3.022  0.4746 -0.3139 -0.2908
  150MOL    O8133159   6.802   4.612   3.007  0.7295 -0.0024 -0.3711
  150MOL    C8233160   6.928   4.760   3.144  0.2897  0.5524 -0.3350
  150MOL    C8333161   6.665   4.856   2.896 -0.2006 -0.0986 -0.4243
  150MOL    H8433162   6.855   4.920   2.969 -0.8538 -1.2854  1.6931
  150MOL    H8533163   6.910   4.865   3.168  0.5805  0.3243  0.9182
  150MOL    H8633164   6.893   4.702   3.229  1.8508 -0.8259 -0.6261
  150MOL    H8733165   7.033   4.736   3.128  0.7809  1.6527  1.1528
  150MOL    H8833166   6.626   4.769   2.844  0.3928 -0.7405  0.1888
  150MOL    H8933167   6.655   4.941   2.829  4.5373  0.1590 -0.9961
  150MOL    C9033168   6.577   4.872   3.032 -0.4488 -0.2747 -0.3018
  150MOL    C9133169   6.436   4.834   3.000 -0.1858  0.4221  0.3662
  150MOL    O9233170   6.351   4.916   2.971  0.6009  0.3367  0.1352
  150MOL    C9333171   6.394   4.686   2.998 -0.2949  0.2311  0.1976
  150MOL    C9433172   6.594   4.994   3.129 -0.6257 -0.1388 -0.8589
  150MOL    H9533173   6.601   4.789   3.099  0.6716 -0.9637 -1.5176
  150MOL    H9633174   6.420   4.648   3.097 -0.6289 -0.1895  0.1226
  150MOL    H9733175   6.290   4.663   2.975  0.2272 -0.9366 -1.0223
  150MOL    H9833176   6.459   4.639   2.925 -1.2483 -1.7752  0.6174
  150MOL    H9933177   6.700   4.999   3.150 -0.9136 -2.2284  1.2908
  150MOL   H10033178   6.540   4.965   3.220  1.8805 -1.6000  0.1937
  150MOL   C10133179   6.553   5.137   3.079  0.1428 -0.0091  0.2536
  150MOL   C10233180   6.643   5.206   2.975  0.4540  0.5180 -0.6599
  150MOL   O10333181   6.754   5.157   2.955  0.0029  0.2311  0.7826
  150MOL   C10433182   6.596   5.331   2.899  0.1583  0.2250 -0.6613
  150MOL   C10533183   6.529   5.232   3.190  0.3964 -0.0862  0.4970
  150MOL   H10633184   6.461   5.136   3.021  0.1062 -0.0842  0.3130
  150MOL   H10733185   6.508   5.379   2.942 -0.0227 -0.3111 -0.4282
  150MOL   H10833186   6.676   5.404   2.889  0.3129  0.1189 -0.2156
  150MOL   H10933187   6.564   5.302   2.799 -0.6465 -1.0558 -0.0492
  150MOL   H11033188   6.523   5.338   3.164  0.9627 -0.0972  0.3262
  150MOL   H11133189   6.613   5.221   3.259  1.2384  0.7924 -0.3761
  150MOL   C11233190   6.396   5.199   3.260  0.1579  0.4333 -0.0151
  150MOL   C11333191   6.279   5.232   3.168  0.4413  0.3522  0.2387
  150MOL   O11433192   6.276   5.325   3.088 -0.8493 -0.5764  0.1438
  150MOL   C11533193   6.156   5.146   3.179 -0.2995  1.0404 -0.1265
  150MOL   C11633194   6.377   5.273   3.395 -0.0593 -0.0383  0.3816
  150MOL   H11733195   6.390   5.091   3.276  3.2281 -0.0156 -1.4776
  150MOL   H11833196   6.077   5.201   3.230  0.2545  0.7576  1.0711
  150MOL   H11933197   6.127   5.111   3.080  0.7310  2.7703 -1.0560
  150MOL   H12033198   6.172   5.054   3.236 -1.6805  1.0526  0.2780
  150MOL   H12133199   6.275   5.254   3.428  0.5263 -1.0570  1.6704
  150MOL   H12233200   6.380   5.379   3.370 -0.4574 -0.4371 -1.4652
  150MOL   C12333201   6.478   5.240   3.509  0.2009 -0.2494 -0.0776
  150MOL   C12433202   6.463   5.099   3.566 -0.0307 -0.0889 -0.6769
  150MOL   O12533203   6.371   5.033   3.530 -0.1061  0.2162 -0.4751
  150MOL   C12633204   6.560   5.059   3.677  0.2321  0.2945 -0.0350
  150MOL   C12733205   6.499   5.355   3.611 -0.1922  0.2830  0.3294
  150MOL   H12833206   6.575   5.237   3.459  0.2362  3.7733 -0.4334
  150MOL   H12933207   6.619   4.974   3.641 -1.4076  0.1299 -2.4502
  150MOL   H13033208   6.638   5.135   3.680  0.1711  0.4299 -1.5318
  150MOL   H13133209   6.522   5.029   3.775  0.0460  1.7029  0.3320
  150MOL   H13233210   6.507   5.450   3.559 -1.4858  0.9485  1.3270
  150MOL   H13333211   6.594   5.337   3.662 -0.0739  0.0910  0.0427
  150MOL   C13433212   6.403   5.372   3.731 -0.6822 -0.1169 -0.0298
  150MOL   C13533213   6.254   5.377   3.690  0.3247 -0.9490 -0.2856
  150MOL   O13633214   6.210   5.431   3.590  0.0997  0.2882 -0.7556
  150MOL   C13733215   6.163   5.312   3.791  0.9072  0.0759  0.1312
  150MOL   C13833216   6.432   5.498   3.817 -0.1736 -0.0849 -0.0351
  150MOL   H13933217   6.418   5.284   3.794  0.7586  1.0717  1.3171
  150MOL   H14033218   6.192   5.315   3.896  0.5175  1.7515  0.1990
  150MOL   H14133219   6.069   5.365   3.773  0.5580 -1.2300 -2.2691
  150MOL   H14233220   6.140   5.209   3.762  0.2796 -0.7396  3.3690
  150MOL   H14333221   6.351   5.506   3.891  0.7640  1.1251  0.8881
  150MOL   H14433222   6.422   5.589   3.758  0.3609 -1.5811 -2.4718
  150MOL   C14533223   6.572   5.496   3.881 -0.4068 -0.0667 -0.1480
  150MOL   C14633224   6.595   5.373   3.973 -0.3383 -0.0812  0.5581
  150MOL   O14733225   6.507   5.312   4.028  0.3629 -0.0815 -0.5807
  150MOL   C14833226   6.741   5.337   3.995 -0.0481 -1.1082 -0.1591
  150MOL   C14933227   6.606   5.631   3.941 -0.0219 -0.4692  0.3916
  150MOL   H15033228   6.644   5.488   3.799 -1.0568  0.3158 -0.7592
  150MOL   H15133229   6.811   5.419   3.982  1.7159 -2.7340 -1.0803
  150MOL   H15233230   6.769   5.291   4.089  2.5733 -1.2046 -0.9495
  150MOL   H15333231   6.766   5.266   3.916 -0.5703  0.6739 -1.9921
  150MOL   H15433232   6.683   5.602   4.013  0.9769  1.1465 -0.0112
  150MOL   H15533233   6.518   5.665   3.995 -2.1546 -2.7754 -1.5590
  150MOL   C15633234   6.647   5.743   3.843 -0.1849  0.3584 -0.4923
  150MOL   C15733235   6.782   5.711   3.776  0.4041 -0.5354 -0.2528
  150MOL   O15833236   6.881   5.685   3.839  0.1177  0.2511  0.0971
  150MOL   C15933237   6.798   5.713   3.624  0.3209  0.6895 -0.2803
  150MOL   C16033238   6.639   5.885   3.907 -0.2135  0.2196  0.6026
  150MOL   H16133239   6.564   5.741   3.772 -0.1313 -0.2416 -0.5453
  150MOL   H16233240   6.713   5.768   3.584 -1.5743 -2.5126 -0.8711
  150MOL   H16333241   6.892   5.760   3.595  0.1050  0.9644 -0.5424
  150MOL   H16433242   6.782   5.615   3.578  2.3900  0.6762 -1.0047
  150MOL   H16533243   6.546   5.896   3.963 -1.2712  2.6358 -1.5088
  150MOL   H16633244   6.613   5.946   3.820  0.7685  1.1409  0.9544
  150MOL   C16733245   6.762   5.936   3.978  0.4436  0.1553 -0.3818
  150MOL   C16833246   6.788   5.858   4.107  0.1584  0.6411  0.4147
  150MOL   O16933247   6.695   5.830   4.184 -0.0549 -0.2639 -0.5424
  150MOL   C17033248   6.924   5.811   4.137 -0.2617  0.5649  0.5368
  150MOL   C17133249   6.749   6.081   4.018  0.2071 -0.7086 -0.1019
  150MOL   H17233250   6.849   5.920   3.913  0.2583 -0.5904 -0.4521
  150MOL   H17333251   6.980   5.905   4.134  1.6990 -0.6096 -0.9513
  150MOL   H17433252   6.944   5.779   4.239 -1.7349 -0.1407  0.6113
  150MOL   H17533253   6.972   5.755   4.057 -1.1976  2.1345 -1.1612
  150MOL   H17633254   6.658   6.094   4.077  0.1886 -2.4120  0.2711
  150MOL   H17733255   6.724   6.136   3.927  1.4836  0.7926  0.4164
  150MOL   C17833256   6.874   6.156   4.076  0.1569  0.1212  0.1145
  150MOL   C17933257   6.823   6.299   4.096 -0.3339  0.4259 -0.3513
  150MOL   O18033258   6.824   6.381   4.004  0.2649  0.0121  0.0708
  150MOL   C18133259   6.768   6.342   4.228  0.0823  0.0934 -0.2048
  150MOL   C18233260   7.005   6.159   3.982  0.8476 -0.1916  0.4178
  150MOL   H18333261   6.905   6.121   4.174  0.5931  3.0317  1.0695
  150MOL   H18433262   6.660   6.354   4.230  0.1100  0.7526 -1.5798
  150MOL   H18533263   6.806   6.263   4.292  1.3377  2.7366  2.3882
  150MOL   H18633264   6.817   6.431   4.267 -1.3223  1.3103 -1.1608
  150MOL   H18733265   6.972   6.215   3.895  1.4058  0.0499  0.3633
  150MOL   H18833266   7.031   6.056   3.958  1.1125 -0.1458  0.5082
  150MOL   C18933267   7.130   6.226   4.039 -0.6416  0.0900 -0.7104
  150MOL   C19033268   7.215   6.285   3.922  0.8666  0.3118  0.0344
  150MOL   O19133269   7.293   6.212   3.862  0.2523  0.1864 -0.0588
  150MOL   C19233270   7.188   6.428   3.885 -0.1168 -0.2322  0.4472
  150MOL   C19333271   7.215   6.131   4.134  0.3401 -0.3472 -0.5065
  150MOL   H19433272   7.095   6.315   4.092 -1.2630  0.0357 -1.0223
  150MOL   H19533273   7.209   6.433   3.778 -1.2760  1.6956  0.2949
  150MOL   H19633274   7.092   6.473   3.909 -0.2873  1.1113 -2.6064
  150MOL   H19733275   7.267   6.483   3.937  0.9833 -2.3073  1.0464
  150MOL   H19833276   7.312   6.111   4.090  0.8277 -1.0271  0.8296
  150MOL   H19933277   7.165   6.033   4.132  0.2329 -0.4185  2.9799
  150MOL   C20033278   7.224   6.176   4.274  0.1737  0.1350 -0.4437
  150MOL   C20133279   7.277   6.320   4.286  0.3935 -1.0921  0.0628
  150MOL   O20233280   7.368   6.360   4.216  0.6992  0.1880  0.0933
  150MOL   C20333281   7.216   6.416   4.391 -0.2276  0.5246 -0.0180
  150MOL   C20433282   7.311   6.084   4.356  0.1372  0.6828 -0.4369
  150MOL   H20533283   7.125   6.188   4.318  0.5219  2.7789 -0.2481
  150MOL   H20633284   7.113   6.398   4.422 -0.5763  2.5508  0.0436
  150MOL   H20733285   7.281   6.451   4.472 -0.0352 -0.2125  0.1526
  150MOL   H20833286   7.204   6.511   4.339  0.7334  1.4360  1.3854
  150MOL   H20933287   7.407   6.131   4.376  1.2252 -1.2207 -1.0307
  150MOL   H21033288   7.334   5.997   4.294 -1.9464  0.7763 -1.4017
  150MOL   C21133289   7.248   6.037   4.492  0.3997 -0.3690  0.7303
  150MOL   C21233290   7.135   5.931   4.493  0.7143  0.3958  0.2498
  150MOL   O21333291   7.031   5.965   4.437 -0.4145 -0.0896  0.3857
  150MOL   C21433292   7.161   5.791   4.549  0.0382 -0.2706  0.3323
  150MOL   C21533293   7.225   6.157   4.589  0.3392  0.3437 -0.3668
  150MOL   H21633294   7.338   5.994   4.538  2.6356  3.1115 -0.1826
  150MOL   H21733295   7.132   5.780   4.654 -1.1070  0.5180  0.1002
  150MOL   H21833296   7.117   5.715   4.485  0.1141  0.0053 -0.0527
  150MOL   H21933297   7.269   5.777   4.543  0.3717  2.3063 -0.3791
  150MOL   H22033298   7.134   6.212   4.563  0.9542 -0.3237 -4.1761
  150MOL   H22133299   7.315   6.219   4.588  0.6749 -0.1285  0.1467
  150MOL   H22233300   7.199   6.127   4.691  0.8264 -0.1813 -0.3940
  151MOL     C133301   5.334   1.727   2.606  0.4567  0.0692  0.3838
  151MOL     C233302   5.436   1.668   2.693  0.8652 -0.1444 -0.3914
  151MOL     O333303   5.533   1.605   2.646 -0.7786 -0.4874  0.7042
  151MOL     C433304   5.421   1.677   2.842  0.1297 -0.2969 -0.2444
  151MOL     C533305   5.362   1.737   2.453 -0.6885  0.3552 -0.0643
  151MOL     H633306   5.255   1.657   2.630  0.0499  0.0072 -1.0527
  151MOL     H733307   5.402   1.777   2.882 -0.3405 -1.3023  2.1803
  151MOL     H833308   5.335   1.619   2.875 -0.8411  1.0176 -0.4351
  151MOL     H933309   5.508   1.643   2.899 -1.6559 -0.8204  2.2704
  151MOL    H1033310   5.422   1.653   2.419 -0.9752  1.0705 -2.4551
  151MOL    H1133311   5.415   1.832   2.440  1.0370 -0.3834  1.3667
  151MOL    H1233312   5.319   1.829   2.642  0.8924 -0.5129  2.2413
  151MOL    C1333313   5.223   1.727   2.380  1.0273 -0.5440  0.5442
  151MOL    C1433314   5.143   1.849   2.409  0.2766  0.3894 -0.3404
  151MOL    O1533315   5.030   1.848   2.459 -0.6200 -0.1208  0.6568
  151MOL    C1633316   5.204   1.974   2.363  0.8274  0.1726 -0.1202
  151MOL    C1733317   5.144   1.587   2.391  0.7766 -0.1180  0.3784
  151MOL    H1833318   5.245   1.732   2.274 -2.3432  0.7976 -0.1560
  151MOL    H1933319   5.293   1.996   2.421  0.3039 -0.7888  1.0718
  151MOL    H2033320   5.240   1.962   2.260  0.6498 -1.2575 -0.0299
  151MOL    H2133321   5.136   2.058   2.381  0.6810  0.4150 -1.6567
  151MOL    H2233322   5.065   1.586   2.466  0.2950 -0.5995 -0.1288
  151MOL    H2333323   5.211   1.514   2.436  1.8299  1.6537  1.7363
  151MOL    C2433324   5.076   1.537   2.261 -0.7345  0.4901 -0.0911
  151MOL    C2533325   4.929   1.579   2.249  1.0409  0.0115  0.2926
  151MOL    O2633326   4.835   1.505   2.282  0.3921 -0.2198  0.4861
  151MOL    C2733327   4.899   1.713   2.201  0.0904  0.0827 -0.4873
  151MOL    C2833328   5.073   1.381   2.264 -0.0970  0.0087 -0.0703
  151MOL    H2933329   5.129   1.573   2.173 -0.4402 -0.0539 -0.1367
  151MOL    H3033330   4.810   1.726   2.139 -0.7391  1.0649  0.8684
  151MOL    H3133331   4.882   1.765   2.296  0.0382 -2.5186  0.9577
  151MOL    H3233332   4.979   1.768   2.151  0.7338 -1.8481 -1.6111
  151MOL    H3333333   5.009   1.341   2.186  1.3713 -0.0245 -1.2880
  151MOL    H3433334   5.014   1.351   2.350 -2.1258 -0.0581 -1.4531
  151MOL    C3533335   5.205   1.289   2.247  0.5273 -0.4686  0.0630
  151MOL    C3633336   5.265   1.318   2.109  0.4037  0.4563 -0.4979
  151MOL    O3733337   5.234   1.249   2.007 -0.1889 -0.2898 -0.5444
  151MOL    C3833338   5.369   1.436   2.101  0.0748 -0.0480  0.2428
  151MOL    C3933339   5.166   1.139   2.269  0.0695  0.1118  0.6972
  151MOL    H4033340   5.273   1.321   2.326 -1.1946  0.0546  1.3629
  151MOL    H4133341   5.389   1.484   2.005  2.0759  1.0253  1.1690
  151MOL    H4233342   5.342   1.514   2.172 -0.4481 -0.0412  0.0447
  151MOL    H4333343   5.466   1.393   2.126 -0.1596 -0.8159 -0.1630
  151MOL    H4433344   5.108   1.107   2.183 -0.1630 -1.0948  1.2919
  151MOL    H4533345   5.097   1.127   2.353 -0.6130 -2.7927 -0.2491
  151MOL    C4633346   5.292   1.043   2.275  0.5859  0.5676  0.4283
  151MOL    C4733347   5.273   0.913   2.193  0.2284 -0.1318  0.0776
  151MOL    O4833348   5.237   0.805   2.248 -1.0619 -0.3094  0.2704
  151MOL    C4933349   5.279   0.920   2.037 -0.1987  0.2411 -0.1262
  151MOL    C5033350   5.333   1.016   2.422  0.1867 -0.6601 -0.1304
  151MOL    H5133351   5.377   1.094   2.229 -0.5751  0.2164 -2.1922
  151MOL    H5233352   5.375   0.880   2.005 -0.3525  0.7105 -1.1800
  151MOL    H5333353   5.195   0.865   1.995  0.6266 -2.4365  1.6214
  151MOL    H5433354   5.282   1.027   2.016 -0.0178  0.0520 -1.0599
  151MOL    H5533355   5.399   0.929   2.428  0.3350 -0.5650 -0.3681
  151MOL    H5633356   5.245   0.977   2.473 -0.6198 -2.0583 -2.4987
  151MOL    C5733357   5.390   1.131   2.508 -0.0561  0.0209  0.4174
  151MOL    C5833358   5.520   1.179   2.444 -0.3400  0.0341 -0.2252
  151MOL    O5933359   5.605   1.099   2.408  0.6016  0.2313 -0.3660
  151MOL    C6033360   5.554   1.330   2.423  0.3914  0.1444  1.0597
  151MOL    C6133361   5.415   1.087   2.653 -0.3087 -0.2423  0.3549
  151MOL    H6233362   5.321   1.215   2.504 -0.1552 -0.1022 -0.5978
  151MOL    H6333363   5.548   1.357   2.317  1.8489  0.2227  0.9803
  151MOL    H6433364   5.504   1.412   2.474 -1.9314  1.6303 -3.3506
  151MOL    H6533365   5.660   1.339   2.447  0.6116  0.1112  0.1143
  151MOL    H6633366   5.515   1.046   2.666 -0.7480 -1.2792  0.5426
  151MOL    H6733367   5.351   1.007   2.691  3.1494 -2.8432  0.9566
  151MOL    C6833368   5.412   1.186   2.773  0.7510 -0.1731 -0.0225
  151MOL    C6933369   5.277   1.268   2.781 -0.0557 -0.3728  0.2192
  151MOL    O7033370   5.266   1.372   2.718 -0.2437 -0.4903 -0.0594
  151MOL    C7133371   5.172   1.214   2.867  0.2558  0.2774 -0.2872
  151MOL    C7233372   5.532   1.284   2.780  1.0539 -0.7812  0.4713
  151MOL    H7333373   5.410   1.119   2.859  0.0351 -0.9073 -0.6029
  151MOL    H7433374   5.213   1.169   2.958  1.1179  0.9988 -0.3079
  151MOL    H7533375   5.092   1.280   2.898 -1.5190 -0.6412 -2.7773
  151MOL    H7633376   5.132   1.137   2.802  0.9281  1.3720 -2.0176
  151MOL    H7733377   5.518   1.353   2.863 -0.2227 -1.4965  0.8677
  151MOL    H7833378   5.525   1.349   2.693  0.6372 -0.3477  0.8221
  151MOL    C7933379   5.670   1.223   2.786 -0.5318 -0.7170  0.0871
  151MOL    C8033380   5.693   1.142   2.911 -0.2762  0.2230  0.2845
  151MOL    O8133381   5.729   1.193   3.022 -0.2399 -0.1651 -0.2940
  151MOL    C8233382   5.662   0.999   2.899 -0.0937 -0.4526 -0.5140
  151MOL    C8333383   5.779   1.324   2.762 -0.4651 -0.7647  0.4425
  151MOL    H8433384   5.674   1.158   2.698  0.1194  1.0425 -1.2176
  151MOL    H8533385   5.562   0.984   2.858  0.2817 -2.6062 -0.7071
  151MOL    H8633386   5.735   0.955   2.830  1.2052  1.3284 -0.3251
  151MOL    H8733387   5.673   0.949   2.995 -0.3271 -0.9605 -0.7452
  151MOL    H8833388   5.788   1.384   2.853  1.2282  0.9294 -0.8142
  151MOL    H8933389   5.749   1.402   2.693 -0.7890 -1.2463  0.0359
  151MOL    C9033390   5.923   1.269   2.721 -0.4897 -0.4947 -0.7747
  151MOL    C9133391   6.028   1.380   2.728  0.6945  0.1012 -0.4317
  151MOL    O9233392   5.998   1.497   2.727  0.0989 -0.3862 -0.8288
  151MOL    C9333393   6.174   1.331   2.753 -0.3091 -0.1885 -0.1365
  151MOL    C9433394   5.922   1.201   2.577 -0.2255 -0.6805 -0.4080
  151MOL    H9533395   5.959   1.188   2.785 -2.7419  0.0474  1.2753
  151MOL    H9633396   6.222   1.264   2.681  1.3484 -0.2032  0.9600
  151MOL    H9733397   6.233   1.422   2.762  0.0840 -0.1531 -2.6743
  151MOL    H9833398   6.173   1.276   2.847  0.8889 -0.1013 -0.0723
  151MOL    H9933399   5.902   1.280   2.505  0.1138  1.6583  1.9906
  151MOL   H10033400   5.834   1.137   2.574 -2.2396  2.0401 -0.2738
  151MOL   C10133401   6.043   1.113   2.533  0.0402  0.2245 -0.5134
  151MOL   C10233402   6.011   1.055   2.393  0.0188  0.0951 -0.5061
  151MOL   O10333403   5.979   0.936   2.376 -0.7033  0.3219  0.2362
  151MOL   C10433404   6.002   1.147   2.277 -0.5984  0.1985 -0.4770
  151MOL   C10533405   6.072   1.000   2.634 -0.1437 -0.4466  0.5386
  151MOL   H10633406   6.138   1.164   2.516  0.0770  0.6590  0.9739
  151MOL   H10733407   6.024   1.244   2.320 -0.5477  0.5145 -1.2038
  151MOL   H10833408   6.074   1.128   2.197 -0.0590 -1.7600  0.4444
  151MOL   H10933409   5.897   1.152   2.246 -0.7573 -1.3685 -0.2327
  151MOL   H11033410   5.986   0.935   2.652 -0.0838 -1.3579 -2.3231
  151MOL   H11133411   6.105   1.043   2.728  0.7018  1.1071 -0.4653
  151MOL   C11233412   6.193   0.903   2.606 -0.0592  0.2805  0.1010
  151MOL   C11333413   6.182   0.772   2.682  0.2820  0.0206 -0.4683
  151MOL   O11433414   6.257   0.748   2.778 -0.2147 -0.4843 -0.5685
  151MOL   C11533415   6.079   0.670   2.640  0.2343  0.2756 -0.2633
  151MOL   C11633416   6.328   0.975   2.620  0.0395  0.1458  0.2270
  151MOL   H11733417   6.186   0.885   2.499 -2.7814 -0.3785  0.3671
  151MOL   H11833418   6.008   0.719   2.573 -0.0506 -1.8446 -1.5556
  151MOL   H11933419   6.132   0.589   2.590  0.6330 -0.8067  1.8195
  151MOL   H12033420   6.016   0.633   2.721  2.0936 -1.9981  0.1968
  151MOL   H12133421   6.347   0.962   2.727  1.4345 -1.0189 -0.1476
  151MOL   H12233422   6.313   1.081   2.599  1.0376  0.3635  0.5342
  151MOL   C12333423   6.442   0.922   2.535  0.4540 -0.1047  0.6310
  151MOL   C12433424   6.582   0.965   2.589  0.5545  0.7419  0.8172
  151MOL   O12533425   6.648   1.056   2.533  0.1646 -0.2276 -0.0006
  151MOL   C12633426   6.636   0.876   2.709 -0.4061  0.6218  0.1159
  151MOL   C12733427   6.415   0.980   2.386 -0.9076  0.5395  0.8284
  151MOL   H12833428   6.448   0.813   2.528  1.4775  0.0729 -1.9584
  151MOL   H12933429   6.745   0.873   2.708 -0.3766  1.9113 -0.9213
  151MOL   H13033430   6.619   0.933   2.800  1.1458  1.6124 -0.2049
  151MOL   H13133431   6.583   0.784   2.733 -1.3105  1.9866  3.5846
  151MOL   H13233432   6.411   1.089   2.392 -2.3565  0.4966  0.6344
  151MOL   H13333433   6.323   0.937   2.347 -0.2935  0.6352 -0.7660
  151MOL   C13433434   6.519   0.937   2.274  0.0822  0.1838  0.4784
  151MOL   C13533435   6.480   0.997   2.141 -0.0489 -0.2140  0.1750
  151MOL   O13633436   6.364   1.039   2.114  0.4424  0.1724  0.1574
  151MOL   C13733437   6.584   1.011   2.033  0.3513 -0.9377 -0.3411
  151MOL   C13833438   6.536   0.778   2.256  0.8254 -0.0983 -0.2737
  151MOL   H13933439   6.616   0.981   2.296 -0.6785  3.0347 -1.5740
  151MOL   H14033440   6.649   1.096   2.056 -0.7188 -0.4014  0.7826
  151MOL   H14133441   6.632   0.915   2.013  0.5193 -0.6057 -1.5738
  151MOL   H14233442   6.544   1.042   1.936  0.6669 -0.0482 -0.1910
  151MOL   H14333443   6.565   0.737   2.353  2.5825  2.0593  0.1497
  151MOL   H14433444   6.635   0.780   2.211  1.3812  2.2693  0.9533
  151MOL   C14533445   6.419   0.696   2.180  0.2242 -0.7178  0.5159
  151MOL   C14633446   6.287   0.676   2.254  0.2278  0.3042 -0.5520
  151MOL   O14733447   6.286   0.621   2.368 -0.1582  0.2519  0.0479
  151MOL   C14833448   6.160   0.726   2.192 -0.8880  0.3896 -0.4756
  151MOL   C14933449   6.478   0.556   2.141 -0.5302  0.2553 -0.2861
  151MOL   H15033450   6.387   0.752   2.092 -0.4334  0.0918  1.2614
  151MOL   H15133451   6.144   0.688   2.091  1.3226 -3.1383  0.4089
  151MOL   H15233452   6.066   0.708   2.244 -1.8563  0.3775 -2.1836
  151MOL   H15333453   6.180   0.833   2.192 -2.3464  0.6783 -2.1402
  151MOL   H15433454   6.417   0.479   2.188 -0.7538 -0.1575 -1.2369
  151MOL   H15533455   6.570   0.544   2.199 -2.2635  3.3611  3.2946
  151MOL   C15633456   6.493   0.528   1.991 -0.0888 -0.6503 -0.2954
  151MOL   C15733457   6.359   0.537   1.920  1.4658  0.0236 -1.5262
  151MOL   O15833458   6.348   0.615   1.833  0.2411  0.2667  0.1687
  151MOL   C15933459   6.244   0.443   1.954 -0.5605 -0.0756  0.0111
  151MOL   C16033460   6.572   0.397   1.953 -0.0391 -0.1380  0.5100
  151MOL   H16133461   6.560   0.608   1.958 -0.5908  0.2904  0.9312
  151MOL   H16233462   6.149   0.496   1.950 -0.0622  0.6850 -2.1898
  151MOL   H16333463   6.236   0.352   1.895  2.3310 -0.0117 -0.5548
  151MOL   H16433464   6.251   0.408   2.057  0.5599  0.7463  0.2293
  151MOL   H16533465   6.510   0.309   1.972 -0.6030 -0.1329 -1.2720
  151MOL   H16633466   6.647   0.387   2.033 -0.0647 -0.1892  0.5274
  151MOL   C16733467   6.658   0.383   1.833  0.4405 -0.6288  0.3981
  151MOL   C16833468   6.789   0.469   1.831  1.1198  0.2652  0.1647
  151MOL   O16933469   6.788   0.590   1.805 -0.3833 -0.2378  0.0603
  151MOL   C17033470   6.909   0.399   1.886 -0.1874  0.7603  0.4130
  151MOL   C17133471   6.576   0.376   1.700  0.3798  0.1517  0.9093
  151MOL   H17233472   6.709   0.287   1.842  2.8025  0.5200 -0.1772
  151MOL   H17333473   6.918   0.299   1.843  1.5669  0.3114  1.7912
  151MOL   H17433474   6.989   0.470   1.863  0.5814 -0.1873  0.1047
  151MOL   H17533475   6.900   0.384   1.993 -0.0887 -0.8771  0.1947
  151MOL   H17633476   6.647   0.360   1.619  1.5257  3.8945  1.0558
  151MOL   H17733477   6.543   0.474   1.664 -0.6130 -1.5502 -3.0572
  151MOL   C17833478   6.456   0.283   1.676 -0.1871  0.0905  0.0344
  151MOL   C17933479   6.491   0.151   1.742 -0.2904  0.1421 -0.1946
  151MOL   O18033480   6.603   0.106   1.735 -0.4722 -0.0406  0.1590
  151MOL   C18133481   6.368   0.070   1.777  0.5641  0.2126  0.5304
  151MOL   C18233482   6.426   0.262   1.527  0.6023 -0.5264  0.2260
  151MOL   H18333483   6.361   0.326   1.709 -0.0506 -0.4694  1.1810
  151MOL   H18433484   6.358   7.815   1.727 -1.2699 -0.6233  2.4219
  151MOL   H18533485   6.382   0.057   1.884  0.4456  1.4480  0.6978
  151MOL   H18633486   6.280   0.129   1.754  2.4514  2.7039 -0.4177
  151MOL   H18733487   6.349   0.186   1.511  0.3830 -0.1064 -0.7661
  151MOL   H18833488   6.511   0.214   1.480  0.3187 -0.8738  0.0631
  151MOL   C18933489   6.412   0.381   1.427 -0.2108  0.4310  0.7616
  151MOL   C19033490   6.296   0.479   1.473  0.2001  0.2556 -0.1084
  151MOL   O19133491   6.184   0.437   1.500 -0.0208  0.2037 -0.2074
  151MOL   C19233492   6.318   0.624   1.449  0.2337  0.4497  0.5096
  151MOL   C19333493   6.371   0.340   1.278  0.2245  0.7845 -0.4604
  151MOL   H19433494   6.502   0.443   1.427  0.8200 -1.0150 -2.0234
  151MOL   H19533495   6.410   0.639   1.393  0.5565  1.1425  1.2066
  151MOL   H19633496   6.222   0.658   1.410 -0.3408 -0.9029  0.7320
  151MOL   H19733497   6.338   0.670   1.546 -0.5801  0.5325  0.6430
  151MOL   H19833498   6.312   0.417   1.228  2.7697  2.8743 -0.3462
  151MOL   H19933499   6.305   0.254   1.291  1.1049 -0.1041 -1.7854
  151MOL   C20033500   6.493   0.305   1.187  0.3417  0.5212 -0.0668
  151MOL   C20133501   6.562   0.438   1.146 -0.3161 -0.2505 -0.4577
  151MOL   O20233502   6.652   0.474   1.220 -0.0780  0.0234 -0.2213
  151MOL   C20333503   6.501   0.537   1.048  0.1615 -0.1339  0.1129
  151MOL   C20433504   6.434   0.215   1.068  0.5139  0.6655  0.4575
  151MOL   H20533505   6.565   0.252   1.249  0.7666 -0.4639 -1.3748
  151MOL   H20633506   6.580   0.596   1.001 -1.0960  2.1548  0.7711
  151MOL   H20733507   6.430   0.496   0.976  1.4705 -2.3463  0.0333
  151MOL   H20833508   6.442   0.616   1.096 -2.3566 -0.8439 -1.7051
  151MOL   H20933509   6.350   0.274   1.030  0.7883  1.5485  1.2047
  151MOL   H21033510   6.381   0.128   1.105  0.4550  0.3968 -0.2499
  151MOL   C21133511   6.530   0.172   0.960 -0.4283  0.8883  0.6133
  151MOL   C21233512   6.524   0.262   0.834  0.2718  0.3277  0.3993
  151MOL   O21333513   6.595   0.354   0.818  0.6381  0.1315 -0.3579
  151MOL   C21433514   6.429   0.219   0.721  0.6860  0.4022  0.5961
  151MOL   C21533515   6.523   0.023   0.932 -0.4358 -0.0067 -0.7296
  151MOL   H21633516   6.627   0.202   0.999  0.2245 -0.3755 -0.0023
  151MOL   H21733517   6.466   0.144   0.652 -0.0818 -0.0751  0.6896
  151MOL   H21833518   6.338   0.179   0.767  0.9880 -1.1158 -0.1350
  151MOL   H21933519   6.407   0.303   0.656  1.2666  1.7294  2.0610
  151MOL   H22033520   6.601   7.837   0.862 -1.5503 -0.3815 -1.8513
  151MOL   H22133521   6.424   7.830   0.902  0.0484 -0.8163 -1.4022
  151MOL   H22233522   6.544   7.807   1.021 -2.8473 -0.7186 -0.5820
  152MOL     C133523   5.864   7.112   2.042 -0.1132 -0.3423  0.7252
  152MOL     C233524   5.733   7.178   2.080  0.1430 -0.3150 -0.0178
  152MOL     O333525   5.727   7.273   2.158  0.0084  0.3657  0.5424
  152MOL     C433526   5.612   7.121   2.014  0.1935 -0.2657  0.1969
  152MOL     C533527   5.880   6.985   2.124 -0.1658  0.2527  0.0744
  152MOL     H633528   5.885   7.105   1.935  0.1347 -0.2440  0.7671
  152MOL     H733529   5.585   7.022   2.049 -1.2817 -0.3806 -1.1926
  152MOL     H833530   5.520   7.180   2.020 -1.1143 -1.6443 -4.2972
  152MOL     H933531   5.625   7.116   1.906 -3.1244  1.2253 -0.3407
  152MOL    H1033532   5.972   6.938   2.088 -1.2398 -2.3443  0.6590
  152MOL    H1133533   5.801   6.915   2.097  1.4051 -1.2096 -0.8237
  152MOL    H1233534   5.939   7.187   2.065 -0.5253  0.5622 -0.7889
  152MOL    C1333535   5.892   7.004   2.282  0.3897 -0.2102  0.4929
  152MOL    C1433536   6.012   7.088   2.322 -0.9788  0.3224 -0.0428
  152MOL    O1533537   6.127   7.034   2.325 -0.1768  0.3805 -0.4241
  152MOL    C1633538   5.991   7.239   2.363  0.1746  0.1803 -0.4640
  152MOL    C1733539   5.881   6.867   2.356 -0.0343 -0.4986  0.2124
  152MOL    H1833540   5.802   7.061   2.305 -0.5876 -0.8758 -1.6222
  152MOL    H1933541   5.893   7.258   2.406 -0.0464  1.2036 -1.4008
  152MOL    H2033542   6.077   7.268   2.424  0.0989 -2.7578  1.1399
  152MOL    H2133543   5.986   7.293   2.269 -2.6857  1.8580  0.5859
  152MOL    H2233544   5.981   6.834   2.382  1.4751  1.1023 -3.3164
  152MOL    H2333545   5.856   6.789   2.283 -0.2251  0.7929 -1.1305
  152MOL    C2433546   5.789   6.845   2.476 -0.4283 -0.0660  0.0282
  152MOL    C2533547   5.654   6.835   2.416 -0.6062 -0.2572 -0.2189
  152MOL    O2633548   5.572   6.919   2.449 -0.2049  0.1107 -0.3218
  152MOL    C2733549   5.612   6.707   2.351 -0.4999 -0.4025 -0.2784
  152MOL    C2833550   5.808   6.947   2.590  0.7405 -1.0354  0.3892
  152MOL    H2933551   5.812   6.746   2.517 -0.4535  0.8044  2.2085
  152MOL    H3033552   5.509   6.727   2.321  0.4244  0.2648 -3.1587
  152MOL    H3133553   5.658   6.696   2.253  1.5628  1.4821  0.4472
  152MOL    H3233554   5.631   6.616   2.408  0.4553 -0.1133 -0.1366
  152MOL    H3333555   5.795   7.044   2.543 -1.2175 -1.3507  0.2290
  152MOL    H3433556   5.916   6.948   2.609  1.3814  0.1407 -3.0619
  152MOL    C3533557   5.717   6.927   2.721  0.5208  1.0658 -0.0871
  152MOL    C3633558   5.736   7.059   2.802 -0.6333 -0.4688 -0.0949
  152MOL    O3733559   5.830   7.073   2.875 -0.2856 -0.0632  0.4107
  152MOL    C3833560   5.637   7.170   2.777  0.4063 -0.0278  0.5198
  152MOL    C3933561   5.744   6.803   2.800 -0.0811  0.1653 -0.8761
  152MOL    H4033562   5.614   6.915   2.687  0.3500 -0.4758  0.9453
  152MOL    H4133563   5.534   7.141   2.794 -0.0761  1.0209 -0.5071
  152MOL    H4233564   5.662   7.248   2.849  0.8893  0.6842 -0.4007
  152MOL    H4333565   5.638   7.208   2.675 -2.0882  1.3244  0.9561
  152MOL    H4433566   5.839   6.812   2.854  0.1405 -0.1845 -1.2051
  152MOL    H4533567   5.776   6.718   2.739  1.6303 -0.9488  1.4629
  152MOL    C4633568   5.621   6.755   2.878  0.4308 -0.2083 -0.3446
  152MOL    C4733569   5.650   6.659   3.001  0.7760 -0.0620  0.3975
  152MOL    O4833570   5.750   6.586   3.006 -0.2946 -0.4198  0.1986
  152MOL    C4933571   5.549   6.652   3.111  0.2038 -0.2305 -0.2361
  152MOL    C5033572   5.519   6.674   2.788  0.7080  0.3459 -0.4976
  152MOL    H5133573   5.585   6.839   2.937  2.6656  0.2011  0.4840
  152MOL    H5233574   5.616   6.663   3.196 -2.4747  0.4968  1.8273
  152MOL    H5333575   5.473   6.730   3.105  0.0612 -0.4779 -1.9945
  152MOL    H5433576   5.495   6.557   3.106 -0.0488 -0.0181 -1.7178
  152MOL    H5533577   5.552   6.571   2.785  0.5447  0.2556  0.5862
  152MOL    H5633578   5.515   6.719   2.689 -4.1148  1.4199  0.0689
  152MOL    C5733579   5.365   6.674   2.830  0.5019 -0.0088  0.4481
  152MOL    C5833580   5.296   6.605   2.712  0.3190 -0.2757 -0.2868
  152MOL    O5933581   5.216   6.667   2.640 -0.8276 -0.2035 -0.6374
  152MOL    C6033582   5.323   6.451   2.698 -0.3231  0.1205  0.6325
  152MOL    C6133583   5.312   6.816   2.864  0.3891  0.3881 -0.5607
  152MOL    H6233584   5.360   6.609   2.918  0.2038  0.5595  0.8498
  152MOL    H6333585   5.240   6.406   2.643  1.3431  0.2563 -2.0876
  152MOL    H6433586   5.421   6.414   2.670  0.0376  0.3936  1.5267
  152MOL    H6533587   5.299   6.416   2.798 -1.1988  1.7522  1.0197
  152MOL    H6633588   5.327   6.885   2.782  1.4048  2.4364  1.2968
  152MOL    H6733589   5.365   6.853   2.951 -0.2796  1.5125 -0.6240
  152MOL    C6833590   5.158   6.828   2.908  0.5084 -0.1938 -0.1931
  152MOL    C6933591   5.123   6.975   2.936  0.2692  0.7870 -0.4252
  152MOL    O7033592   5.200   7.047   2.991 -0.4849  0.7866 -0.0462
  152MOL    C7133593   4.981   7.021   2.916 -0.0725  0.1315 -0.0776
  152MOL    C7233594   5.117   6.726   3.020 -0.9139  0.7991  0.9774
  152MOL    H7333595   5.090   6.799   2.828  0.8407 -1.2224 -0.1129
  152MOL    H7433596   4.965   7.116   2.865 -0.3498 -0.1901 -0.6007
  152MOL    H7533597   4.921   6.954   2.855 -1.3718  1.1107  0.1109
  152MOL    H7633598   4.925   7.027   3.009  0.1719 -1.4640  0.1883
  152MOL    H7733599   5.185   6.731   3.106  1.3550 -0.0459 -0.7062
  152MOL    H7833600   5.131   6.626   2.980 -1.0504  1.5436 -0.9685
  152MOL    C7933601   4.965   6.716   3.073 -0.1583 -0.4086  0.2265
  152MOL    C8033602   4.967   6.677   3.223  0.0665 -0.6821 -0.3129
  152MOL    O8133603   4.948   6.560   3.257 -0.0408  0.6089  0.0496
  152MOL    C8233604   4.978   6.795   3.322  0.2004 -0.4508  0.1324
  152MOL    C8333605   4.886   6.616   2.985  0.2484  0.7378 -0.4018
  152MOL    H8433606   4.915   6.812   3.058 -0.1612 -0.2649  1.1543
  152MOL    H8533607   5.053   6.872   3.303 -0.6917  0.3882 -0.0481
  152MOL    H8633608   4.890   6.859   3.330  0.8567  0.6564 -1.1475
  152MOL    H8733609   4.995   6.753   3.420 -3.3742  0.3808  1.1837
  152MOL    H8833610   4.925   6.516   3.004  0.5873  1.1326  1.0365
  152MOL    H8933611   4.897   6.634   2.878  0.9348  2.1184 -0.1165
  152MOL    C9033612   4.736   6.624   3.018  0.1877 -0.7795 -0.8254
  152MOL    C9133613   4.673   6.487   3.010 -0.0110  0.2937  0.3790
  152MOL    O9233614   4.617   6.438   2.913 -0.7474 -0.4763 -0.6593
  152MOL    C9333615   4.692   6.405   3.140 -1.3399 -0.1291  0.4418
  152MOL    C9433616   4.663   6.737   2.944  0.0721 -0.0484 -0.3063
  152MOL    H9533617   4.725   6.644   3.124 -0.8213  0.3313 -1.1345
  152MOL    H9633618   4.723   6.467   3.225 -0.0494 -0.1913  0.0339
  152MOL    H9733619   4.601   6.351   3.163 -1.5318  0.2418  0.5572
  152MOL    H9833620   4.768   6.332   3.112  0.2542  1.3888  0.6631
  152MOL    H9933621   4.632   6.707   2.844 -0.4764 -4.0341  0.9874
  152MOL   H10033622   4.721   6.828   2.930  1.0951 -0.7888 -0.9528
  152MOL   C10133623   4.535   6.794   3.013 -0.2213  0.0437  1.0637
  152MOL   C10233624   4.556   6.863   3.152  0.1079 -0.4536  0.4108
  152MOL   O10333625   4.549   6.796   3.259 -0.3611 -0.0043  0.5233
  152MOL   C10433626   4.604   7.007   3.154  0.3647  0.7730  0.1107
  152MOL   C10533627   4.405   6.709   3.013 -0.1072  0.0662 -0.5383
  152MOL   H10633628   4.511   6.872   2.941  0.3516 -2.5690 -2.1237
  152MOL   H10733629   4.644   7.029   3.253  0.2839 -1.0483  0.5634
  152MOL   H10833630   4.671   7.036   3.073  0.8146  1.0125  0.5651
  152MOL   H10933631   4.518   7.073   3.145 -0.9764 -0.8210  0.9656
  152MOL   H11033632   4.333   6.785   3.045 -0.3817  0.0586 -1.1276
  152MOL   H11133633   4.398   6.629   3.086 -1.1159 -0.3911 -1.1257
  152MOL   C11233634   4.356   6.659   2.875 -0.0178 -0.2299 -0.2198
  152MOL   C11333635   4.349   6.769   2.767 -0.1012  0.4268  0.5292
  152MOL   O11433636   4.404   6.754   2.660  0.0719 -0.5830 -0.3321
  152MOL   C11533637   4.279   6.901   2.783 -0.1986 -0.6866 -0.6123
  152MOL   C11633638   4.224   6.578   2.883 -0.1048  1.0563  0.2153
  152MOL   H11733639   4.437   6.594   2.845  1.6974  0.5375  2.5382
  152MOL   H11833640   4.170   6.904   2.779 -0.3923 -4.0686  0.0612
  152MOL   H11933641   4.308   6.944   2.878  1.4245 -0.3353 -1.2507
  152MOL   H12033642   4.324   6.965   2.707  1.4783  1.0395  1.7514
  152MOL   H12133643   4.151   6.607   2.807 -1.0688 -0.9482  0.3426
  152MOL   H12233644   4.182   6.601   2.981  1.3959  0.5541  0.9870
  152MOL   C12333645   4.233   6.426   2.858  0.6491 -0.1731  0.2640
  152MOL   C12433646   4.252   6.395   2.706 -0.4985  0.6397  0.1924
  152MOL   O12533647   4.174   6.436   2.616  0.6202 -0.4764  0.1222
  152MOL   C12633648   4.376   6.318   2.671 -0.1541 -0.2832 -0.4132
  152MOL   C12733649   4.119   6.353   2.926 -0.1544  0.3218  0.6168
  152MOL   H12833650   4.322   6.379   2.899 -1.5401 -0.5350  4.9780
  152MOL   H12933651   4.452   6.392   2.648  0.7763 -0.4958  1.8374
  152MOL   H13033652   4.417   6.258   2.753  0.1482 -0.1327 -0.4545
  152MOL   H13133653   4.356   6.254   2.585 -1.7059  1.1433 -1.1343
  152MOL   H13233654   4.039   6.359   2.852 -0.7847 -2.4516  1.0268
  152MOL   H13333655   4.085   6.405   3.016  0.1239  0.2920  0.7407
  152MOL   C13433656   4.151   6.196   2.962  0.0772 -1.1806  0.2264
  152MOL   C13533657   4.272   6.174   3.045 -0.4558  0.1613 -0.4722
  152MOL   O13633658   4.362   6.103   3.018 -0.2415 -0.2007  0.2654
  152MOL   C13733659   4.280   6.250   3.168 -0.1821 -0.6250  0.2413
  152MOL   C13833660   4.123   6.095   2.858 -0.0122  0.5286  0.4865
  152MOL   H13933661   4.075   6.160   3.032 -2.0465 -0.7664 -1.7859
  152MOL   H14033662   4.324   6.348   3.146 -1.6707 -0.1519 -0.7096
  152MOL   H14133663   4.184   6.279   3.212  0.4139  1.8258 -0.0087
  152MOL   H14233664   4.335   6.188   3.239 -0.1525 -0.1239  0.6610
  152MOL   H14333665   4.144   5.997   2.902  0.1290 -0.1949 -1.1608
  152MOL   H14433666   4.199   6.101   2.781 -0.4908 -1.4544 -0.1685
  152MOL   C14533667   3.978   6.100   2.794  0.0711 -0.3328  0.1205
  152MOL   C14633668   3.875   6.019   2.882 -0.1650 -0.9295  0.0757
  152MOL   O14733669   3.823   5.921   2.841 -0.5068 -0.0119 -0.5133
  152MOL   C14833670   3.831   6.084   3.013  0.0133 -0.3491  0.4722
  152MOL   C14933671   3.975   6.061   2.643  0.6771 -0.1075 -0.1583
  152MOL   H15033672   3.946   6.204   2.797 -2.3438 -1.0801  1.0197
  152MOL   H15133673   3.908   6.065   3.088 -1.0899  0.3266  1.7954
  152MOL   H15233674   3.822   6.192   3.009 -1.3277 -0.4925 -0.9644
  152MOL   H15333675   3.739   6.043   3.053 -0.0836  0.7897  1.4442
  152MOL   H15433676   3.994   5.954   2.639  0.0329 -0.1965 -1.0240
  152MOL   H15533677   4.062   6.102   2.592  1.4594 -0.7022  0.6904
  152MOL   C15633678   3.834   6.090   2.583  0.7104  0.5075  0.6316
  152MOL   C15733679   3.808   5.979   2.478  0.6781  0.4811 -0.2417
  152MOL   O15833680   3.853   5.989   2.362 -0.1760  0.3706 -0.2791
  152MOL   C15933681   3.730   5.857   2.522  0.3299  0.0318 -0.4094
  152MOL   C16033682   3.801   6.233   2.532 -0.4702  0.2635 -0.5321
  152MOL   H16133683   3.763   6.056   2.658  1.1458 -1.3121  0.2367
  152MOL   H16233684   3.624   5.872   2.538  0.4893 -0.6516  1.3528
  152MOL   H16333685   3.733   5.774   2.451  0.0706 -1.0936  0.8839
  152MOL   H16433686   3.771   5.820   2.616 -3.1262  0.1698  1.2157
  152MOL   H16533687   3.823   6.242   2.425  4.3959  0.9367  0.4018
  152MOL   H16633688   3.875   6.305   2.569  0.2575 -0.0102 -1.4304
  152MOL   C16733689   3.661   6.288   2.562 -0.2132 -0.7828 -0.2428
  152MOL   C16833690   3.556   6.192   2.518 -0.9863  0.1302  0.2442
  152MOL   O16933691   3.544   6.173   2.400  0.1158  0.1088 -0.1968
  152MOL   C17033692   3.464   6.128   2.619  1.1309  0.2309 -0.0685
  152MOL   C17133693   3.638   6.426   2.493  0.5995  0.5044  0.0027
  152MOL   H17233694   3.663   6.305   2.670  0.3551 -4.5559  0.3944
  152MOL   H17333695   3.519   6.070   2.693  0.0315 -2.6230 -1.3929
  152MOL   H17433696   3.406   6.207   2.667  0.3139  0.0331 -0.7230
  152MOL   H17533697   3.394   6.060   2.570  1.8172 -1.0104  0.6563
  152MOL   H17633698   3.623   6.416   2.385 -1.0054 -1.5451  0.3816
  152MOL   H17733699   3.730   6.482   2.504  0.3742  0.8601  0.0811
  152MOL   C17833700   3.516   6.509   2.553  0.0595  0.8449  0.0302
  152MOL   C17933701   3.493   6.638   2.474 -0.2742  0.7961 -0.3025
  152MOL   O18033702   3.587   6.694   2.420  0.7278 -0.8046  0.3112
  152MOL   C18133703   3.359   6.701   2.469 -0.3935 -0.6740 -0.0422
  152MOL   C18233704   3.527   6.546   2.703 -0.3423  0.4916  0.0449
  152MOL   H18333705   3.423   6.453   2.543  0.4767  0.1605  0.0034
  152MOL   H18433706   3.303   6.657   2.552 -3.6522 -1.0980 -2.3747
  152MOL   H18533707   3.368   6.810   2.465  0.0111 -0.6875  0.4317
  152MOL   H18633708   3.315   6.678   2.372  1.5354  4.0533 -2.1761
  152MOL   H18733709   3.528   6.459   2.768 -1.7736 -0.5980 -1.3392
  152MOL   H18833710   3.430   6.589   2.730 -0.0076 -0.2470  2.5447
  152MOL   C18933711   3.640   6.632   2.752 -0.3671 -0.1475 -1.6332
  152MOL   C19033712   3.772   6.551   2.766  0.6800  0.2655 -0.5439
  152MOL   O19133713   3.768   6.448   2.834  0.2151 -0.0763  0.3908
  152MOL   C19233714   3.894   6.608   2.699 -0.4394 -0.2374 -0.0466
  152MOL   C19333715   3.608   6.718   2.871 -0.2450  0.1549 -0.2356
  152MOL   H19433716   3.652   6.707   2.673  1.5552  0.8447 -0.4448
  152MOL   H19533717   3.866   6.664   2.610 -1.7478 -0.6913  0.0657
  152MOL   H19633718   3.940   6.681   2.765  0.0604  0.4381 -1.1222
  152MOL   H19733719   3.975   6.537   2.680  1.4193  1.4681  1.3203
  152MOL   H19833720   3.702   6.715   2.926 -1.3176 -0.5822  1.5952
  152MOL   H19933721   3.545   6.677   2.950  1.8247 -2.1611  0.2490
  152MOL   C20033722   3.591   6.875   2.839 -0.7266 -0.2787  0.5186
  152MOL   C20133723   3.479   6.904   2.735 -0.2707  0.1096  0.5880
  152MOL   O20233724   3.502   6.939   2.618 -0.0300  0.2871 -0.0059
  152MOL   C20333725   3.336   6.900   2.784 -0.0497  0.5543 -0.1894
  152MOL   C20433726   3.728   6.941   2.793  0.7031  0.2795 -0.4059
  152MOL   H20533727   3.560   6.914   2.936 -1.9922  1.2248 -0.4771
  152MOL   H20633728   3.314   6.968   2.866  0.1556  0.1273  0.2254
  152MOL   H20733729   3.270   6.913   2.699 -2.6812  0.4323  1.7683
  152MOL   H20833730   3.306   6.800   2.815 -0.4047  0.6169 -0.3302
  152MOL   H20933731   3.755   6.898   2.697 -0.6714  0.1685 -0.7540
  152MOL   H21033732   3.792   6.910   2.876 -0.2760  1.2727  0.7419
  152MOL   C21133733   3.741   7.090   2.785 -0.1683 -0.4750  0.0172
  152MOL   C21233734   3.878   7.127   2.722 -0.0230 -0.2315  0.5627
  152MOL   O21333735   3.986   7.116   2.781 -0.1826 -0.0514 -0.3383
  152MOL   C21433736   3.882   7.188   2.582 -0.1550 -0.0129  0.1541
  152MOL   C21533737   3.719   7.162   2.923  0.3906 -0.4482 -0.2028
  152MOL   H21633738   3.660   7.137   2.729  0.4922  1.6886  0.8124
  152MOL   H21733739   3.929   7.286   2.593  1.8925 -1.0048  0.4977
  152MOL   H21833740   3.940   7.136   2.506  0.0032 -1.2994  1.1402
  152MOL   H21933741   3.783   7.205   2.540 -1.5876  1.0671  3.7467
  152MOL   H22033742   3.769   7.127   3.014  1.6850 -0.7061 -1.0076
  152MOL   H22133743   3.614   7.173   2.950  0.8476 -1.3678  2.1242
  152MOL   H22233744   3.750   7.266   2.923  1.7670 -0.8297 -2.8066
  153MOL     C133745   0.077   7.193   2.884 -0.1681 -0.1166 -0.3434
  153MOL     C233746   0.145   7.267   2.999 -0.5700  0.0948  0.4387
  153MOL     O333747   0.123   7.388   3.028  0.5051  0.4984  0.5065
  153MOL     C433748   0.218   7.185   3.093 -0.0699 -0.6877  0.2015
  153MOL     C533749   0.164   7.173   2.761  0.0187  0.4780  0.6356
  153MOL     H633750   0.048   7.095   2.921  1.8034 -0.4898  0.2594
  153MOL     H733751   0.269   7.251   3.163  0.7951 -0.4063 -0.6943
  153MOL     H833752   0.166   7.102   3.142 -0.1807  1.3164  3.6774
  153MOL     H933753   0.297   7.141   3.032 -0.1483  0.1196 -0.4923
  153MOL    H1033754   0.244   7.106   2.791 -1.1207 -0.7598  0.9785
  153MOL    H1133755   0.207   7.271   2.738 -0.2199  0.6994  1.1231
  153MOL    H1233756   7.828   7.249   2.864 -0.4143  0.1121  1.3424
  153MOL    C1333757   0.082   7.131   2.636  0.1851  0.1880  0.1387
  153MOL    C1433758   0.022   6.994   2.646 -0.0706 -0.4054 -0.2119
  153MOL    O1533759   0.087   6.892   2.655  0.1908 -0.2077  0.6185
  153MOL    C1633760   7.710   6.973   2.634 -0.3065 -0.0577  0.3367
  153MOL    C1733761   0.164   7.144   2.508 -0.2700  0.1770 -0.9011
  153MOL    H1833762   7.835   7.192   2.621  1.0541  1.9092  1.8260
  153MOL    H1933763   7.641   7.048   2.673 -0.2163 -0.1601  0.7000
  153MOL    H2033764   7.678   6.961   2.531 -1.8342  1.2105  0.6592
  153MOL    H2133765   7.688   6.884   2.694 -1.1021 -1.6245 -2.2239
  153MOL    H2233766   0.201   7.241   2.477  0.8219 -0.2823 -1.0699
  153MOL    H2333767   0.095   7.124   2.425  0.4153 -0.2582 -1.3697
  153MOL    C2433768   0.301   7.057   2.492  0.3735  0.6823  0.1837
  153MOL    C2533769   0.423   7.130   2.557 -0.4582  0.5269  0.5268
  153MOL    O2633770   0.419   7.249   2.569  0.3546 -0.5674  0.0822
  153MOL    C2733771   0.549   7.047   2.590 -0.6044  0.8919  0.4053
  153MOL    C2833772   0.342   7.037   2.346 -0.1457 -0.0595  0.2049
  153MOL    H2933773   0.291   6.965   2.549  3.2700  0.6641  0.7457
  153MOL    H3033774   0.643   7.101   2.574 -0.8987  0.3485 -3.5375
  153MOL    H3133775   0.540   7.011   2.693 -0.4949 -2.6843 -0.7676
  153MOL    H3233776   0.547   6.962   2.523 -0.5538  0.6016  0.7652
  153MOL    H3333777   0.446   7.007   2.336 -0.0892  0.9994 -2.9096
  153MOL    H3433778   0.336   7.140   2.312 -1.8578  0.4657  2.0212
  153MOL    C3533779   0.262   6.936   2.264  0.1091 -0.1132 -0.1642
  153MOL    C3633780   0.278   6.787   2.312 -0.1454  0.1423 -0.4615
  153MOL    O3733781   0.387   6.733   2.343  0.1526 -1.0678 -0.5056
  153MOL    C3833782   0.158   6.694   2.295  1.4845  0.0368 -0.2964
  153MOL    C3933783   0.300   6.956   2.121 -0.6052 -0.0128 -0.7397
  153MOL    H4033784   0.160   6.972   2.277  0.0839 -0.7633  1.5042
  153MOL    H4133785   0.164   6.634   2.204  1.6903  0.4537 -0.5575
  153MOL    H4233786   0.138   6.648   2.392 -2.1733  2.2681  0.1110
  153MOL    H4333787   0.064   6.747   2.283  0.9087 -1.4266 -2.4698
  153MOL    H4433788   0.277   7.058   2.092 -0.6424  0.1285 -0.2084
  153MOL    H4533789   0.238   6.887   2.063 -0.5525 -0.6559 -0.0425
  153MOL    C4633790   0.449   6.923   2.076  0.5527 -0.0455 -0.4136
  153MOL    C4733791   0.511   7.058   2.032 -0.0917 -1.2167  0.6555
  153MOL    O4833792   0.492   7.098   1.915  0.2008 -0.2939  0.0500
  153MOL    C4933793   0.595   7.142   2.130 -0.0924  0.2529 -0.0169
  153MOL    C5033794   0.457   6.821   1.962 -0.0838  0.7187 -0.3749
  153MOL    H5133795   0.501   6.890   2.166 -1.7537 -0.3851  0.8120
  153MOL    H5233796   0.695   7.150   2.088  0.5795 -1.0557  1.2840
  153MOL    H5333797   0.549   7.241   2.127  2.2490  1.3510 -0.6065
  153MOL    H5433798   0.599   7.127   2.238  0.7814 -0.8688 -0.1933
  153MOL    H5533799   0.396   6.864   1.882  0.4943 -0.1135 -1.2849
  153MOL    H5633800   0.418   6.723   1.989  1.4753  0.6039  1.5577
  153MOL    C5733801   0.601   6.794   1.904 -0.4571 -0.2498  0.4578
  153MOL    C5833802   0.588   6.701   1.785 -0.2022 -0.5917  0.3772
  153MOL    O5933803   0.544   6.589   1.811 -0.1696  0.3935 -0.2306
  153MOL    C6033804   0.599   6.755   1.641 -0.0283 -0.6453 -0.4898
  153MOL    C6133805   0.697   6.740   2.017  0.0329 -0.1087  0.4619
  153MOL    H6233806   0.639   6.888   1.863  0.9782 -1.1850 -0.4193
  153MOL    H6333807   0.675   6.831   1.627  0.1277 -0.9512 -1.3094
  153MOL    H6433808   0.627   6.669   1.581 -0.0484 -1.1614  0.2221
  153MOL    H6533809   0.503   6.795   1.607 -0.4281 -2.1544 -1.2214
  153MOL    H6633810   0.673   6.640   2.053 -0.1236 -0.7265 -1.3299
  153MOL    H6733811   0.679   6.808   2.100  1.6970 -1.2871  1.8215
  153MOL    C6833812   0.847   6.753   1.990  0.6893  0.6602 -0.8453
  153MOL    C6933813   0.887   6.894   1.945  1.0803 -0.5410  0.3307
  153MOL    O7033814   0.870   6.933   1.828  0.1470  0.1382 -0.3356
  153MOL    C7133815   0.935   6.985   2.060 -0.0078  0.7329 -0.5580
  153MOL    C7233816   0.909   6.636   1.912  0.0522  0.1390 -0.7198
  153MOL    H7333817   0.899   6.744   2.085  1.0978 -1.1429 -1.2228
  153MOL    H7433818   0.850   7.006   2.126 -0.4327 -0.3075 -0.7533
  153MOL    H7533819   1.007   6.925   2.116 -0.1518  0.7920 -0.3084
  153MOL    H7633820   0.982   7.077   2.027 -1.0026  1.2480 -0.5841
  153MOL    H7733821   0.865   6.646   1.813  0.8950 -1.2009 -1.2482
  153MOL    H7833822   0.879   6.539   1.952  1.6379 -0.5558 -1.1646
  153MOL    C7933823   1.066   6.649   1.902  0.7941 -0.8518 -0.6894
  153MOL    C8033824   1.113   6.543   1.804 -0.3037  0.4122 -0.3461
  153MOL    O8133825   1.062   6.429   1.810  0.2337  0.2091 -0.3006
  153MOL    C8233826   1.204   6.570   1.693  0.0338  0.0749  0.4029
  153MOL    C8333827   1.138   6.633   2.043  0.4454  0.2637  0.3620
  153MOL    H8433828   1.079   6.748   1.858 -2.3576  0.1954  0.5815
  153MOL    H8533829   1.251   6.472   1.682  1.8804  0.6518  2.8393
  153MOL    H8633830   1.151   6.601   1.603 -0.4259  0.9745  0.9836
  153MOL    H8733831   1.280   6.642   1.721 -1.2736  1.1507  1.2267
  153MOL    H8833832   1.193   6.538   2.044  0.8992  0.5241  0.3861
  153MOL    H8933833   1.063   6.628   2.122  1.7170 -0.5786  1.5404
  153MOL    C9033834   1.234   6.750   2.061  0.5428  0.2652  0.6355
  153MOL    C9133835   1.352   6.741   1.960 -0.5299  0.2823  1.0352
  153MOL    O9233836   1.417   6.639   1.954 -0.1117  0.2592 -0.0263
  153MOL    C9333837   1.380   6.855   1.868  0.0858  0.5002  0.1058
  153MOL    C9433838   1.274   6.769   2.208  0.3512 -1.0801 -0.3936
  153MOL    H9533839   1.174   6.840   2.049  0.4379  0.3649  1.8942
  153MOL    H9633840   1.295   6.856   1.799  0.3295  0.5952 -0.1949
  153MOL    H9733841   1.397   6.948   1.922 -1.1928  0.5775  0.3923
  153MOL    H9833842   1.472   6.831   1.815  0.8467 -1.3892  2.2259
  153MOL    H9933843   1.363   6.707   2.224  0.8838  0.3243  2.4318
  153MOL   H10033844   1.198   6.728   2.275  0.0611 -2.9024 -1.8119
  153MOL   C10133845   1.313   6.911   2.244 -0.7330  0.1933  0.4151
  153MOL   C10233846   1.455   6.959   2.203 -0.5387  0.3586  0.0682
  153MOL   O10333847   1.542   6.874   2.179  0.3695  0.2072 -0.0759
  153MOL   C10433848   1.483   7.107   2.198 -0.3100 -0.0735  0.1498
  153MOL   C10533849   1.302   6.948   2.390 -0.8682 -0.1075 -0.4269
  153MOL   H10633850   1.252   6.979   2.184 -0.1629 -1.1718 -1.7429
  153MOL   H10733851   1.567   7.111   2.129 -0.7256  1.1321 -0.3006
  153MOL   H10833852   1.409   7.174   2.154  0.4593 -0.3667 -1.6624
  153MOL   H10933853   1.516   7.154   2.291  3.0457 -4.1773  1.1781
  153MOL   H11033854   1.333   7.053   2.390 -0.1236 -0.3068  1.0223
  153MOL   H11133855   1.384   6.903   2.446 -0.0470  0.6732 -0.9817
  153MOL   C11233856   1.167   6.943   2.462 -0.2701  0.3352 -0.7770
  153MOL   C11333857   1.067   7.048   2.419 -0.1705 -0.2412  0.3314
  153MOL   O11433858   1.103   7.158   2.377  0.0661  0.4217  0.3781
  153MOL   C11533859   0.916   7.017   2.436 -0.3266 -0.0544  0.2601
  153MOL   C11633860   1.193   6.963   2.614 -0.0128  0.0386  0.2507
  153MOL   H11733861   1.128   6.843   2.445  2.7497 -1.4686  2.2064
  153MOL   H11833862   0.883   6.982   2.339  1.1937  0.2213 -0.3757
  153MOL   H11933863   0.891   6.936   2.505  0.3142  0.4725  1.1220
  153MOL   H12033864   0.856   7.102   2.467  0.5679  1.4444 -1.9793
  153MOL   H12133865   1.098   6.977   2.667  0.9561  1.3675  1.6856
  153MOL   H12233866   1.237   7.061   2.626 -0.1340 -0.0894  1.8972
  153MOL   C12333867   1.266   6.853   2.692  0.8547  0.0366  0.6349
  153MOL   C12433868   1.236   6.705   2.642 -0.4009 -0.4413 -0.7792
  153MOL   O12533869   1.123   6.660   2.636  0.6509  0.0203 -0.1297
  153MOL   C12633870   1.355   6.608   2.609  0.6528  1.0088  0.3134
  153MOL   C12733871   1.248   6.863   2.850  0.0951 -0.1025  0.3560
  153MOL   H12833872   1.369   6.866   2.659  1.0377  0.5690  1.3982
  153MOL   H12933873   1.390   6.600   2.506 -1.6874 -0.0318 -0.4564
  153MOL   H13033874   1.442   6.621   2.673 -0.0164 -3.4545  2.3261
  153MOL   H13133875   1.316   6.509   2.635  2.5100  0.0350 -0.4753
  153MOL   H13233876   1.149   6.824   2.875 -0.1119  0.4324  0.3764
  153MOL   H13333877   1.244   6.969   2.874 -0.7822  0.2327 -1.2409
  153MOL   C13433878   1.352   6.782   2.927  0.2982  0.2774  0.3300
  153MOL   C13533879   1.287   6.693   3.033  0.2409 -0.1369 -0.2457
  153MOL   O13633880   1.293   6.722   3.157 -0.2167 -0.3022  0.0288
  153MOL   C13733881   1.209   6.576   2.968  0.3789  0.3112 -0.2946
  153MOL   C13833882   1.466   6.872   2.977 -0.1619 -0.3580 -0.3273
  153MOL   H13933883   1.405   6.710   2.866  0.4471  0.9704 -0.3730
  153MOL   H14033884   1.148   6.608   2.883  0.2852  0.5506 -0.1393
  153MOL   H14133885   1.270   6.489   2.945  1.0526  1.0503 -1.3543
  153MOL   H14233886   1.134   6.537   3.037 -0.8796 -0.5002 -2.0951
  153MOL   H14333887   1.521   6.812   3.050  0.4767  1.5060  0.7588
  153MOL   H14433888   1.437   6.963   3.029 -0.1983 -0.3891 -0.2929
  153MOL   C14533889   1.573   6.910   2.870  0.3463  0.7860  0.0384
  153MOL   C14633890   1.656   6.796   2.817 -0.4801 -0.1254  0.4689
  153MOL   O14733891   1.652   6.765   2.696 -0.0479  0.2752  0.0010
  153MOL   C14833892   1.750   6.727   2.909 -0.1956 -0.1691 -0.3616
  153MOL   C14933893   1.664   7.026   2.912  0.4704  0.3418 -0.3095
  153MOL   H15033894   1.526   6.948   2.779  0.4566  0.4847 -0.1459
  153MOL   H15133895   1.847   6.710   2.863  0.6644  2.6030  0.3558
  153MOL   H15233896   1.782   6.789   2.992 -1.1708 -0.0218 -0.0811
  153MOL   H15333897   1.717   6.628   2.941  1.9889 -0.8587 -0.1723
  153MOL   H15433898   1.707   7.005   3.010  2.2292 -2.6648 -1.6726
  153MOL   H15533899   1.598   7.112   2.927 -1.2151 -1.2265  1.6457
  153MOL   C15633900   1.776   7.076   2.815  0.4760 -0.7490 -0.1110
  153MOL   C15733901   1.890   7.135   2.900  0.7232  0.4681  0.6355
  153MOL   O15833902   1.884   7.244   2.961  0.2972  0.1549 -0.1115
  153MOL   C15933903   2.010   7.040   2.918 -0.2180 -0.0075  1.0599
  153MOL   C16033904   1.739   7.165   2.700  0.6968 -0.3193  0.1197
  153MOL   H16133905   1.813   6.988   2.762 -0.1411 -0.7777 -0.4949
  153MOL   H16233906   1.977   6.943   2.954 -0.1379 -0.6436 -0.5584
  153MOL   H16333907   2.056   7.022   2.821 -1.1314 -4.5925  1.3820
  153MOL   H16433908   2.086   7.079   2.986  1.0238 -0.5746 -0.0065
  153MOL   H16533909   1.735   7.262   2.750 -1.0576  0.9954 -2.4461
  153MOL   H16633910   1.635   7.150   2.670  1.0384 -2.5003 -0.0340
  153MOL   C16733911   1.832   7.165   2.574  0.2934 -0.0192 -0.4643
  153MOL   C16833912   1.850   7.032   2.506  0.0358 -0.3197  0.3218
  153MOL   O16933913   1.959   6.974   2.512  0.3379  0.1853 -0.1696
  153MOL   C17033914   1.729   6.953   2.448 -0.2689 -1.1038 -0.2773
  153MOL   C17133915   1.957   7.253   2.577 -0.1859  0.3655 -0.4118
  153MOL   H17233916   1.765   7.212   2.502 -2.5659  1.8028  3.2052
  153MOL   H17333917   1.729   6.961   2.339  2.9793  0.5370 -0.2348
  153MOL   H17433918   1.739   6.849   2.479 -2.7995 -0.9681  1.1120
  153MOL   H17533919   1.632   6.992   2.480 -0.8045  2.9461 -6.0847
  153MOL   H17633920   2.028   7.221   2.654  1.1163  1.4052 -1.1831
  153MOL   H17733921   1.921   7.347   2.619  0.6311  0.7268 -0.5196
  153MOL   C17833922   2.020   7.280   2.440  1.0608  0.3995 -0.2416
  153MOL   C17933923   2.171   7.290   2.456 -0.0465  0.8057 -0.2781
  153MOL   O18033924   2.227   7.399   2.430  0.7715 -0.0901  0.3970
  153MOL   C18133925   2.250   7.168   2.498  0.1887 -1.0580 -0.5275
  153MOL   C18233926   1.959   7.396   2.361 -0.2668  0.1363 -0.7041
  153MOL   H18333927   2.006   7.198   2.370  2.5262 -0.2038  0.1554
  153MOL   H18433928   2.313   7.136   2.415 -1.2815  1.4960 -2.7023
  153MOL   H18533929   2.304   7.186   2.591  0.4076  2.4838 -1.2956
  153MOL   H18633930   2.167   7.101   2.519 -0.4663 -0.6113 -1.6612
  153MOL   H18733931   2.024   7.483   2.374  1.1588 -1.1975  1.3745
  153MOL   H18833932   1.864   7.411   2.413  0.1920  0.5873  0.0122
  153MOL   C18933933   1.953   7.390   2.204  0.5238 -0.3580 -0.6691
  153MOL   C19033934   2.083   7.401   2.139  0.0266  0.5333 -0.4367
  153MOL   O19133935   2.132   7.510   2.106 -0.2789 -0.1052 -0.3989
  153MOL   C19233936   2.161   7.274   2.106  0.6010 -0.5655  0.0914
  153MOL   C19333937   1.849   7.497   2.158  0.1641  0.1864  0.4799
  153MOL   H19433938   1.927   7.287   2.181 -0.0841 -0.8291  1.9234
  153MOL   H19533939   2.243   7.295   2.038  0.3820 -0.4218 -0.1331
  153MOL   H19633940   2.216   7.232   2.190 -0.1823  1.5925  1.7329
  153MOL   H19733941   2.103   7.190   2.068 -0.1446 -0.3023  0.6290
  153MOL   H19833942   1.865   7.590   2.213 -0.1631  0.2370  0.4917
  153MOL   H19933943   1.754   7.455   2.189 -0.7528  1.7765 -0.1487
  153MOL   C20033944   1.841   7.537   2.011  0.3682  0.3998  0.6169
  153MOL   C20133945   1.699   7.598   1.986 -0.2625 -0.0108  0.5933
  153MOL   O20233946   1.609   7.544   1.927  0.8261 -0.4458 -0.2031
  153MOL   C20333947   1.681   7.748   2.025  0.5346 -0.5519  0.5172
  153MOL   C20433948   1.868   7.426   1.904 -0.2738 -0.3635 -0.6424
  153MOL   H20533949   1.911   7.616   1.985  0.2553  0.1618 -0.4211
  153MOL   H20633950   1.689   7.799   1.930  1.3782 -1.1439  0.2631
  153MOL   H20733951   1.583   7.758   2.072  0.0685 -1.2741 -0.2857
  153MOL   H20833952   1.763   7.772   2.094 -0.6768  0.6843  1.5554
  153MOL   H20933953   1.790   7.350   1.896  0.5536 -1.2807 -0.2180
  153MOL   H21033954   1.954   7.363   1.929  0.5385  1.2912  0.8643
  153MOL   C21133955   1.895   7.486   1.764  0.1296  0.0425 -0.6164
  153MOL   C21233956   1.956   7.385   1.667  0.1507 -0.3588 -0.0881
  153MOL   O21333957   2.063   7.332   1.696  0.1171  0.3748 -0.1657
  153MOL   C21433958   1.878   7.346   1.547 -0.3528 -0.9672  0.2006
  153MOL   C21533959   1.989   7.613   1.764 -0.3940 -0.2495  0.4409
  153MOL   H21633960   1.800   7.521   1.722 -0.1308  1.5688  1.1480
  153MOL   H21733961   1.940   7.289   1.478 -1.0250 -0.4739 -0.8277
  153MOL   H21833962   1.805   7.272   1.578 -2.3132  0.4767 -0.8466
  153MOL   H21933963   1.828   7.432   1.502  0.0078 -1.3259 -0.8975
  153MOL   H22033964   2.068   7.598   1.838  0.1812  1.7254  0.2576
  153MOL   H22133965   1.930   7.702   1.785 -0.6388  0.0611 -1.4615
  153MOL   H22233966   2.021   7.627   1.661 -3.3660 -0.1992 -0.5233
  154MOL     C133967   2.541   7.399   4.028 -0.3637 -0.5223  0.0165
  154MOL     C233968   2.495   7.392   4.172 -0.1485  0.6713  0.0690
  154MOL     O333969   2.370   7.395   4.193 -0.0492  0.0666  0.3500
  154MOL     C433970   2.603   7.421   4.278  0.2011  0.5667  0.1568
  154MOL     C533971   2.467   7.310   3.923 -0.3178 -0.5318  0.7987
  154MOL     H633972   2.565   7.502   4.001  0.2013 -0.7071 -0.1929
  154MOL     H733973   2.595   7.394   4.383 -0.0780 -0.1000 -0.0322
  154MOL     H833974   2.681   7.350   4.251 -1.1315 -1.0685  0.5458
  154MOL     H933975   2.636   7.525   4.268  0.1424  0.8251  2.4016
  154MOL    H1033976   2.414   7.225   3.965 -0.9094 -0.6225 -0.1156
  154MOL    H1133977   2.534   7.251   3.861 -0.4302  0.8100 -0.6318
  154MOL    H1233978   2.640   7.355   4.023  0.7207  1.7981  0.3289
  154MOL    C1333979   2.364   7.391   3.835  0.3017 -0.1264 -0.7707
  154MOL    C1433980   2.224   7.390   3.891  0.3774  0.5197  0.3029
  154MOL    O1533981   2.159   7.290   3.899  0.0748  0.2931  0.2449
  154MOL    C1633982   2.164   7.524   3.945 -0.1322  0.2658  0.0202
  154MOL    C1733983   2.361   7.333   3.687  0.0896  0.2040  0.8431
  154MOL    H1833984   2.394   7.496   3.828  1.3205 -0.5149 -2.6444
  154MOL    H1933985   2.135   7.575   3.853  0.1001  0.0190 -0.1907
  154MOL    H2033986   2.090   7.514   4.024 -0.2562 -0.0551 -0.1359
  154MOL    H2133987   2.236   7.593   3.988 -0.6856  0.7516  0.1676
  154MOL    H2233988   2.310   7.237   3.682  0.9330 -0.2026 -0.1975
  154MOL    H2333989   2.463   7.303   3.661  0.4916  1.7111  0.6095
  154MOL    C2433990   2.301   7.434   3.581 -0.8005 -0.7009  0.4405
  154MOL    C2533991   2.294   7.353   3.451  0.1674  0.5577  0.7370
  154MOL    O2633992   2.376   7.367   3.362  0.1193 -0.3286 -0.0420
  154MOL    C2733993   2.206   7.229   3.443 -0.3197  0.6167  0.1080
  154MOL    C2833994   2.376   7.573   3.558  1.1065  0.7219 -0.4241
  154MOL    H2933995   2.195   7.447   3.600 -0.4193  1.1895  1.4483
  154MOL    H3033996   2.142   7.237   3.531  2.1110 -3.2425  2.3919
  154MOL    H3133997   2.155   7.233   3.347 -0.6179 -0.5553  0.2114
  154MOL    H3233998   2.274   7.145   3.456 -0.1963  1.0326  2.2384
  154MOL    H3333999   2.337   7.637   3.638 -0.8905  1.1701 -1.7030
  154MOL    H3434000   2.344   7.622   3.466 -0.5943  2.1769  0.8820
  154MOL    C3534001   2.528   7.579   3.555 -0.1318 -0.6157 -0.9216
  154MOL    C3634002   2.589   7.596   3.693  0.4262 -0.1427 -0.3132
  154MOL    O3734003   2.530   7.660   3.779  0.5059  0.1479  0.4485
  154MOL    C3834004   2.719   7.532   3.731 -0.0277 -0.4735  0.5049
  154MOL    C3934005   2.589   7.688   3.463 -0.3506  0.1289  0.3380
  154MOL    H4034006   2.554   7.482   3.514  0.9001  0.2982 -2.4848
  154MOL    H4134007   2.698   7.435   3.775 -2.5477  0.0812  0.6193
  154MOL    H4234008   2.780   7.499   3.647  0.5693 -0.6556  1.0044
  154MOL    H4334009   2.776   7.575   3.813 -1.9452  1.6562  0.7919
  154MOL    H4434010   2.676   7.740   3.503  0.4679 -0.1467 -1.0383
  154MOL    H4534011   2.518   7.771   3.460 -0.2495  0.2420  0.9491
  154MOL    C4634012   2.643   7.626   3.325 -0.3587  0.3593  0.0980
  154MOL    C4734013   2.767   7.538   3.337  0.2603 -0.2901  0.2142
  154MOL    O4834014   2.861   7.574   3.404  0.0100  0.3587  1.2728
  154MOL    C4934015   2.767   7.397   3.282  0.3748 -0.4393 -1.0664
  154MOL    C5034016   2.668   7.734   3.217 -0.1409 -0.6765 -0.2512
  154MOL    H5134017   2.561   7.565   3.286 -1.5056  1.8580  0.1084
  154MOL    H5234018   2.871   7.373   3.259  0.0160 -0.9608 -2.1954
  154MOL    H5334019   2.721   7.326   3.351  0.9391 -2.5681 -2.8458
  154MOL    H5434020   2.723   7.388   3.182  0.9014  0.2282 -1.3622
  154MOL    H5534021   2.581   7.790   3.183 -0.3464 -2.1828 -2.2721
  154MOL    H5634022   2.701   7.672   3.134  0.3677 -1.9914  0.9181
  154MOL    C5734023   2.782   7.836   3.249 -0.3700  0.8179 -0.7005
  154MOL    C5834024   2.722   0.124   3.302  0.2213 -0.1728 -0.7668
  154MOL    O5934025   2.631   0.180   3.244 -0.4841 -0.2059 -0.2660
  154MOL    C6034026   2.782   0.185   3.428 -0.3568 -0.6219  0.0788
  154MOL    C6134027   2.868   0.019   3.126  0.0687 -0.8777 -0.3995
  154MOL    H6234028   2.843   7.801   3.332 -1.0195  2.6950  0.6145
  154MOL    H6334029   2.884   0.217   3.405 -0.6397  0.4636  0.3380
  154MOL    H6434030   2.707   0.260   3.452 -2.3394 -2.1680 -1.1830
  154MOL    H6534031   2.773   0.112   3.509 -0.7202 -0.7698 -0.0933
  154MOL    H6634032   2.905   0.121   3.131 -0.8349 -0.5945  0.5471
  154MOL    H6734033   2.805   0.018   3.037  0.9410  1.2796 -1.0920
  154MOL    C6834034   2.986   7.758   3.095 -0.2042  0.7449 -0.7932
  154MOL    C6934035   3.115   7.830   3.130  0.4960 -0.7886  0.2860
  154MOL    O7034036   3.193   0.009   3.038 -0.5427 -0.0141  0.6596
  154MOL    C7134037   3.138   0.044   3.272 -0.1104  0.2216  0.2709
  154MOL    C7234038   2.976   7.681   2.961 -0.0623  0.6275 -0.2262
  154MOL    H7334039   2.983   7.681   3.172  1.2937  1.9346  0.4969
  154MOL    H7434040   3.081   0.134   3.294  1.0099  0.2102  3.4652
  154MOL    H7534041   3.123   7.823   3.359  0.5746 -1.2264 -0.6296
  154MOL    H7634042   3.244   0.068   3.277 -0.6807  2.6993  1.1455
  154MOL    H7734043   2.952   7.753   2.882 -0.7752  0.9936  0.3190
  154MOL    H7834044   2.883   7.624   2.965 -1.0880  2.2860 -0.0564
  154MOL    C7934045   3.093   7.573   2.930 -0.4459 -1.3590  0.5588
  154MOL    C8034046   3.108   7.568   2.779  0.0502  0.2899 -0.4068
  154MOL    O8134047   3.026   7.512   2.709  0.4849  0.6501 -0.2242
  154MOL    C8234048   3.229   7.639   2.713 -0.8402 -0.3963  0.4213
  154MOL    C8334049   3.058   7.433   2.994  0.1331  0.1496 -0.1218
  154MOL    H8434050   3.189   7.612   2.964  0.1958 -0.9628 -1.6255
  154MOL    H8534051   3.199   7.717   2.642  0.5666 -1.4049 -1.3160
  154MOL    H8634052   3.298   7.673   2.790 -0.8455 -0.8892  0.6430
  154MOL    H8734053   3.278   7.557   2.660 -2.5676 -1.1159 -0.0998
  154MOL    H8834054   2.982   7.389   2.929  1.4241 -0.6594 -1.0985
  154MOL    H8934055   3.004   7.442   3.089  0.2523  0.7113 -0.1069
  154MOL    C9034056   3.169   7.333   3.020  0.4444  0.6555  0.0802
  154MOL    C9134057   3.246   7.276   2.898  0.5032  0.7705  0.6946
  154MOL    O9234058   3.362   7.306   2.879 -0.1391 -0.0320  0.4162
  154MOL    C9334059   3.169   7.199   2.791  0.4236  0.0371  0.5700
  154MOL    C9434060   3.142   7.223   3.128  0.2529  0.1962 -0.3219
  154MOL    H9534061   3.252   7.392   3.059  1.1729  0.2823 -0.8912
  154MOL    H9634062   3.071   7.246   2.778  0.7694  0.7537  0.5402
  154MOL    H9734063   3.222   7.200   2.696 -0.9604 -0.9643 -0.2291
  154MOL    H9834064   3.158   7.093   2.817 -1.0723 -0.9251 -3.6463
  154MOL    H9934065   3.093   7.270   3.213 -0.8519 -0.0632 -0.7925
  154MOL   H10034066   3.242   7.204   3.165  0.4250 -0.1633 -0.9662
  154MOL   C10134067   3.078   7.087   3.086 -0.7298  0.0674  0.6623
  154MOL   C10234068   2.937   7.106   3.019 -0.7488 -0.0674 -0.2880
  154MOL   O10334069   2.864   7.193   3.061  0.4757 -0.2706  0.3325
  154MOL   C10434070   2.894   7.013   2.911  0.3600  0.8598  0.4224
  154MOL   C10534071   3.062   6.982   3.200 -1.1282  0.0573  0.2817
  154MOL   H10634072   3.148   7.040   3.017 -1.5874  0.8832 -0.7869
  154MOL   H10734073   2.859   7.068   2.823  0.1843  0.4612  0.2402
  154MOL   H10834074   2.964   6.935   2.878 -0.4688  0.1722  0.2784
  154MOL   H10934075   2.803   6.971   2.953  0.5998 -0.7529 -0.6165
  154MOL   H11034076   3.043   6.887   3.151  1.7069  0.1169 -1.0412
  154MOL   H11134077   2.968   7.004   3.250 -0.1686  1.3934  1.5452
  154MOL   C11234078   3.186   6.951   3.287 -0.4384  0.1906  0.5552
  154MOL   C11334079   3.304   6.917   3.192  0.1979  0.0447  0.4868
  154MOL   O11434080   3.289   6.843   3.097  0.2136  0.5685 -0.2929
  154MOL   C11534081   3.443   6.972   3.235 -0.3182 -0.3560  0.9870
  154MOL   C11634082   3.155   6.838   3.386 -0.5280 -0.2270  0.1755
  154MOL   H11734083   3.198   7.041   3.346  0.5415 -0.5963  1.5794
  154MOL   H11834084   3.466   7.063   3.179  0.2431 -0.1382  1.5683
  154MOL   H11934085   3.445   6.990   3.342 -1.1311  1.0359  0.7829
  154MOL   H12034086   3.523   6.902   3.215 -1.6408 -1.3568 -1.0680
  154MOL   H12134087   3.139   6.748   3.328 -4.8926  0.9418 -0.5917
  154MOL   H12234088   3.053   6.849   3.422 -0.5260 -4.6763  1.8523
  154MOL   C12334089   3.255   6.806   3.502  0.1861 -0.6539  0.3491
  154MOL   C12434090   3.348   6.688   3.481  1.0231  0.1596  0.2704
  154MOL   O12534091   3.293   6.579   3.459 -0.2092 -0.1406  0.0812
  154MOL   C12634092   3.502   6.699   3.498  0.2161  0.7658 -0.3210
  154MOL   C12734093   3.194   6.792   3.638  0.3450 -0.3406  0.2144
  154MOL   H12834094   3.327   6.888   3.498 -1.5381  0.8457 -0.9202
  154MOL   H12934095   3.515   6.757   3.590 -0.7869 -1.4062  1.2281
  154MOL   H13034096   3.555   6.605   3.512 -0.3208  0.6290  0.8759
  154MOL   H13134097   3.554   6.757   3.423 -0.2699  1.1669 -0.3551
  154MOL   H13234098   3.260   6.757   3.718  0.4104  1.4207  0.9568
  154MOL   H13334099   3.101   6.736   3.632 -0.3316  0.8990 -0.9843
  154MOL   C13434100   3.159   6.932   3.694  0.2318  0.3761  0.1088
  154MOL   C13534101   3.289   7.001   3.741  0.0497  1.1187  0.2680
  154MOL   O13634102   3.352   6.953   3.837  0.6814 -0.6272  0.1235
  154MOL   C13734103   3.353   7.108   3.653  0.6523  0.1972 -0.0553
  154MOL   C13834104   3.058   6.925   3.811 -0.3917  0.2780  0.4588
  154MOL   H13934105   3.111   6.990   3.615  2.9355  0.8030 -1.2545
  154MOL   H14034106   3.438   7.064   3.601  0.5857  0.3928 -0.3290
  154MOL   H14134107   3.280   7.131   3.575  1.5450  1.2882 -0.5709
  154MOL   H14234108   3.388   7.199   3.703  1.2139 -0.6771  1.1625
  154MOL   H14334109   3.096   6.882   3.903 -1.5341 -1.3128  0.2132
  154MOL   H14434110   2.982   6.853   3.780 -0.1363 -1.1808  3.1165
  154MOL   C14534111   2.980   7.061   3.832  0.2084 -0.4071 -0.0048
  154MOL   C14634112   3.022   7.142   3.961 -0.6829  0.2104  0.3442
  154MOL   O14734113   3.100   7.092   4.043 -0.2320 -0.3817 -0.0327
  154MOL   C14834114   2.964   7.285   3.986 -0.4359 -0.6769  0.0290
  154MOL   C14934115   2.828   7.053   3.817  1.0115 -0.2443  0.0022
  154MOL   H15034116   3.022   7.126   3.756 -0.3426 -1.6729 -1.4057
  154MOL   H15134117   2.858   7.272   4.006 -0.2057  0.9098  2.5228
  154MOL   H15234118   3.016   7.335   4.068  3.5267 -1.2881 -1.9661
  154MOL   H15334119   2.988   7.353   3.903 -0.3512  2.6326  2.6360
  154MOL   H15434120   2.766   7.133   3.860 -1.8721 -0.3309 -3.7803
  154MOL   H15534121   2.809   6.966   3.880 -1.3471  1.9996  2.5438
  154MOL   C15634122   2.785   7.017   3.671 -0.0332  0.7019 -1.0473
  154MOL   C15734123   2.792   7.140   3.584  0.0167 -0.9386 -0.1979
  154MOL   O15834124   2.713   7.233   3.584 -0.1088  0.2868  0.0525
  154MOL   C15934125   2.908   7.153   3.491 -0.1620  0.6093 -0.7214
  154MOL   C16034126   2.662   6.932   3.661 -0.5439 -0.1570  0.7880
  154MOL   H16134127   2.864   6.948   3.639 -0.4483  0.3965 -1.4295
  154MOL   H16234128   2.975   7.237   3.508  0.7813 -0.2778  0.0491
  154MOL   H16334129   2.976   7.068   3.504 -2.1055 -0.8088  0.3822
  154MOL   H16434130   2.877   7.164   3.387  2.4861 -1.0866 -1.7646
  154MOL   H16534131   2.578   6.991   3.697 -0.3523 -0.2537  1.3976
  154MOL   H16634132   2.665   6.852   3.735 -0.1933 -1.6439 -0.7970
  154MOL   C16734133   2.612   6.874   3.521  0.3871 -0.2066 -0.1149
  154MOL   C16834134   2.721   6.807   3.444  0.1706 -0.8375 -0.1581
  154MOL   O16934135   2.778   6.859   3.346 -0.0474 -0.3500  0.3207
  154MOL   C17034136   2.769   6.677   3.501 -0.3476 -0.4801  0.2633
  154MOL   C17134137   2.533   6.975   3.428  0.1847 -0.1049  0.1011
  154MOL   H17234138   2.553   6.786   3.548  0.1410  0.0076  0.0591
  154MOL   H17334139   2.872   6.660   3.468 -0.4533  1.8847 -1.3433
  154MOL   H17434140   2.753   6.685   3.609 -1.4928  1.4702 -0.0384
  154MOL   H17534141   2.705   6.600   3.458  0.4086  0.1018 -1.9632
  154MOL   H17634142   2.606   7.049   3.393  1.4986 -1.8374 -0.9167
  154MOL   H17734143   2.466   7.028   3.496 -1.6282 -2.0935 -0.0722
  154MOL   C17834144   2.468   6.928   3.294  0.9690 -0.1430  0.1236
  154MOL   C17934145   2.434   7.050   3.206  0.5006  0.1926 -0.1185
  154MOL   O18034146   2.319   7.066   3.175  0.0722 -0.4068 -0.7629
  154MOL   C18134147   2.547   7.124   3.133 -0.4605  0.3586 -0.3263
  154MOL   C18234148   2.353   6.818   3.307 -0.5123  0.5067 -0.1495
  154MOL   H18334149   2.542   6.876   3.233  1.0080 -0.7196  0.6522
  154MOL   H18434150   2.557   7.226   3.168  0.1515  0.3353 -0.4213
  154MOL   H18534151   2.646   7.080   3.148 -0.9991 -1.5657 -2.1718
  154MOL   H18634152   2.531   7.122   3.025 -0.0392  1.1328 -0.4019
  154MOL   H18734153   2.269   6.860   3.362 -0.6755 -0.5235  0.3933
  154MOL   H18834154   2.391   6.746   3.380 -0.0334  1.5289  0.6239
  154MOL   C18934155   2.294   6.749   3.184 -0.1310 -0.1729 -0.0647
  154MOL   C19034156   2.156   6.683   3.216 -0.2372  0.4954  0.6462
  154MOL   O19134157   2.132   6.648   3.334  0.4041  0.2382  0.7503
  154MOL   C19234158   2.060   6.654   3.105  0.2872  0.2486 -0.3743
  154MOL   C19334159   2.389   6.645   3.102  0.1538 -0.5226  0.0946
  154MOL   H19434160   2.271   6.840   3.128  0.5129 -0.0166 -0.0800
  154MOL   H19534161   1.964   6.638   3.156  1.5487 -2.1704  1.3626
  154MOL   H19634162   2.031   6.735   3.038 -2.5625  0.1298  0.6158
  154MOL   H19734163   2.086   6.558   3.061  0.1558 -0.1065  0.3026
  154MOL   H19834164   2.332   6.553   3.086  1.2609 -1.1303 -0.4636
  154MOL   H19934165   2.474   6.623   3.168  1.9270 -1.0188 -2.2831
  154MOL   C20034166   2.446   6.699   2.964  0.1147  0.3824  0.1336
  154MOL   C20134167   2.329   6.745   2.874  0.5297 -0.3350  0.2696
  154MOL   O20234168   2.244   6.667   2.838  0.4442  0.1160  0.0581
  154MOL   C20334169   2.339   6.892   2.824  0.5034 -0.8148 -0.5250
  154MOL   C20434170   2.543   6.592   2.905  0.5440 -0.3595  0.0793
  154MOL   H20534171   2.503   6.787   2.994  1.9143 -0.4563 -0.7022
  154MOL   H20634172   2.260   6.958   2.860  2.4669  1.7614 -0.8480
  154MOL   H20734173   2.437   6.930   2.853 -0.3170  2.4033 -1.8173
  154MOL   H20834174   2.347   6.893   2.715  1.0337  1.5470 -0.4752
  154MOL   H20934175   2.473   6.517   2.867 -1.2318  0.8169  0.9634
  154MOL   H21034176   2.599   6.536   2.981 -0.6558 -1.2893  0.2930
  154MOL   C21134177   2.630   6.649   2.783  1.1318 -0.9788 -0.3912
  154MOL   C21234178   2.615   6.565   2.656  0.1493 -0.3902  0.8190
  154MOL   O21334179   2.698   6.486   2.607 -0.1988  0.8931 -0.4426
  154MOL   C21434180   2.489   6.607   2.579  1.0779 -0.1905  0.2176
  154MOL   C21534181   2.778   6.669   2.833 -0.0959  0.8039  0.2487
  154MOL   H21634182   2.599   6.750   2.758 -1.2776 -1.4635  0.5287
  154MOL   H21734183   2.401   6.561   2.624  0.5809  0.7531  0.2183
  154MOL   H21834184   2.472   6.714   2.588 -0.4004 -0.2952 -1.1475
  154MOL   H21934185   2.491   6.584   2.473 -2.0629  0.7181 -0.0581
  154MOL   H22034186   2.841   6.580   2.824  0.2788  1.3127 -2.7564
  154MOL   H22134187   2.795   6.715   2.930 -1.0748 -1.8705  1.7186
  154MOL   H22234188   2.825   6.730   2.755  3.1513  0.9458  2.2152
  155MOL     C134189   2.775   3.108   0.061 -0.2439  0.3381  0.0992
  155MOL     C234190   2.916   3.127   0.006  0.2360 -0.5189  0.7582
  155MOL     O334191   2.997   3.032   0.004  0.0863 -0.0208 -0.0012
  155MOL     C434192   2.949   3.253   7.777  0.4222 -0.6360 -0.4280
  155MOL     C534193   2.761   2.981   0.159  0.0678  0.0699 -0.3573
  155MOL     H634194   2.749   3.204   0.106 -2.6453  0.9755 -2.5311
  155MOL     H734195   2.858   3.303   7.742  0.8312  0.6837  0.3289
  155MOL     H834196   2.995   3.320   0.008  0.5142  1.0975 -2.0331
  155MOL     H934197   3.017   3.218   7.701  0.5024 -2.9638  0.6755
  155MOL    H1034198   2.666   2.994   0.211  0.1209  0.5179 -0.3664
  155MOL    H1134199   2.844   2.981   0.231 -0.5911  0.0810  0.4106
  155MOL    H1234200   2.701   3.100   7.823 -0.6277  0.3907  0.4475
  155MOL    C1334201   2.764   2.841   0.092 -0.1630 -0.6736 -0.4034
  155MOL    C1434202   2.684   2.827   7.805 -0.8557  0.1461  0.1997
  155MOL    O1534203   2.562   2.806   7.805 -0.1128 -0.0942 -0.5445
  155MOL    C1634204   2.751   2.835   7.671  0.0526 -0.1963 -0.0575
  155MOL    C1734205   2.769   2.726   0.188  0.5199  0.1555  0.0210
  155MOL    H1834206   2.865   2.831   0.051 -0.4629  0.2768 -1.3878
  155MOL    H1934207   2.682   2.875   7.597 -0.1897 -1.3082 -0.4346
  155MOL    H2034208   2.835   2.903   7.685  1.2828 -1.6215 -0.3838
  155MOL    H2134209   2.793   2.739   7.642  0.8110  0.7526 -2.2091
  155MOL    H2234210   2.666   2.727   0.225  0.7614  1.3620  0.6991
  155MOL    H2334211   2.825   2.752   0.278 -1.0662 -0.5370  1.2393
  155MOL    C2434212   2.817   2.597   0.121  0.8121 -0.1505  0.1376
  155MOL    C2534213   2.731   2.471   0.145 -0.4119 -0.3504  0.4236
  155MOL    O2634214   2.761   2.383   0.225 -0.9822  0.0566 -0.4057
  155MOL    C2734215   2.608   2.457   0.061 -0.1982  0.3515  0.3890
  155MOL    C2834216   2.964   2.564   0.166  0.2968  0.1348  0.1934
  155MOL    H2934217   2.805   2.589   0.014  0.9634 -1.0730  0.1898
  155MOL    H3034218   2.641   2.422   7.805  0.9335  1.4849  0.3405
  155MOL    H3134219   2.534   2.385   0.092  1.5185 -1.4097  0.5037
  155MOL    H3234220   2.569   2.559   0.050 -0.3075  0.1793 -0.9842
  155MOL    H3334221   2.988   2.461   0.138 -2.8824 -0.8203  0.7893
  155MOL    H3434222   2.982   2.567   0.274  0.3756 -1.7441  0.2472
  155MOL    C3534223   3.076   2.646   0.106  0.0059 -0.6759 -0.4034
  155MOL    C3634224   3.087   2.620   7.795 -0.1694 -0.0964  0.3296
  155MOL    O3734225   3.100   2.508   7.750 -0.5582  0.3381  0.2066
  155MOL    C3834226   3.098   2.742   7.700  0.0790 -0.1770  0.0376
  155MOL    C3934227   3.209   2.626   0.176  0.4014  0.2678 -0.2716
  155MOL    H4034228   3.040   2.748   0.119 -0.7162 -1.1043  1.0929
  155MOL    H4134229   3.001   2.764   7.655  0.4218 -1.2797 -1.2496
  155MOL    H4234230   3.114   2.832   7.761  2.3633 -0.7944  0.3870
  155MOL    H4334231   3.182   2.742   7.631  1.1663  1.5787  1.3288
  155MOL    H4434232   3.241   2.522   0.168  0.0338  0.2368 -1.3257
  155MOL    H4534233   3.200   2.645   0.283  0.3208 -0.3809 -0.1625
  155MOL    C4634234   3.319   2.724   0.121 -0.3647 -0.1530  0.3780
  155MOL    C4734235   3.463   2.681   0.152  0.0398  0.7064 -0.9049
  155MOL    O4834236   3.524   2.711   0.252 -0.2387  0.5083 -0.2406
  155MOL    C4934237   3.546   2.624   0.040  1.1443  0.5485  1.0863
  155MOL    C5034238   3.305   2.877   0.168  0.7003  0.2967 -0.7427
  155MOL    H5134239   3.307   2.729   0.013  0.2428 -0.4860  0.2912
  155MOL    H5234240   3.555   2.520   0.071 -0.5604 -0.1435 -0.6120
  155MOL    H5334241   3.498   2.626   7.784  1.4359  0.6609  0.9486
  155MOL    H5434242   3.637   2.683   0.037 -0.2781  2.7619 -2.4492
  155MOL    H5534243   3.328   2.881   0.275 -1.2982 -1.1047 -0.2104
  155MOL    H5634244   3.201   2.910   0.160  0.2740 -0.9962 -0.7105
  155MOL    C5734245   3.394   2.980   0.098  0.2353  0.1828  0.1249
  155MOL    C5834246   3.421   3.105   0.185 -0.3036  0.2978  0.5137
  155MOL    O5934247   3.321   3.171   0.226 -0.1549  0.2871 -0.2801
  155MOL    C6034248   3.562   3.146   0.219  0.1217  0.3490 -0.5822
  155MOL    C6134249   3.337   3.012   7.800 -0.5095 -0.1001  0.1811
  155MOL    H6234250   3.489   2.928   0.083 -1.1288 -1.9277 -1.3276
  155MOL    H6334251   3.636   3.072   0.189  0.4482  0.7552 -0.7819
  155MOL    H6434252   3.593   3.237   0.167 -0.5487  0.1176 -1.4029
  155MOL    H6534253   3.558   3.157   0.328  1.7532 -1.3693 -0.3156
  155MOL    H6634254   3.237   3.051   7.823 -0.4037  0.7138 -0.7385
  155MOL    H6734255   3.334   2.919   7.743  0.5256  1.9451 -3.3076
  155MOL    C6834256   3.391   3.131   7.715 -0.0598 -0.4609  0.1160
  155MOL    C6934257   3.305   3.148   7.590 -0.1829 -0.4029 -1.8067
  155MOL    O7034258   3.251   3.050   7.539  0.0118 -0.4187 -0.5367
  155MOL    C7134259   3.319   3.281   7.523 -0.6425 -0.7531 -0.8241
  155MOL    C7234260   3.545   3.143   7.679 -0.4845  0.0501  0.1055
  155MOL    H7334261   3.371   3.219   7.777 -0.1588  0.8419 -1.7176
  155MOL    H7434262   3.252   3.358   7.562  0.5210  0.0917 -0.4843
  155MOL    H7534263   3.422   3.313   7.505  0.1485 -1.2562  2.5309
  155MOL    H7634264   3.272   3.279   7.424 -1.0774 -0.8512 -0.6199
  155MOL    H7734265   3.602   3.132   7.771 -0.4703 -1.2131 -0.0510
  155MOL    H7834266   3.560   3.241   7.633  1.0837  0.5195  1.5520
  155MOL    C7934267   3.596   3.039   7.573 -0.5752 -0.0934  0.6568
  155MOL    C8034268   3.570   2.894   7.610 -0.0294 -0.1023 -0.3925
  155MOL    O8134269   3.614   2.848   7.711 -0.5071  0.2053  0.6062
  155MOL    C8234270   3.488   2.800   7.527 -0.1546 -0.3044 -0.7563
  155MOL    C8334271   3.748   3.058   7.562  0.4177  0.5539  0.6947
  155MOL    H8434272   3.554   3.052   7.474  3.5477  0.0685 -1.1815
  155MOL    H8534273   3.445   2.843   7.436 -2.1304 -2.1532 -0.7225
  155MOL    H8634274   3.541   2.712   7.489  0.4229  0.1985 -1.1302
  155MOL    H8734275   3.406   2.764   7.588  0.3711 -0.6046 -0.2264
  155MOL    H8834276   3.795   2.970   7.518  0.1914  0.7517  0.0541
  155MOL    H8934277   3.781   3.040   7.665  1.8116 -1.0616 -0.0058
  155MOL    C9034278   3.803   3.184   7.495  0.4232  0.1180 -0.8680
  155MOL    C9134279   3.782   3.182   7.341  0.8410 -0.0065  0.6882
  155MOL    O9234280   3.720   3.086   7.292 -0.4400  0.0040 -0.1586
  155MOL    C9334281   3.846   3.291   7.253  0.2081  0.3336 -0.2247
  155MOL    C9434282   3.951   3.194   7.526  0.8350 -0.6183  0.5613
  155MOL    H9534283   3.747   3.274   7.521 -1.0569 -1.3133  0.9157
  155MOL    H9634284   3.953   3.276   7.261  0.8407  2.8197 -2.9788
  155MOL    H9734285   3.815   3.283   7.149 -0.3187  0.7119 -0.0992
  155MOL    H9834286   3.817   3.387   7.297 -1.2688 -0.4829  0.6046
  155MOL    H9934287   4.011   3.255   7.459  0.0796  0.4931  0.8793
  155MOL   H10034288   3.996   3.101   7.493 -0.5704 -1.6382  1.4595
  155MOL   C10134289   3.991   3.235   7.664 -0.3440 -0.5493  0.6352
  155MOL   C10234290   3.983   3.387   7.685 -0.6328 -0.0784  0.1110
  155MOL   O10334291   4.063   3.467   7.628 -0.2773  0.3242 -0.3514
  155MOL   C10434292   3.877   3.439   7.787  0.0249 -0.0837 -0.2930
  155MOL   C10534293   4.129   3.174   7.703  0.2617 -0.0225  0.4138
  155MOL   H10634294   3.920   3.185   7.730 -1.2710  1.8469  1.5214
  155MOL   H10734295   3.919   3.521   0.003 -1.0081  2.2398 -2.7282
  155MOL   H10834296   3.784   3.473   7.741 -0.2299  0.1234  0.3638
  155MOL   H10934297   3.843   3.366   0.019  0.6666  1.0664  1.1684
  155MOL   H11034298   4.194   3.254   7.738  1.8720 -1.2790  0.3641
  155MOL   H11134299   4.168   3.135   7.609 -2.7793 -0.5172 -0.7047
  155MOL   C11234300   4.121   3.062   7.812  0.2790 -0.1063 -0.3395
  155MOL   C11334301   4.041   2.938   7.766 -0.5802  0.5843  0.7013
  155MOL   O11434302   3.945   2.894   7.829 -0.2724  0.4426 -0.8783
  155MOL   C11534303   4.087   2.864   7.643 -0.0668 -0.4086  0.1362
  155MOL   C11634304   4.085   3.116   0.109 -0.1653 -0.0761 -0.2950
  155MOL   H11734305   4.225   3.031   7.823 -0.5323 -2.1734  1.8468
  155MOL   H11834306   4.000   2.837   7.583  2.1338 -1.1542 -2.7949
  155MOL   H11934307   4.146   2.929   7.579  1.0103 -1.4675  0.0462
  155MOL   H12034308   4.134   2.774   7.682  1.3431  0.7303  1.1026
  155MOL   H12134309   3.984   3.157   0.108 -0.4945 -0.9236 -2.1510
  155MOL   H12234310   4.152   3.202   0.124  0.1694 -0.1811 -1.1940
  155MOL   C12334311   4.106   3.019   0.229  0.4882 -0.4727 -0.1706
  155MOL   C12434312   4.034   3.054   0.363  0.3308 -0.4510  0.3135
  155MOL   O12534313   4.094   3.102   0.455  0.0326  0.1352  0.1707
  155MOL   C12634314   3.890   3.014   0.371 -0.0933 -0.0597  0.2104
  155MOL   C12734315   4.255   2.970   0.260  0.9132  0.1042 -0.7473
  155MOL   H12834316   4.055   2.925   0.205 -0.1136 -0.2921  0.3809
  155MOL   H12934317   3.831   3.056   0.290  1.5277  1.8627  0.0016
  155MOL   H13034318   3.878   2.906   0.372 -1.8416  0.1219  1.3397
  155MOL   H13134319   3.848   3.063   0.459  0.5795  0.1345  0.4279
  155MOL   H13234320   4.303   3.048   0.319 -1.6658  0.1332  1.4280
  155MOL   H13334321   4.300   2.970   0.161 -1.1896 -0.9670 -1.7407
  155MOL   C13434322   4.273   2.840   0.341 -0.4172 -0.0729 -0.0782
  155MOL   C13534323   4.264   2.860   0.496 -0.6130 -0.2106 -0.0930
  155MOL   O13634324   4.356   2.920   0.553  0.6372  0.4293 -0.4067
  155MOL   C13734325   4.156   2.795   0.576 -0.0676 -0.3319  1.0391
  155MOL   C13834326   4.402   2.758   0.298 -0.7602 -0.2350 -0.4019
  155MOL   H13934327   4.189   2.776   0.311 -0.1591 -0.0430 -0.8761
  155MOL   H14034328   4.057   2.806   0.533  0.3530 -2.5758 -0.6167
  155MOL   H14134329   4.186   2.690   0.579  1.1226 -0.0729 -1.1599
  155MOL   H14234330   4.152   2.830   0.679 -0.4695  1.9880  0.2426
  155MOL   H14334331   4.413   2.677   0.371  1.1799  0.4097  0.0235
  155MOL   H14434332   4.488   2.820   0.320 -2.3402  2.6243 -2.0054
  155MOL   C14534333   4.394   2.696   0.156 -0.4327  0.1667  0.3326
  155MOL   C14634334   4.440   2.798   0.049 -0.1197 -0.2885  0.5202
  155MOL   O14734335   4.376   2.826   7.787 -0.5761 -0.1876 -0.3464
  155MOL   C14834336   4.569   2.872   0.075 -1.1908  0.1873 -0.0734
  155MOL   C14934337   4.260   2.629   0.117  0.1040 -0.0336 -0.1273
  155MOL   H15034338   4.482   2.632   0.145 -0.0244  0.8873 -0.6804
  155MOL   H15134339   4.557   2.980   0.079  1.4686  0.4900  1.0880
  155MOL   H15234340   4.625   2.828   0.158  2.4683  1.6346 -1.6723
  155MOL   H15334341   4.628   2.874   7.825 -1.6886  0.7706 -0.3819
  155MOL   H15434342   4.291   2.595   0.018 -0.9243  0.2117 -0.5411
  155MOL   H15534343   4.180   2.701   0.104 -0.5644 -0.8190 -0.4327
  155MOL   C15634344   4.228   2.494   0.186 -0.0357 -0.9271 -0.4191
  155MOL   C15734345   4.332   2.379   0.155 -0.0958 -0.4134 -0.2844
  155MOL   O15834346   4.361   2.355   0.042  0.0621  0.6041  0.1617
  155MOL   C15934347   4.389   2.303   0.275 -0.0421  0.4632 -0.5665
  155MOL   C16034348   4.095   2.437   0.140  0.3408 -0.2263  0.0810
  155MOL   H16134349   4.220   2.526   0.290  1.3714  0.6895 -0.7784
  155MOL   H16234350   4.391   2.195   0.269 -0.1506  0.3611  1.0646
  155MOL   H16334351   4.490   2.337   0.301  0.0888 -0.3673  0.0315
  155MOL   H16434352   4.322   2.303   0.361  0.9214 -0.3193  0.1959
  155MOL   H16534353   4.104   2.341   0.089 -0.5718 -0.6126  0.6422
  155MOL   H16634354   4.064   2.511   0.066  0.9978 -0.8201 -0.8002
  155MOL   C16734355   3.991   2.420   0.250 -0.1520 -0.0749  0.0679
  155MOL   C16834356   3.943   2.560   0.296  0.1679 -0.7210 -0.5738
  155MOL   O16934357   3.995   2.603   0.398  0.7663 -0.4051 -0.1585
  155MOL   C17034358   3.837   2.635   0.216 -0.0723  0.6785 -0.1513
  155MOL   C17134359   4.028   2.320   0.368  0.4272 -0.5072  0.4145
  155MOL   H17234360   3.905   2.386   0.193 -0.1538  1.2786 -0.7719
  155MOL   H17334361   3.868   2.739   0.203 -2.4592  1.3670 -0.6641
  155MOL   H17434362   3.820   2.595   0.116 -2.5325 -0.2040  0.5715
  155MOL   H17534363   3.745   2.645   0.275  0.5193  3.3989  0.4155
  155MOL   H17634364   4.108   2.365   0.427 -0.7030  0.7340  1.0526
  155MOL   H17734365   4.081   2.234   0.328  2.7889  0.8426  0.5825
  155MOL   C17834366   3.908   2.290   0.461  0.0560  0.3782 -0.3203
  155MOL   C17934367   3.941   2.235   0.603 -0.4027 -0.4687 -0.4692
  155MOL   O18034368   3.958   2.114   0.620 -0.0957 -0.1087  0.2134
  155MOL   C18134369   3.962   2.334   0.720 -0.1102  0.3478  0.2975
  155MOL   C18234370   3.782   2.214   0.408  0.2322  0.2136  0.1444
  155MOL   H18334371   3.872   2.391   0.480 -0.6478 -0.0200  0.5182
  155MOL   H18434372   4.066   2.368   0.713  0.5744 -2.0174 -1.5230
  155MOL   H18534373   3.894   2.418   0.708 -1.7704 -0.6034  2.7411
  155MOL   H18634374   3.949   2.283   0.816  0.1356  0.4703  0.3967
  155MOL   H18734375   3.745   2.135   0.473 -1.1888  0.1132 -0.7730
  155MOL   H18834376   3.819   2.161   0.320  1.2168 -0.6127  1.0368
  155MOL   C18934377   3.665   2.303   0.377 -0.2166 -0.0274  0.7065
  155MOL   C19034378   3.592   2.351   0.501 -0.0379  0.2483 -0.0698
  155MOL   O19134379   3.605   2.288   0.607 -0.0642  0.3789 -0.9209
  155MOL   C19234380   3.506   2.474   0.486 -0.1754 -0.3862  0.9897
  155MOL   C19334381   3.555   2.240   0.288 -0.0698 -0.4699 -0.6154
  155MOL   H19434382   3.709   2.394   0.335  2.0928  0.0119  3.0962
  155MOL   H19534383   3.532   2.520   0.391  1.3944 -2.4535  0.3935
  155MOL   H19634384   3.404   2.437   0.472  0.1207 -0.8490  0.0352
  155MOL   H19734385   3.515   2.539   0.573 -0.4033  0.0852  0.6624
  155MOL   H19834386   3.507   2.316   0.227 -0.5203 -0.0845  0.2046
  155MOL   H19934387   3.485   2.190   0.355  2.0785 -1.0566  1.2437
  155MOL   C20034388   3.585   2.135   0.175  0.0611 -0.2424 -0.1739
  155MOL   C20134389   3.679   2.186   0.065  0.0835 -0.0099  0.3495
  155MOL   O20234390   3.699   2.307   0.036 -0.2301 -0.1042  0.6687
  155MOL   C20334391   3.753   2.088   7.824  0.6098 -0.0655 -0.3004
  155MOL   C20434392   3.454   2.070   0.121  0.6202 -0.8634 -0.2081
  155MOL   H20534393   3.641   2.058   0.229  0.6132 -0.2510 -0.7518
  155MOL   H20634394   3.693   2.084   7.733  1.3926  2.0374 -0.9420
  155MOL   H20734395   3.859   2.113   7.813  1.4500 -2.8690  0.9147
  155MOL   H20834396   3.749   1.986   0.021 -0.3853  0.2518  0.4510
  155MOL   H20934397   3.403   2.032   0.210  1.5505 -2.7114 -0.4442
  155MOL   H21034398   3.472   1.978   0.065  2.9133 -0.3095 -0.4082
  155MOL   C21134399   3.350   2.164   0.049 -0.1286  0.5477  0.7553
  155MOL   C21234400   3.213   2.112   0.066  0.4967  0.6737  0.6930
  155MOL   O21334401   3.189   2.021   0.138 -0.4191 -0.2822  0.4561
  155MOL   C21434402   3.101   2.191   7.841 -0.1790 -0.0919 -0.1255
  155MOL   C21534403   3.387   2.192   7.741  0.1444 -0.2381  0.0076
  155MOL   H21634404   3.350   2.256   0.107  3.3302  0.9531  0.2353
  155MOL   H21734405   3.133   2.294   0.008  1.5129 -0.5230 -1.0054
  155MOL   H21834406   3.095   2.169   7.735  2.9803 -1.5816 -0.0485
  155MOL   H21934407   3.003   2.171   0.045  0.2096  0.0474  0.7821
  155MOL   H22034408   3.422   2.105   7.686 -0.8851 -1.2989  1.0181
  155MOL   H22134409   3.451   2.280   7.735 -0.4038  0.2811  1.5538
  155MOL   H22234410   3.298   2.218   7.683  0.0507 -3.8773 -1.5824
  156MOL     C134411   4.028   5.800   3.320 -0.0177 -0.2454 -0.9319
  156MOL     C234412   4.139   5.815   3.217  0.6116  0.8334 -0.3618
  156MOL     O334413   4.115   5.862   3.112  1.0257  0.1318 -0.0650
  156MOL     C434414   4.272   5.757   3.250  0.1783 -0.3844 -0.3210
  156MOL     C534415   3.914   5.917   3.317  0.4920  0.3491 -0.5634
  156MOL     H634416   3.990   5.699   3.299 -0.7792 -0.3132  0.6854
  156MOL     H734417   4.341   5.831   3.209  2.4314 -2.2876 -0.0611
  156MOL     H834418   4.272   5.750   3.359 -1.6484 -1.5723 -0.3699
  156MOL     H934419   4.277   5.655   3.213 -0.9153  0.1353 -1.9791
  156MOL    H1034420   3.857   5.898   3.226  0.7430  1.1326 -0.8915
  156MOL    H1134421   3.970   6.010   3.308  2.5668 -0.7305  0.8168
  156MOL    H1234422   4.069   5.805   3.421 -1.5444  0.3320 -0.3245
  156MOL    C1334423   3.817   5.925   3.447  0.1467  0.1585 -0.1381
  156MOL    C1434424   3.753   5.791   3.463  0.5549  0.4517 -0.2879
  156MOL    O1534425   3.801   5.706   3.537  0.5740  0.3355 -0.2113
  156MOL    C1634426   3.633   5.763   3.369 -0.4099  0.5541  0.5143
  156MOL    C1734427   3.717   6.044   3.432  0.1192 -0.8504  0.5597
  156MOL    H1834428   3.857   5.935   3.548 -1.5001  1.6189  0.3997
  156MOL    H1934429   3.616   5.835   3.289 -1.2091  0.2117  0.3689
  156MOL    H2034430   3.644   5.665   3.322 -2.8513  0.4241  0.1945
  156MOL    H2134431   3.542   5.755   3.429  0.4451  1.6128  1.9902
  156MOL    H2234432   3.631   6.035   3.498 -0.3165 -3.1504 -0.2595
  156MOL    H2334433   3.675   6.052   3.332 -2.7381  0.4275  1.8208
  156MOL    C2434434   3.788   6.188   3.448 -0.4479  0.6093 -0.5043
  156MOL    C2534435   3.830   6.201   3.589 -0.1228  0.2054  0.2242
  156MOL    O2634436   3.752   6.168   3.685 -0.4940  0.2837 -0.3156
  156MOL    C2734437   3.966   6.266   3.620 -0.0571 -0.0492 -0.1962
  156MOL    C2834438   3.702   6.319   3.414  0.0812  0.0501 -0.3018
  156MOL    H2934439   3.877   6.200   3.387 -0.4413 -0.0966 -0.6312
  156MOL    H3034440   4.001   6.338   3.546  1.1216  1.0487  1.3860
  156MOL    H3134441   3.958   6.309   3.720  0.1204 -1.0127  0.2452
  156MOL    H3234442   4.049   6.195   3.629  0.6359  0.6651 -0.8954
  156MOL    H3334443   3.742   6.402   3.472 -1.4452  0.1046  0.7049
  156MOL    H3434444   3.599   6.312   3.447 -0.6033  1.5135 -2.0713
  156MOL    C3534445   3.708   6.359   3.258 -0.5976 -0.0300 -0.2937
  156MOL    C3634446   3.857   6.404   3.223 -0.3510 -0.0200 -0.1525
  156MOL    O3734447   3.941   6.327   3.186 -0.7766  0.1562  0.3539
  156MOL    C3834448   3.877   6.548   3.208 -0.1050 -0.3152  0.0444
  156MOL    C3934449   3.597   6.437   3.195 -0.0647  0.2254  0.3118
  156MOL    H4034450   3.712   6.271   3.193  1.4290  0.4003 -0.8083
  156MOL    H4134451   3.983   6.573   3.217 -0.2869  2.2171 -3.8099
  156MOL    H4234452   3.837   6.586   3.114 -1.4446 -0.7404  0.4284
  156MOL    H4334453   3.831   6.597   3.294  0.9846 -1.8558  1.5296
  156MOL    H4434454   3.632   6.454   3.093 -1.0494  3.0480  0.3869
  156MOL    H4534455   3.588   6.531   3.249 -0.0986 -0.7672  2.0460
  156MOL    C4634456   3.461   6.369   3.203 -0.2293 -0.4253  0.0084
  156MOL    C4734457   3.455   6.239   3.119 -0.5441  0.4973 -0.3494
  156MOL    O4834458   3.504   6.230   3.005 -0.1203 -0.3547  0.2503
  156MOL    C4934459   3.406   6.117   3.190 -0.7810 -0.4686 -0.1027
  156MOL    C5034460   3.355   6.470   3.160 -0.0774 -0.2929 -0.3582
  156MOL    H5134461   3.430   6.350   3.306 -1.7903  0.9292 -0.1819
  156MOL    H5234462   3.460   6.030   3.154 -1.1958 -0.0091 -1.8555
  156MOL    H5334463   3.407   6.117   3.299  1.5635  1.2779 -0.0840
  156MOL    H5434464   3.304   6.096   3.158 -0.6662 -0.6434 -0.3525
  156MOL    H5534465   3.387   6.498   3.059  1.5622 -0.4870  0.0974
  156MOL    H5634466   3.359   6.563   3.216 -1.9506 -1.1000  1.1236
  156MOL    C5734467   3.210   6.417   3.139  0.5978 -0.0278  0.3152
  156MOL    C5834468   3.131   6.515   3.038  0.1751  0.5572  0.3366
  156MOL    O5934469   3.042   6.584   3.086 -0.2784 -0.3950  0.3076
  156MOL    C6034470   3.162   6.513   2.890 -0.4995 -0.5865 -0.5135
  156MOL    C6134471   3.125   6.378   3.262 -0.1355  0.2931 -0.1687
  156MOL    H6234472   3.216   6.328   3.076 -0.7086 -1.5034  2.2310
  156MOL    H6334473   3.268   6.530   2.870 -0.8220 -0.7726 -2.4753
  156MOL    H6434474   3.142   6.412   2.855 -1.3874  0.0169 -1.8001
  156MOL    H6534475   3.109   6.597   2.844 -1.9438 -1.5452 -0.6296
  156MOL    H6634476   3.087   6.471   3.305  0.8470  0.6248 -0.0027
  156MOL    H6734477   3.207   6.344   3.324 -0.4992 -1.2447 -0.5167
  156MOL    C6834478   3.013   6.272   3.242  0.6666  0.1483  0.1234
  156MOL    C6934479   2.880   6.343   3.260  1.0192 -0.1097  0.0495
  156MOL    O7034480   2.833   6.365   3.372 -0.4126 -0.0698 -0.4073
  156MOL    C7134481   2.802   6.377   3.131  0.0254  0.4834 -0.2381
  156MOL    C7234482   3.044   6.155   3.343  0.0537 -0.4589  0.1385
  156MOL    H7334483   3.011   6.229   3.142  1.6914  0.0627  0.1336
  156MOL    H7434484   2.764   6.477   3.150 -0.1184  0.7567 -1.8860
  156MOL    H7534485   2.863   6.392   3.042  0.7442  0.6245  0.2771
  156MOL    H7634486   2.713   6.319   3.105 -0.2641  1.4546 -1.4927
  156MOL    H7734487   3.030   6.200   3.441  1.3010 -0.9230  0.5306
  156MOL    H7834488   3.149   6.134   3.322  0.2950  1.3861 -0.6588
  156MOL    C7934489   2.965   6.028   3.325 -0.0913  0.2070 -0.1195
  156MOL    C8034490   2.844   6.029   3.422  0.2034  0.3353 -0.8186
  156MOL    O8134491   2.858   6.006   3.545 -0.3884 -0.1216  0.0687
  156MOL    C8234492   2.701   6.054   3.364 -0.2941 -0.1321  0.3092
  156MOL    C8334493   3.043   5.897   3.330 -0.3250 -0.0331 -0.2327
  156MOL    H8434494   2.924   6.024   3.224 -0.2703 -0.0274 -0.0387
  156MOL    H8534495   2.708   6.124   3.282  0.1807  0.7350  1.0877
  156MOL    H8634496   2.673   5.955   3.328 -1.3756  0.1939  0.2397
  156MOL    H8734497   2.632   6.093   3.439 -0.4570 -2.1601  1.2690
  156MOL    H8834498   3.090   5.891   3.232  0.1659  2.0288 -0.1371
  156MOL    H8934499   2.968   5.818   3.328  0.4831 -0.9363  2.5174
  156MOL    C9034500   3.136   5.862   3.452 -0.1382  0.1118  0.2841
  156MOL    C9134501   3.283   5.888   3.433  0.1156 -0.1019 -0.2099
  156MOL    O9234502   3.346   5.859   3.331  0.0422 -0.7978  0.2353
  156MOL    C9334503   3.357   5.974   3.540 -0.2385 -0.1768  0.1893
  156MOL    C9434504   3.113   5.719   3.504  0.7018  0.0122  0.3184
  156MOL    H9534505   3.112   5.928   3.535 -2.5728 -1.2620  0.7181
  156MOL    H9634506   3.284   5.990   3.620  0.6389  0.7203  0.8070
  156MOL    H9734507   3.445   5.928   3.583 -0.7445  0.4314  1.9348
  156MOL    H9834508   3.369   6.074   3.498 -2.0187 -0.1235 -0.2745
  156MOL    H9934509   3.192   5.701   3.577  0.1458  2.6492  1.6459
  156MOL   H10034510   3.126   5.653   3.418 -0.2435  0.0578  0.1390
  156MOL   C10134511   2.973   5.699   3.570 -0.9460  0.2731  0.3564
  156MOL   C10234512   2.988   5.670   3.721  0.2188  0.9379  0.1336
  156MOL   O10334513   2.973   5.558   3.774  0.6165  0.1113 -0.6272
  156MOL   C10434514   3.026   5.790   3.816 -0.3996 -0.0785 -0.4301
  156MOL   C10534515   2.884   5.586   3.503  0.7904  0.2866 -0.3484
  156MOL   H10634516   2.931   5.799   3.562 -0.5212  0.2176 -3.0339
  156MOL   H10734517   3.112   5.765   3.878 -0.8718  1.0376  0.6954
  156MOL   H10834518   3.053   5.877   3.756 -0.4615 -0.8542 -1.6085
  156MOL   H10934519   2.935   5.803   3.876 -0.2713 -1.5680  0.1124
  156MOL   H11034520   2.942   5.494   3.515  3.8573  1.8319 -2.6967
  156MOL   H11134521   2.873   5.612   3.398 -0.5101  0.1215 -0.2595
  156MOL   C11234522   2.746   5.567   3.566 -0.2964 -0.8892  0.8568
  156MOL   C11334523   2.692   5.432   3.517 -0.8506  0.0880 -0.7995
  156MOL   O11434524   2.630   5.409   3.413 -0.0538  0.5960  0.1947
  156MOL   C11534525   2.723   5.319   3.614  0.1105  0.1886 -0.0224
  156MOL   C11634526   2.662   5.689   3.523  0.8193 -0.3209  0.3702
  156MOL   H11734527   2.754   5.566   3.674  2.1012 -1.6356  0.6799
  156MOL   H11834528   2.795   5.247   3.575  0.3881  1.8541 -2.7363
  156MOL   H11934529   2.763   5.365   3.705 -1.7360  0.6925  0.5494
  156MOL   H12034530   2.628   5.279   3.649  0.7053 -1.1061  0.1277
  156MOL   H12134531   2.618   5.656   3.429  3.2830 -0.9081 -0.6285
  156MOL   H12234532   2.722   5.774   3.489 -0.1064 -0.3152 -1.2848
  156MOL   C12334533   2.543   5.733   3.619 -0.1731 -0.5312  0.0842
  156MOL   C12434534   2.442   5.827   3.547 -0.5018  0.0954  0.7798
  156MOL   O12534535   2.448   5.951   3.547  0.2032 -0.0159  0.2245
  156MOL   C12634536   2.335   5.762   3.462 -0.1386 -0.0455  0.0850
  156MOL   C12734537   2.594   5.791   3.749  0.2066 -0.3582  0.4799
  156MOL   H12834538   2.491   5.642   3.651 -0.7335  0.2285  1.4037
  156MOL   H12934539   2.376   5.674   3.412 -1.5979 -1.1157  0.7292
  156MOL   H13034540   2.248   5.732   3.520  0.4000  2.2258  2.1670
  156MOL   H13134541   2.296   5.839   3.395 -1.4933 -1.4059 -0.7140
  156MOL   H13234542   2.642   5.883   3.716 -2.5060  0.9197 -0.0433
  156MOL   H13334543   2.678   5.729   3.777 -1.1105 -1.5410  1.9061
  156MOL   C13434544   2.504   5.794   3.869  0.8685 -0.5113  0.5338
  156MOL   C13534545   2.432   5.928   3.893 -0.4476  0.2442  0.2629
  156MOL   O13634546   2.307   5.935   3.895  0.8620 -0.6016 -0.3665
  156MOL   C13734547   2.519   6.051   3.910 -0.0147  0.0357 -0.4112
  156MOL   C13834548   2.577   5.745   3.997 -0.3602 -0.3696 -0.2745
  156MOL   H13934549   2.422   5.724   3.851 -0.0822  0.9194 -0.8751
  156MOL   H14034550   2.553   6.075   3.809  2.6824 -1.5212  0.0978
  156MOL   H14134551   2.471   6.139   3.952 -0.6942  0.0675 -1.2374
  156MOL   H14234552   2.604   6.022   3.971  0.6283 -0.6150 -1.5999
  156MOL   H14334553   2.561   5.820   4.075  1.5753  0.9513 -1.1156
  156MOL   H14434554   2.685   5.747   3.981  0.0800 -4.0983  1.6874
  156MOL   C14534555   2.532   5.605   4.049  1.0076 -0.5606  0.2650
  156MOL   C14634556   2.539   5.482   3.958 -0.0101 -1.1073  0.0032
  156MOL   O14734557   2.532   5.491   3.838 -0.0047  0.0093  0.3230
  156MOL   C14834558   2.570   5.352   4.022 -0.6314  0.0696  0.6644
  156MOL   C14934559   2.389   5.602   4.110  0.0333  0.0397  0.9726
  156MOL   H15034560   2.602   5.586   4.130 -0.6374 -2.2766  1.3266
  156MOL   H15134561   2.670   5.313   4.001  0.1284  2.6795 -0.8327
  156MOL   H15234562   2.567   5.367   4.130 -1.7308  0.9789  0.5146
  156MOL   H15334563   2.485   5.288   4.001  0.3129 -1.1214  0.3748
  156MOL   H15434564   2.358   5.502   4.140 -0.4144 -0.2550 -0.4399
  156MOL   H15534565   2.327   5.629   4.025  1.6165  1.7107  0.3298
  156MOL   C15634566   2.354   5.700   4.224  0.7759  0.0418  1.0004
  156MOL   C15734567   2.421   5.660   4.359  0.2175 -0.5987 -0.4110
  156MOL   O15834568   2.500   5.735   4.417  0.2206 -0.1210 -0.3915
  156MOL   C15934569   2.392   5.527   4.418 -0.1665 -0.5168  0.1205
  156MOL   C16034570   2.203   5.736   4.229  0.0553 -0.0957 -0.1891
  156MOL   H16134571   2.398   5.797   4.200 -0.2581 -0.1477 -1.8052
  156MOL   H16234572   2.422   5.438   4.363  0.0331 -0.9258  0.8827
  156MOL   H16334573   2.422   5.525   4.523 -2.3025 -1.8333  0.7468
  156MOL   H16434574   2.283   5.523   4.422 -0.1555 -0.4845  0.4234
  156MOL   H16534575   2.147   5.643   4.239 -1.9557  1.1139  0.0909
  156MOL   H16634576   2.169   5.767   4.130 -1.4760  0.3123  0.4515
  156MOL   C16734577   2.156   5.848   4.331 -0.5477 -0.0152  0.8706
  156MOL   C16834578   2.218   5.990   4.296  0.1365 -0.4379  0.3430
  156MOL   O16934579   2.301   6.045   4.372 -0.4305 -0.0414  0.1764
  156MOL   C17034580   2.163   6.059   4.171  0.3345  0.1257  0.3800
  156MOL   C17134581   2.172   5.806   4.477 -0.2184 -0.2066 -0.0696
  156MOL   H17234582   2.049   5.864   4.327 -0.2087  2.4691  0.9075
  156MOL   H17334583   2.116   6.156   4.187  1.1503  0.5413  0.2384
  156MOL   H17434584   2.243   6.082   4.102  0.8949  0.6156  1.1859
  156MOL   H17534585   2.097   5.992   4.115 -0.3916  1.2141 -0.0801
  156MOL   H17634586   2.274   5.816   4.515  1.1692  0.5080 -3.7411
  156MOL   H17734587   2.151   5.702   4.500 -0.7847  0.3582  2.0293
  156MOL   C17834588   2.068   5.873   4.575  0.3014  0.4218 -0.4303
  156MOL   C17934589   2.122   5.929   4.711  0.0309  0.1509  1.2539
  156MOL   O18034590   2.092   5.884   4.822 -0.2721  0.1903 -0.2088
  156MOL   C18134591   2.233   6.027   4.694  0.2469  0.0639  0.8046
  156MOL   C18234592   1.939   5.782   4.599 -1.1372 -0.3307 -0.2983
  156MOL   H18334593   2.030   5.960   4.522  1.5082  0.1564 -1.7700
  156MOL   H18434594   2.326   5.975   4.715  0.1999  0.6453  2.5004
  156MOL   H18534595   2.231   6.073   4.595 -0.0827  1.3459  1.3901
  156MOL   H18634596   2.222   6.106   4.768  2.2938  0.2911  0.8948
  156MOL   H18734597   1.974   5.719   4.681  0.3087  1.4555  0.4830
  156MOL   H18834598   1.922   5.728   4.506  1.4891 -0.4107 -0.7718
  156MOL   C18934599   1.820   5.865   4.630  0.3681  0.6829 -0.1318
  156MOL   C19034600   1.736   5.792   4.731 -0.5462 -0.3602 -0.4764
  156MOL   O19134601   1.674   5.695   4.689  0.7021 -0.7957 -0.0670
  156MOL   C19234602   1.732   5.838   4.876  0.4330  0.6635  0.6658
  156MOL   C19334603   1.743   5.902   4.499 -0.1271  0.8784  0.1385
  156MOL   H19434604   1.849   5.958   4.679  0.9063 -0.6149  2.0659
  156MOL   H19534605   1.652   5.909   4.898  1.8577  1.7094  2.6493
  156MOL   H19634606   1.714   5.747   4.934 -0.4769 -0.5976 -1.5511
  156MOL   H19734607   1.829   5.879   4.902  0.7929 -1.1493  2.3689
  156MOL   H19834608   1.703   5.813   4.451  1.5231 -0.7715  1.7621
  156MOL   H19934609   1.807   5.953   4.426 -0.6577  1.9672  0.4104
  156MOL   C20034610   1.628   6.005   4.516 -0.0237  0.0267  0.3489
  156MOL   C20134611   1.509   5.963   4.428  0.0635  0.1581  0.1841
  156MOL   O20234612   1.520   5.936   4.303  0.2081  0.2329  0.4434
  156MOL   C20334613   1.368   5.952   4.483 -0.2402  0.2342 -0.1567
  156MOL   C20434614   1.671   6.154   4.496 -0.5787  0.1359  0.5922
  156MOL   H20534615   1.592   5.997   4.618 -2.2960 -0.0096 -0.4406
  156MOL   H20634616   1.377   5.876   4.560 -0.6107  0.5055  0.1567
  156MOL   H20734617   1.332   6.040   4.536 -0.1576  2.0654 -3.0135
  156MOL   H20834618   1.300   5.919   4.404 -0.2996 -0.5148  0.2113
  156MOL   H20934619   1.754   6.186   4.559  0.3568 -2.2376  0.6142
  156MOL   H21034620   1.588   6.212   4.537 -0.1393  2.5543 -1.7994
  156MOL   C21134621   1.702   6.222   4.354  0.0350  0.0406 -0.1324
  156MOL   C21234622   1.823   6.171   4.280  0.0901  0.1654  0.4363
  156MOL   O21334623   1.924   6.137   4.330 -0.5707  0.0843 -0.2070
  156MOL   C21434624   1.818   6.180   4.129 -1.4111 -0.5251 -1.1531
  156MOL   C21534625   1.720   6.371   4.364  0.0421  0.4108  0.0888
  156MOL   H21634626   1.619   6.210   4.286  0.2929 -1.6491 -0.1809
  156MOL   H21734627   1.802   6.074   4.107  1.2888 -1.3572  0.5858
  156MOL   H21834628   1.740   6.244   4.089 -0.5984  0.6525 -0.8688
  156MOL   H21934629   1.911   6.218   4.086  0.3264 -4.1147 -0.8508
  156MOL   H22034630   1.750   6.424   4.274 -0.4651 -0.9702 -0.9098
  156MOL   H22134631   1.798   6.388   4.438  2.4726  1.1201 -2.5729
  156MOL   H22234632   1.630   6.425   4.394 -0.3758 -0.2803  0.0941
  157MOL     C134633   5.536   1.881   0.190  0.3632 -0.1638 -0.4207
  157MOL     C234634   5.455   2.008   0.182 -0.4114  0.1745  0.3596
  157MOL     O334635   5.505   2.116   0.215 -0.6890 -0.1444  0.0286
  157MOL     C434636   5.323   2.004   0.110 -0.1345  0.3842 -0.1057
  157MOL     C534637   5.509   1.798   0.320 -0.5648  0.8116  0.9011
  157MOL     H634638   5.538   1.826   0.096  1.4556 -2.6672  1.0037
  157MOL     H734639   5.266   2.089   0.145 -0.3746  1.4205 -2.9175
  157MOL     H834640   5.328   2.001   0.002 -0.7736  0.2983 -0.1323
  157MOL     H934641   5.274   1.914   0.148 -1.3128  0.4244 -1.5038
  157MOL    H1034642   5.560   1.702   0.307 -2.6981 -0.0948 -1.2751
  157MOL    H1134643   5.408   1.759   0.330  0.1496 -1.2309  0.4933
  157MOL    H1234644   5.639   1.914   0.199  0.0751  0.2750  1.6125
  157MOL    C1334645   5.542   1.856   0.459  0.4499  0.4452  0.4885
  157MOL    C1434646   5.684   1.917   0.467  0.2096  0.0677  0.3319
  157MOL    O1534647   5.788   1.860   0.442  0.0899 -0.1945 -0.3723
  157MOL    C1634648   5.692   2.065   0.505  0.3004 -0.4963  0.2058
  157MOL    C1734649   5.532   1.742   0.567 -0.2167 -0.5935  0.1149
  157MOL    H1834650   5.472   1.935   0.485  0.0362  0.7012 -1.3619
  157MOL    H1934651   5.791   2.107   0.486 -0.4169  0.5786 -1.2616
  157MOL    H2034652   5.622   2.119   0.440 -1.1863 -0.6361  1.6684
  157MOL    H2134653   5.661   2.079   0.608  0.9666 -0.7260  0.4349
  157MOL    H2234654   5.603   1.665   0.538 -0.7939 -1.0889  0.0245
  157MOL    H2334655   5.431   1.703   0.555 -0.7704  0.7710  0.2029
  157MOL    C2434656   5.556   1.772   0.717 -1.0798  0.2236 -0.2959
  157MOL    C2534657   5.521   1.641   0.782 -1.2950 -0.1755 -0.8407
  157MOL    O2634658   5.408   1.618   0.825 -0.3350 -0.4012 -0.1972
  157MOL    C2734659   5.631   1.540   0.802  0.2898  0.2787 -0.0712
  157MOL    C2834660   5.465   1.890   0.767  0.1187  0.1717  0.5981
  157MOL    H2934661   5.659   1.807   0.723 -0.6047 -1.3497  0.9702
  157MOL    H3034662   5.691   1.522   0.713  0.0690  1.0409 -0.3841
  157MOL    H3134663   5.703   1.579   0.874 -1.0933 -1.0906  2.1269
  157MOL    H3234664   5.576   1.456   0.843 -1.0424  0.9164 -0.4916
  157MOL    H3334665   5.360   1.864   0.771 -0.1893  0.3345 -3.4800
  157MOL    H3434666   5.472   1.968   0.690  1.1438 -1.5427 -1.0862
  157MOL    C3534667   5.505   1.963   0.901 -0.4759  0.0001 -0.9947
  157MOL    C3634668   5.462   1.878   1.026 -0.6782 -0.1412  0.2281
  157MOL    O3734669   5.346   1.852   1.051 -0.1536 -0.6483 -0.2083
  157MOL    C3834670   5.567   1.812   1.104 -0.6116  0.6349  0.0528
  157MOL    C3934671   5.439   2.105   0.910  0.2809 -0.0085 -0.0078
  157MOL    H4034672   5.614   1.970   0.901 -0.5471  1.7772  0.8894
  157MOL    H4134673   5.623   1.889   1.158  0.5131  0.2945 -0.6115
  157MOL    H4234674   5.526   1.747   1.181 -0.8678 -0.1855 -0.7625
  157MOL    H4334675   5.638   1.770   1.032 -0.1214  1.1803  0.2145
  157MOL    H4434676   5.477   2.164   0.827 -0.9433 -0.9965 -1.2913
  157MOL    H4534677   5.483   2.155   0.996 -0.0137  0.1433  0.0522
  157MOL    C4634678   5.285   2.127   0.901 -0.1595 -0.1937  0.3152
  157MOL    C4734679   5.239   2.151   0.761 -0.5312 -0.0206 -0.8170
  157MOL    O4834680   5.320   2.182   0.671  0.0684  0.6840 -0.0738
  157MOL    C4934681   5.098   2.158   0.735  0.3439 -0.2375  0.4674
  157MOL    C5034682   5.256   2.236   1.002  0.1557 -0.1475 -0.2346
  157MOL    H5134683   5.230   2.033   0.910 -0.3970  0.0936  1.9046
  157MOL    H5234684   5.079   2.265   0.726 -0.0225 -0.2194  1.3862
  157MOL    H5334685   5.060   2.100   0.651  0.9368  0.7190 -0.4680
  157MOL    H5434686   5.044   2.123   0.823  2.7520 -1.3176  1.5484
  157MOL    H5534687   5.158   2.272   0.972 -1.1414 -1.1909  2.6387
  157MOL    H5634688   5.323   2.321   0.985  1.0686 -0.7185  0.5001
  157MOL    C5734689   5.242   2.198   1.148 -0.1755  0.0456  0.3438
  157MOL    C5834690   5.129   2.095   1.171 -0.8137  0.6331 -0.0631
  157MOL    O5934691   5.018   2.102   1.111 -0.4357  0.7770 -0.5053
  157MOL    C6034692   5.166   1.977   1.263  0.1165  0.4672  0.4776
  157MOL    C6134693   5.223   2.330   1.244 -0.5763  0.1602  0.3084
  157MOL    H6234694   5.329   2.138   1.174  0.1782 -0.0239 -0.9654
  157MOL    H6334695   5.154   1.885   1.205  1.5407  0.1693  0.6406
  157MOL    H6434696   5.268   1.972   1.301 -0.6554  2.7254  3.0443
  157MOL    H6534697   5.093   1.976   1.345 -0.9749  0.0668 -0.4814
  157MOL    H6634698   5.159   2.301   1.328 -0.1711  2.2658  1.3753
  157MOL    H6734699   5.172   2.405   1.184  0.6634 -0.4773 -1.5837
  157MOL    C6834700   5.356   2.377   1.313  0.5697  0.0678 -0.1759
  157MOL    C6934701   5.406   2.278   1.420  0.6047 -0.1246 -0.5098
  157MOL    O7034702   5.340   2.248   1.519  0.2070 -0.4666 -0.3610
  157MOL    C7134703   5.546   2.226   1.403  0.0358  0.0719  0.1013
  157MOL    C7234704   5.328   2.516   1.374  0.7896  0.1057  0.5418
  157MOL    H7334705   5.439   2.385   1.243  0.1507  0.0895 -0.6755
  157MOL    H7434706   5.620   2.306   1.400 -0.0074  0.1018 -0.1847
  157MOL    H7534707   5.568   2.166   1.491  2.4136  2.0724  0.9242
  157MOL    H7634708   5.543   2.160   1.317 -0.9823 -0.3972  0.4922
  157MOL    H7734709   5.282   2.501   1.471  1.4935  0.6859  0.9758
  157MOL    H7834710   5.244   2.561   1.321  0.7249  1.8055  2.0444
  157MOL    C7934711   5.441   2.619   1.375  0.2962 -0.2058  0.0560
  157MOL    C8034712   5.509   2.634   1.234 -0.0334 -0.1694 -0.7423
  157MOL    O8134713   5.622   2.594   1.217  0.2784  0.0552  0.2552
  157MOL    C8234714   5.424   2.690   1.123 -0.0114 -0.3850 -0.2442
  157MOL    C8334715   5.546   2.600   1.488  0.0563  0.4783  0.2050
  157MOL    H8434716   5.403   2.721   1.384 -0.3633 -0.5925  1.9304
  157MOL    H8534717   5.481   2.743   1.047  0.1291  0.6810  0.5957
  157MOL    H8634718   5.377   2.606   1.072  2.4465 -1.6197 -0.5565
  157MOL    H8734719   5.343   2.755   1.155 -1.7339 -2.0774 -1.0406
  157MOL    H8834720   5.622   2.678   1.483  0.9844 -0.2724  2.1684
  157MOL    H8934721   5.606   2.511   1.467  0.6811  0.2269  2.8676
  157MOL    C9034722   5.497   2.598   1.636 -0.9228 -0.3980 -0.3251
  157MOL    C9134723   5.430   2.729   1.672 -0.1274  0.3784 -0.3229
  157MOL    O9234724   5.315   2.725   1.713  0.8795  0.3761 -0.0817
  157MOL    C9334725   5.506   2.857   1.656  0.1278  0.0808  0.5981
  157MOL    C9434726   5.594   2.541   1.747  0.1631 -0.9017  0.1370
  157MOL    H9534727   5.422   2.520   1.630 -0.5494 -0.7404 -0.5169
  157MOL    H9634728   5.532   2.878   1.552 -0.2185  0.5985  0.6173
  157MOL    H9734729   5.447   2.940   1.696 -2.4639 -1.3967 -0.0417
  157MOL    H9834730   5.598   2.842   1.713  1.1466 -0.6611 -1.1873
  157MOL    H9934731   5.573   2.434   1.747 -0.3452 -0.8037 -0.0002
  157MOL   H10034732   5.550   2.577   1.840  0.8014  1.0491 -0.2972
  157MOL   C10134733   5.735   2.573   1.740  1.0193 -0.2438  0.4261
  157MOL   C10234734   5.809   2.484   1.639  0.0881  0.0051  0.0432
  157MOL   O10334735   5.780   2.365   1.627  0.0128 -0.4818  0.3722
  157MOL   C10434736   5.928   2.548   1.570 -0.5747 -0.4578  1.0167
  157MOL   C10534737   5.807   2.564   1.875 -0.5914  0.0668  0.3038
  157MOL   H10634738   5.748   2.677   1.711 -4.4355  0.2757 -0.6915
  157MOL   H10734739   5.893   2.615   1.491 -1.4862 -0.3289  1.5112
  157MOL   H10834740   5.980   2.608   1.645 -0.6566  2.4453 -1.1661
  157MOL   H10934741   6.010   2.486   1.536 -1.5129 -0.0379 -2.1866
  157MOL   H11034742   5.915   2.553   1.864 -0.7164 -1.6818  0.6092
  157MOL   H11134743   5.783   2.469   1.924  0.3807 -1.0967 -1.4298
  157MOL   C11234744   5.780   2.671   1.979  0.6787 -0.2696  0.3813
  157MOL   C11334745   5.821   2.809   1.927  0.0074 -0.0709  0.7890
  157MOL   O11434746   5.922   2.828   1.851  0.5263  0.0724 -0.7242
  157MOL   C11534747   5.736   2.929   1.969  0.2688 -0.2277 -0.1473
  157MOL   C11634748   5.866   2.643   2.113  0.6156  0.0456 -0.2812
  157MOL   H11734749   5.673   2.675   2.000 -0.0507 -1.6905 -2.8243
  157MOL   H11834750   5.645   2.898   2.019  0.1895 -1.5881 -1.1202
  157MOL   H11934751   5.797   2.987   2.039 -1.0702  2.6270 -1.2475
  157MOL   H12034752   5.713   2.985   1.878 -0.3365  0.2157  0.2762
  157MOL   H12134753   5.897   2.737   2.159 -3.6302  0.1786  2.6090
  157MOL   H12234754   5.960   2.598   2.080  1.4176  0.2433  1.6796
  157MOL   C12334755   5.790   2.569   2.226  0.2454 -0.0619 -0.0540
  157MOL   C12434756   5.690   2.633   2.321 -0.8794 -0.0513  0.7378
  157MOL   O12534757   5.639   2.559   2.408  0.0080 -0.0697 -0.1631
  157MOL   C12634758   5.654   2.774   2.293  0.5618 -0.3085  0.4033
  157MOL   C12734759   5.881   2.460   2.296  0.7857  0.0374 -0.2698
  157MOL   H12834760   5.724   2.498   2.174 -0.2608  0.0029  0.4943
  157MOL   H12934761   5.600   2.809   2.381  0.4964  0.2378  0.1467
  157MOL   H13034762   5.744   2.834   2.283 -0.1248  0.5639 -0.7995
  157MOL   H13134763   5.593   2.797   2.205 -0.7476  2.8205  2.0365
  157MOL   H13234764   5.938   2.397   2.227  0.6423 -0.0566 -0.3019
  157MOL   H13334765   5.815   2.387   2.343 -0.5764 -0.1635 -2.4061
  157MOL   C13434766   5.966   2.521   2.417 -0.1666 -0.2950  0.1112
  157MOL   C13534767   6.079   2.611   2.369  0.5329 -0.4345 -0.9958
  157MOL   O13634768   6.152   2.571   2.282  0.0656  0.3232 -0.7071
  157MOL   C13734769   6.076   2.754   2.419  0.1988  0.2689 -0.3887
  157MOL   C13834770   6.013   2.410   2.509  0.2313 -0.1577  0.6628
  157MOL   H13934771   5.894   2.582   2.472 -0.3417  0.7667 -1.2571
  157MOL   H14034772   6.154   2.817   2.378  1.9394 -1.5824 -0.0249
  157MOL   H14134773   5.982   2.801   2.391 -1.3508 -0.9218  2.6129
  157MOL   H14234774   6.076   2.764   2.528  0.5042  0.9022 -0.4445
  157MOL   H14334775   6.110   2.378   2.471  0.4482  1.9784 -0.6900
  157MOL   H14434776   5.946   2.324   2.501  2.3958 -2.1167  2.7437
  157MOL   C14534777   6.036   2.448   2.657 -0.0284  0.5665  0.1916
  157MOL   C14634778   5.917   2.530   2.714 -0.7791  0.0881 -0.3734
  157MOL   O14734779   5.924   2.653   2.725 -0.1323  0.3164  0.4836
  157MOL   C14834780   5.795   2.450   2.750  0.3428 -0.3663 -0.5995
  157MOL   C14934781   6.170   2.514   2.684 -0.2453 -0.3119  0.2118
  157MOL   H15034782   6.029   2.351   2.707 -0.4340 -0.4489 -1.8009
  157MOL   H15134783   5.731   2.494   2.827  0.7954 -0.2589 -0.2804
  157MOL   H15234784   5.743   2.440   2.654 -0.4923 -1.1925 -0.0699
  157MOL   H15334785   5.817   2.349   2.782  0.3768 -0.5797 -1.2947
  157MOL   H15434786   6.193   2.610   2.637 -2.7278 -0.3142 -1.0945
  157MOL   H15534787   6.248   2.457   2.633  1.9862  2.9682 -0.2432
  157MOL   C15634788   6.222   2.522   2.834 -0.4657  0.2105  0.6652
  157MOL   C15734789   6.337   2.620   2.839  1.0865  0.7719  0.6000
  157MOL   O15834790   6.455   2.588   2.860  0.2920  0.1196 -0.6272
  157MOL   C15934791   6.297   2.765   2.814 -0.1614 -0.3810  0.1226
  157MOL   C16034792   6.260   2.387   2.894  0.1850  0.3079  0.3815
  157MOL   H16134793   6.137   2.570   2.883  0.2471  0.2156  1.9081
  157MOL   H16234794   6.287   2.785   2.707 -0.2114  0.9928  0.3708
  157MOL   H16334795   6.195   2.782   2.850 -0.7302  0.4634 -1.8452
  157MOL   H16434796   6.371   2.830   2.860 -2.0549  2.2461 -0.3800
  157MOL   H16534797   6.363   2.363   2.867  0.2117  1.0502 -0.2175
  157MOL   H16634798   6.202   2.309   2.845 -0.8321  0.1697  1.7775
  157MOL   C16734799   6.239   2.377   3.047  0.3022 -0.0505 -0.0745
  157MOL   C16834800   6.086   2.380   3.068  0.4492 -0.7404 -0.2479
  157MOL   O16934801   6.022   2.483   3.071  0.0722  0.1793 -0.5412
  157MOL   C17034802   6.017   2.248   3.046 -0.1061 -0.4360  0.0033
  157MOL   C17134803   6.309   2.467   3.145 -0.2621  1.7530  0.4520
  157MOL   H17234804   6.257   2.272   3.070 -1.6364 -0.4163 -0.0798
  157MOL   H17334805   6.051   2.193   2.959 -1.6768  0.0058 -0.9139
  157MOL   H17434806   6.011   2.182   3.133 -1.6327 -0.6803 -0.2757
  157MOL   H17534807   5.913   2.279   3.033  0.2779  1.3150  0.8660
  157MOL   H17634808   6.258   2.563   3.150  1.1202  2.4439  1.8638
  157MOL   H17734809   6.407   2.491   3.106 -0.0978  2.2988  1.1854
  157MOL   C17834810   6.303   2.402   3.290  0.2272  0.7441  0.2393
  157MOL   C17934811   6.250   2.496   3.400  0.2202  0.5279  0.4762
  157MOL   O18034812   6.326   2.571   3.462 -0.0154 -0.2917  0.4509
  157MOL   C18134813   6.093   2.487   3.420 -0.6800 -0.5158 -0.4073
  157MOL   C18234814   6.446   2.358   3.331  0.2217  0.6101  0.5858
  157MOL   H18334815   6.231   2.320   3.291 -0.0659  1.0047  0.8730
  157MOL   H18434816   6.055   2.401   3.477  0.1390  0.0026  0.9464
  157MOL   H18534817   6.070   2.576   3.478 -0.6800 -0.6199 -0.2448
  157MOL   H18634818   6.042   2.495   3.325  0.6406  1.6522 -0.9555
  157MOL   H18734819   6.500   2.446   3.366  1.0463  0.1419  0.4858
  157MOL   H18834820   6.493   2.329   3.237 -1.1286  0.3583 -0.0361
  157MOL   C18934821   6.461   2.244   3.437 -0.0765  0.4986 -0.5500
  157MOL   C19034822   6.558   2.296   3.544  0.4429  0.5134 -1.0927
  157MOL   O19134823   6.680   2.311   3.519 -0.3405 -0.2421 -0.5998
  157MOL   C19234824   6.511   2.317   3.687 -0.1958  0.2637  0.7932
  157MOL   C19334825   6.522   2.121   3.381  0.1431  0.3330  0.2432
  157MOL   H19434826   6.363   2.231   3.482 -0.3468  2.5671 -0.5147
  157MOL   H19534827   6.497   2.424   3.700 -1.2329  0.3887 -1.1889
  157MOL   H19634828   6.418   2.268   3.717  1.1942 -2.0237  1.5710
  157MOL   H19734829   6.592   2.285   3.753 -1.7254 -1.9585  1.6712
  157MOL   H19834830   6.535   2.042   3.455  0.7585 -0.6567 -0.9036
  157MOL   H19934831   6.623   2.147   3.348  0.4043 -0.4480  0.4067
  157MOL   C20034832   6.458   2.045   3.264 -0.5623 -0.3998  1.2138
  157MOL   C20134833   6.330   1.978   3.297  0.3980  0.3085 -0.1558
  157MOL   O20234834   6.222   2.036   3.272  0.1706  0.8036 -0.0862
  157MOL   C20334835   6.336   1.843   3.361 -0.1128 -0.5803 -0.0938
  157MOL   C20434836   6.557   1.964   3.181 -0.0278  0.0628 -0.0087
  157MOL   H20534837   6.435   2.130   3.200  2.6895 -0.2451  0.1334
  157MOL   H20634838   6.365   1.763   3.293 -0.4460  1.3741 -2.6095
  157MOL   H20734839   6.405   1.849   3.445 -1.7227 -1.6933  1.3631
  157MOL   H20834840   6.233   1.820   3.391 -0.1169  2.3090  2.3387
  157MOL   H20934841   6.581   1.868   3.227 -2.4036 -0.4557  0.2011
  157MOL   H21034842   6.659   2.001   3.192 -0.1524  1.2424 -2.5009
  157MOL   C21134843   6.514   1.947   3.028  0.4322 -0.1693  0.4314
  157MOL   C21234844   6.497   2.081   2.949 -0.3210 -0.0182 -0.7967
  157MOL   O21334845   6.396   2.095   2.882 -0.3912 -0.1750  0.2373
  157MOL   C21434846   6.602   2.191   2.961  0.4766  0.1838  0.0414
  157MOL   C21534847   6.398   1.852   3.014  0.5895  0.1018  0.3476
  157MOL   H21634848   6.602   1.894   2.992  0.1654 -0.8156  0.7277
  157MOL   H21734849   6.556   2.290   2.960 -1.8862 -0.8749 -1.1245
  157MOL   H21834850   6.650   2.193   3.058  1.2971  1.7718 -0.3842
  157MOL   H21934851   6.673   2.178   2.880 -1.4725  0.2341 -1.7410
  157MOL   H22034852   6.394   1.818   2.910 -1.5165  1.1188  0.0677
  157MOL   H22134853   6.299   1.886   3.044 -0.5822 -1.0001 -2.0579
  157MOL   H22234854   6.419   1.753   3.054 -2.2399 -1.8326 -2.6596
  158MOL     C134855   7.142   1.746   1.208  1.0052  0.7057  0.8036
  158MOL     C234856   7.280   1.695   1.166 -0.0885  0.1116 -0.1944
  158MOL     O334857   7.356   1.751   1.088 -0.5161 -0.1870 -0.4693
  158MOL     C434858   7.330   1.567   1.222  0.1934 -0.5174 -0.0910
  158MOL     C534859   7.131   1.885   1.148 -0.6815 -0.5696  0.3313
  158MOL     H634860   7.067   1.686   1.157  2.5676 -0.6532  0.0753
  158MOL     H734861   7.287   1.550   1.321  0.4522  0.0214  0.1160
  158MOL     H834862   7.302   1.489   1.151 -2.3786 -1.7681  2.1603
  158MOL     H934863   7.438   1.574   1.233  0.0332 -0.2598  1.3722
  158MOL    H1034864   7.166   1.883   1.045 -0.9476 -2.8869  0.2625
  158MOL    H1134865   7.205   1.940   1.206  1.0629  1.0703 -3.3035
  158MOL    H1234866   7.130   1.736   1.316  1.2219  0.8543  0.8420
  158MOL    C1334867   6.992   1.952   1.160 -0.1809 -0.2082 -0.5402
  158MOL    C1434868   6.886   1.882   1.079  0.4464  0.0802 -0.3296
  158MOL    O1534869   6.915   1.824   0.973 -0.3774 -0.3602 -0.4814
  158MOL    C1634870   6.748   1.866   1.137 -0.8687 -0.7554 -0.4264
  158MOL    C1734871   7.001   2.103   1.119 -0.2904 -0.1657 -0.9262
  158MOL    H1834872   6.972   1.946   1.267  0.5128  2.0529 -0.2758
  158MOL    H1934873   6.685   1.955   1.141 -1.1955 -1.0401  2.3447
  158MOL    H2034874   6.693   1.803   1.068 -1.3328 -1.0120  0.1680
  158MOL    H2134875   6.748   1.810   1.231  3.4090 -0.7833 -0.3516
  158MOL    H2234876   6.927   2.120   1.041 -2.3452 -1.1059  0.7536
  158MOL    H2334877   7.091   2.134   1.065  1.4683 -1.3212  1.2601
  158MOL    C2434878   6.981   2.212   1.226  0.5159 -0.0077 -0.7277
  158MOL    C2534879   7.088   2.204   1.341 -0.2007  0.1795  0.4318
  158MOL    O2634880   7.182   2.282   1.331  0.0131 -0.3191 -0.3886
  158MOL    C2734881   7.075   2.103   1.453  0.0348 -0.0649  0.7115
  158MOL    C2834882   6.830   2.216   1.276 -0.3611  0.2671 -0.4545
  158MOL    H2934883   6.999   2.308   1.179  0.7192  0.7617  0.8799
  158MOL    H3034884   7.105   2.155   1.544 -0.3120  0.3041  0.6165
  158MOL    H3134885   6.978   2.055   1.466  1.9798 -3.6722  2.8947
  158MOL    H3234886   7.142   2.022   1.425 -0.4312 -0.3671  0.4695
  158MOL    H3334887   6.795   2.118   1.306 -0.3318  0.0706 -1.0615
  158MOL    H3434888   6.770   2.243   1.190  0.0703  1.0827 -0.5066
  158MOL    C3534889   6.799   2.321   1.386 -0.1635 -0.5551 -0.2671
  158MOL    C3634890   6.667   2.288   1.453  0.6573  0.1492 -0.0607
  158MOL    O3734891   6.561   2.290   1.391  0.1891  0.4681  0.3427
  158MOL    C3834892   6.676   2.258   1.607  0.3941  0.3288 -0.8073
  158MOL    C3934893   6.813   2.471   1.345 -0.0398 -0.2197  0.1060
  158MOL    H4034894   6.875   2.328   1.465 -0.0355 -0.2419 -0.4189
  158MOL    H4134895   6.744   2.179   1.638  0.6288  0.5934 -0.6462
  158MOL    H4234896   6.726   2.351   1.636  0.4728  0.7637 -2.2760
  158MOL    H4334897   6.582   2.255   1.661  0.5054  0.2742 -0.6152
  158MOL    H4434898   6.912   2.483   1.302 -0.5393 -2.2431 -1.6934
  158MOL    H4534899   6.811   2.520   1.443 -2.4467 -0.0670  0.0116
  158MOL    C4634900   6.695   2.541   1.269 -0.0542  0.1958  0.2031
  158MOL    C4734901   6.701   2.503   1.122  0.0338  0.4605 -0.6148
  158MOL    O4834902   6.807   2.484   1.063 -0.5609 -0.3184  0.0458
  158MOL    C4934903   6.570   2.465   1.059  0.1200 -0.0076 -0.1879
  158MOL    C5034904   6.710   2.694   1.281  0.2754  0.3447 -0.4562
  158MOL    H5134905   6.598   2.521   1.314  0.0661 -1.6724 -0.3003
  158MOL    H5234906   6.533   2.380   1.116 -0.7351  1.9919  2.3538
  158MOL    H5334907   6.494   2.542   1.077 -2.7183 -2.2945 -2.0726
  158MOL    H5434908   6.586   2.438   0.955 -4.5389  1.3730 -1.4013
  158MOL    H5534909   6.709   2.713   1.389 -0.9914  2.4149 -0.8064
  158MOL    H5634910   6.619   2.734   1.238 -0.5000  0.0292  0.8410
  158MOL    C5734911   6.837   2.762   1.209  0.2709  0.4847 -0.2612
  158MOL    C5834912   6.922   2.845   1.308 -0.0740  0.0211  0.4208
  158MOL    O5934913   7.043   2.832   1.329  0.2316  0.0220 -0.2323
  158MOL    C6034914   6.865   2.965   1.394  0.0355 -0.7516  1.0239
  158MOL    C6134915   6.787   2.842   1.083 -0.0879 -0.4361  0.0232
  158MOL    H6234916   6.889   2.674   1.172  0.6212 -0.1768  1.7237
  158MOL    H6334917   6.934   2.992   1.474 -0.2040  1.3772  0.5417
  158MOL    H6434918   6.848   3.052   1.330  0.0155  0.1240  2.2133
  158MOL    H6534919   6.763   2.956   1.431 -0.7779 -1.4429 -1.2479
  158MOL    H6634920   6.738   2.933   1.117 -0.3884 -1.6265  2.8814
  158MOL    H6734921   6.714   2.791   1.020 -0.9036  1.1746 -0.3507
  158MOL    C6834922   6.900   2.880   0.987 -0.2877 -0.2778 -0.7001
  158MOL    C6934923   6.865   3.005   0.909  0.5842  0.1904 -1.0206
  158MOL    O7034924   6.822   3.005   0.792 -0.9034 -0.0672 -0.4020
  158MOL    C7134925   6.872   3.146   0.975  1.4584  0.1047  0.6894
  158MOL    C7234926   6.939   2.764   0.888 -0.4433 -0.5069 -0.5577
  158MOL    H7334927   6.993   2.905   1.039 -0.2154 -0.0783 -0.9222
  158MOL    H7434928   6.805   3.135   1.060 -1.0101  0.9305 -1.0866
  158MOL    H7534929   6.972   3.181   1.000  0.7631  1.7934  1.1470
  158MOL    H7634930   6.822   3.218   0.910  0.8922 -0.7942  0.1203
  158MOL    H7734931   6.857   2.750   0.817 -1.8324  0.6160  0.7965
  158MOL    H7834932   6.941   2.677   0.954 -0.5519 -0.8852 -1.0480
  158MOL    C7934933   7.081   2.785   0.830  0.4541 -0.0429 -0.2089
  158MOL    C8034934   7.092   2.754   0.678  0.6406  0.8491 -0.0909
  158MOL    O8134935   7.140   2.651   0.640  0.2216  0.2346  0.8804
  158MOL    C8234936   7.036   2.849   0.581  0.1091  0.3360  0.5820
  158MOL    C8334937   7.190   2.719   0.915  0.0248 -0.3052  0.2098
  158MOL    H8434938   7.097   2.893   0.828  2.0396 -0.2544 -0.0141
  158MOL    H8534939   7.057   2.847   0.475  0.0505 -1.1488  0.5952
  158MOL    H8634940   6.929   2.841   0.604  0.0565 -1.8382 -0.3216
  158MOL    H8734941   7.059   2.950   0.615 -0.8775 -0.0489  2.4794
  158MOL    H8834942   7.272   2.706   0.844 -0.2199 -1.0706  0.0657
  158MOL    H8934943   7.152   2.620   0.942  0.0260 -0.0492  1.1978
  158MOL    C9034944   7.234   2.795   1.044 -0.3901  0.1682  0.1643
  158MOL    C9134945   7.272   2.943   1.016 -0.0352  0.4430  0.4007
  158MOL    O9234946   7.195   3.034   1.040  0.3746 -0.3150 -0.0074
  158MOL    C9334947   7.406   2.965   0.941 -0.0448 -0.3970  1.3011
  158MOL    C9434948   7.338   2.711   1.111  0.7191  0.1520  0.1784
  158MOL    H9534949   7.146   2.798   1.109  1.1905 -0.9329  2.4180
  158MOL    H9634950   7.484   2.913   0.997 -0.4933  0.4267  2.7193
  158MOL    H9734951   7.399   2.928   0.839 -0.2508  3.5555 -0.1767
  158MOL    H9834952   7.420   3.073   0.939  0.6795 -0.5023  0.6149
  158MOL    H9934953   7.428   2.723   1.051  0.1414 -1.0475 -0.9624
  158MOL   H10034954   7.307   2.607   1.101 -1.4638  0.7924  0.1501
  158MOL   C10134955   7.357   2.735   1.258 -0.0771 -0.0072 -0.0918
  158MOL   C10234956   7.507   2.766   1.286  0.4339  0.1177 -0.1102
  158MOL   O10334957   7.585   2.680   1.330  0.2185  0.5660 -0.2212
  158MOL   C10434958   7.542   2.913   1.265 -0.7970  0.4647  0.7992
  158MOL   C10534959   7.310   2.616   1.342 -0.4100  1.2123  0.2309
  158MOL   H10634960   7.317   2.827   1.300  0.7062  0.1110  0.4007
  158MOL   H10734961   7.614   2.935   1.344  1.2704  0.7171 -1.1218
  158MOL   H10834962   7.593   2.934   1.171 -0.6945 -3.8640 -0.2291
  158MOL   H10934963   7.455   2.978   1.268  0.2198  1.9716 -1.1694
  158MOL   H11034964   7.379   2.531   1.341 -1.3381  0.2978  4.0942
  158MOL   H11134965   7.212   2.589   1.303  0.0709 -0.8174  0.3332
  158MOL   C11234966   7.285   2.638   1.494  0.7016  0.2548  0.6260
  158MOL   C11334967   7.414   2.607   1.572  0.1769  0.2078 -0.0116
  158MOL   O11434968   7.444   2.494   1.605 -0.1268  0.2743 -0.6221
  158MOL   C11534969   7.493   2.725   1.627 -0.6378 -0.0727  0.2607
  158MOL   C11634970   7.166   2.543   1.546  0.2192 -0.3639  0.8268
  158MOL   H11734971   7.266   2.741   1.523  0.5949 -0.0138  1.5271
  158MOL   H11834972   7.475   2.817   1.571 -0.2442  0.6791  1.3427
  158MOL   H11934973   7.483   2.742   1.734  1.3420 -0.3265  0.5011
  158MOL   H12034974   7.601   2.710   1.619 -0.5216  0.1327  1.3562
  158MOL   H12134975   7.209   2.444   1.532  0.6739 -0.1599  0.7750
  158MOL   H12234976   7.079   2.527   1.481 -1.0495 -0.3622  2.4872
  158MOL   C12334977   7.123   2.581   1.687 -0.2893  0.2057 -0.7761
  158MOL   C12434978   7.107   2.453   1.770  0.4762 -0.5419 -0.1247
  158MOL   O12534979   7.012   2.374   1.761 -0.2791 -0.2001  0.2260
  158MOL   C12634980   7.233   2.418   1.851 -0.2313 -0.2031  0.4141
  158MOL   C12734981   6.991   2.662   1.672 -0.3652  0.1619 -0.1411
  158MOL   H12834982   7.205   2.634   1.735  0.4812  0.8490 -2.7505
  158MOL   H12934983   7.330   2.420   1.802  1.6772  4.1264  3.8950
  158MOL   H13034984   7.242   2.491   1.932 -1.9086  2.0982 -1.4106
  158MOL   H13134985   7.226   2.314   1.883 -1.0627 -0.0478  0.7497
  158MOL   H13234986   6.909   2.599   1.637  1.1668 -0.6598 -2.3381
  158MOL   H13334987   7.001   2.736   1.593  2.1530  2.5562  2.2956
  158MOL   C13434988   6.935   2.713   1.802 -0.4333 -0.0990 -0.1649
  158MOL   C13534989   6.800   2.775   1.782  0.8889 -0.3511  0.7125
  158MOL   O13634990   6.754   2.809   1.675  0.2791  0.2612 -0.4221
  158MOL   C13734991   6.718   2.795   1.907 -0.2592 -0.7899 -0.0877
  158MOL   C13834992   7.028   2.799   1.896 -0.2854 -1.1321 -0.7358
  158MOL   H13934993   6.910   2.623   1.858 -0.1521 -0.1258 -0.0813
  158MOL   H14034994   6.682   2.898   1.908 -2.6721 -1.6136  0.6495
  158MOL   H14134995   6.628   2.735   1.910 -0.0082 -1.1519  0.3675
  158MOL   H14234996   6.784   2.775   1.992 -1.5380  0.9695  1.3854
  158MOL   H14334997   7.121   2.743   1.908  0.8966  0.8263 -0.6543
  158MOL   H14434998   6.998   2.797   2.001  0.7206 -2.8940 -0.4489
  158MOL   C14534999   7.065   2.947   1.853 -0.1118 -0.3315 -0.6185
  158MOL   C14635000   7.181   2.952   1.758 -0.7201 -0.5520  0.2662
  158MOL   O14735001   7.266   2.863   1.741  0.3374 -0.1650 -0.0310
  158MOL   C14835002   7.190   3.077   1.673  0.4940 -0.2173 -1.0173
  158MOL   C14935003   7.105   3.029   1.981  0.1784 -0.8749  0.9014
  158MOL   H15035004   6.975   2.988   1.808 -0.4343 -1.7203 -1.2745
  158MOL   H15135005   7.128   3.159   1.709  1.3734  0.2917 -0.6263
  158MOL   H15235006   7.291   3.119   1.665 -0.0470  1.2122 -0.5316
  158MOL   H15335007   7.166   3.056   1.569  1.6192 -1.5422 -1.0277
  158MOL   H15435008   7.148   3.124   1.951  1.2637 -1.5157  0.4245
  158MOL   H15535009   7.178   2.973   2.038 -0.5380 -1.3209  1.3851
  158MOL   C15635010   6.987   3.058   2.090  0.5732 -0.7663  0.0695
  158MOL   C15735011   6.874   3.146   2.036 -0.3180 -0.9080 -0.1117
  158MOL   O15835012   6.877   3.204   1.928  0.0062  0.1057  0.0318
  158MOL   C15935013   6.761   3.161   2.129 -0.2248 -0.0645 -0.4816
  158MOL   C16035014   7.051   3.132   2.209 -0.4584  0.2818 -0.7494
  158MOL   H16135015   6.946   2.964   2.126  0.6633 -1.2392 -1.0610
  158MOL   H16235016   6.666   3.141   2.078 -0.5521  0.6005 -0.1460
  158MOL   H16335017   6.763   3.097   2.217  3.0905  0.0605 -0.4088
  158MOL   H16435018   6.762   3.261   2.173  1.8513 -0.5190  0.5548
  158MOL   H16535019   6.966   3.165   2.269  0.3129  1.3133 -0.2103
  158MOL   H16635020   7.088   3.226   2.168 -2.3556  1.4413  0.0998
  158MOL   C16735021   7.155   3.056   2.302  0.4810 -0.4185  0.4548
  158MOL   C16835022   7.093   2.930   2.360 -0.2845  0.0272  0.1903
  158MOL   O16935023   6.997   2.931   2.437 -0.2804 -0.2610  0.4020
  158MOL   C17035024   7.142   2.799   2.298 -0.1329  0.0610 -0.0850
  158MOL   C17135025   7.199   3.141   2.420 -0.9687 -0.7119 -0.5707
  158MOL   H17235026   7.245   3.030   2.246  0.3928  2.7120 -1.2738
  158MOL   H17335027   7.075   2.759   2.221 -1.7551  1.0555  0.7980
  158MOL   H17435028   7.248   2.798   2.275 -0.1177 -1.2135  0.0076
  158MOL   H17535029   7.127   2.734   2.384 -0.5601 -0.0530 -0.2417
  158MOL   H17635030   7.185   3.100   2.520 -0.3287  2.0725  0.7009
  158MOL   H17735031   7.136   3.230   2.431  0.0751  0.0419 -0.5579
  158MOL   C17835032   7.338   3.202   2.423  0.0034  0.2927 -0.3206
  158MOL   C17935033   7.361   3.302   2.310 -0.2277 -0.0444  0.0539
  158MOL   O18035034   7.415   3.260   2.207  0.4269 -0.2585 -0.2378
  158MOL   C18135035   7.296   3.437   2.316  0.5448  0.0675 -0.1307
  158MOL   C18235036   7.444   3.094   2.450  0.1401  0.6369 -0.6273
  158MOL   H18335037   7.337   3.264   2.513 -1.5117 -1.2566  0.7813
  158MOL   H18435038   7.203   3.438   2.374  0.2918  0.6758 -0.5456
  158MOL   H18535039   7.365   3.507   2.363 -1.1092  1.1495  0.7208
  158MOL   H18635040   7.283   3.479   2.217 -1.0833 -1.8357 -0.7585
  158MOL   H18735041   7.532   3.114   2.388  1.3841 -3.1160 -0.1872
  158MOL   H18835042   7.414   3.004   2.397 -2.4944  1.2913 -0.3310
  158MOL   C18935043   7.471   3.058   2.602 -1.2331  0.5915 -0.4811
  158MOL   C19035044   7.522   3.185   2.675 -0.9080 -0.3921 -0.2710
  158MOL   O19135045   7.592   3.271   2.614 -0.1300  0.5689 -0.1554
  158MOL   C19235046   7.506   3.187   2.826 -0.6703  0.1532 -0.1434
  158MOL   C19335047   7.570   2.945   2.627 -0.2582  0.7151  0.2938
  158MOL   H19435048   7.378   3.044   2.658 -1.2264 -0.8238 -0.8027
  158MOL   H19535049   7.596   3.157   2.879 -0.5609 -1.5402 -1.2279
  158MOL   H19635050   7.468   3.283   2.860  0.5403 -0.1693  2.2502
  158MOL   H19735051   7.428   3.119   2.860 -0.2539  0.8501  2.2424
  158MOL   H19835052   7.659   2.983   2.677  0.6069 -0.6003 -0.2082
  158MOL   H19935053   7.614   2.918   2.531 -1.0287 -0.3297  0.2257
  158MOL   C20035054   7.537   2.810   2.705  0.1894 -0.0129 -0.7188
  158MOL   C20135055   7.466   2.725   2.598  0.8174 -0.4795 -0.3222
  158MOL   O20235056   7.348   2.747   2.577 -0.1443  0.0896  0.3425
  158MOL   C20335057   7.550   2.625   2.518  0.5185  0.2023 -0.2860
  158MOL   C20435058   7.458   2.837   2.836  0.0239  0.2575  0.1118
  158MOL   H20535059   7.635   2.767   2.726  0.1252 -0.0719 -0.5372
  158MOL   H20635060   7.579   2.665   2.422  0.9439 -1.1869 -0.7565
  158MOL   H20735061   7.642   2.610   2.574  0.4224  1.2950  0.1728
  158MOL   H20835062   7.508   2.525   2.504 -0.5852  0.6312 -0.1513
  158MOL   H20935063   7.364   2.887   2.814 -0.0767  0.3641  0.7789
  158MOL   H21035064   7.517   2.912   2.888 -0.7352  0.1278  1.1680
  158MOL   C21135065   7.437   2.713   2.923 -0.4747  0.0352 -0.3983
  158MOL   C21235066   7.321   2.740   3.019  0.3431  0.1664  0.7121
  158MOL   O21335067   7.331   2.772   3.138 -0.6988  0.3491  0.9906
  158MOL   C21435068   7.187   2.709   2.955 -0.3447  0.3662 -0.2725
  158MOL   C21535069   7.557   2.683   3.013 -0.4280 -0.0821 -0.3437
  158MOL   H21635070   7.425   2.626   2.859  0.5063  0.4076 -1.1003
  158MOL   H21735071   7.137   2.797   2.916 -2.5820 -1.0590 -0.6900
  158MOL   H21835072   7.193   2.637   2.873 -0.0660  1.0466 -0.8533
  158MOL   H21935073   7.140   2.660   3.040 -1.2798 -1.2664 -1.7132
  158MOL   H22035074   7.554   2.585   3.061  1.3968 -0.7351 -1.4773
  158MOL   H22135075   7.562   2.745   3.102  1.4686 -1.6968  0.7149
  158MOL   H22235076   7.652   2.677   2.959 -0.9064 -0.2891 -1.1902
  159MOL     C135077   2.755   3.918   1.831 -0.0792  0.2704 -0.1911
  159MOL     C235078   2.688   3.959   1.702  0.1219  0.2333  0.0550
  159MOL     O335079   2.568   3.946   1.680  0.0816  0.2586 -0.2786
  159MOL     C435080   2.776   4.009   1.594 -0.3423  0.3258  1.1172
  159MOL     C535081   2.663   3.903   1.949 -0.0902  0.3445  0.1584
  159MOL     H635082   2.811   3.826   1.817 -0.7235 -0.0131 -0.9877
  159MOL     H735083   2.712   4.000   1.506 -1.9469 -2.3114  2.4863
  159MOL     H835084   2.803   4.114   1.611  0.3260  0.5624 -1.2960
  159MOL     H935085   2.865   3.948   1.581  0.6359  2.0346 -0.4093
  159MOL    H1035086   2.717   3.865   2.035 -0.6774 -0.3739  0.2176
  159MOL    H1135087   2.591   3.823   1.930  1.1545 -0.8686  0.4873
  159MOL    H1235088   2.826   4.000   1.842 -0.5137  0.3692  2.1140
  159MOL    C1335089   2.587   4.034   1.997  0.0176 -0.0009 -0.4999
  159MOL    C1435090   2.671   4.107   2.108  0.6004 -0.1497  0.0145
  159MOL    O1535091   2.658   4.081   2.227 -0.3447  0.3045  0.0728
  159MOL    C1635092   2.776   4.204   2.060 -0.5426 -0.6731  0.6811
  159MOL    C1735093   2.443   4.010   2.051 -0.1261  0.0250 -0.2135
  159MOL    H1835094   2.572   4.098   1.911 -0.4095  1.3538  0.5719
  159MOL    H1935095   2.803   4.259   2.150 -0.5706 -0.0461  0.3047
  159MOL    H2035096   2.865   4.149   2.028 -0.8220 -0.3132 -0.7579
  159MOL    H2135097   2.743   4.275   1.984  1.7138 -0.5740 -0.2771
  159MOL    H2235098   2.411   4.098   2.107  1.0585  0.4240 -0.1450
  159MOL    H2335099   2.451   3.929   2.124  0.2158 -0.1942 -0.4950
  159MOL    C2435100   2.332   3.965   1.953  0.6796  0.0210  0.0601
  159MOL    C2535101   2.230   4.070   1.903 -0.0048  0.9347  0.1095
  159MOL    O2635102   2.114   4.074   1.946  0.2524 -0.3509  0.3151
  159MOL    C2735103   2.277   4.161   1.795  0.4965  0.1169 -0.5700
  159MOL    C2835104   2.247   3.839   2.012 -0.0550  0.1322  0.4876
  159MOL    H2935105   2.379   3.924   1.864  1.1848 -1.2234  0.8880
  159MOL    H3035106   2.274   4.112   1.698 -0.6491 -0.4582 -0.2511
  159MOL    H3135107   2.206   4.244   1.792 -0.3744 -0.5603  0.7426
  159MOL    H3235108   2.378   4.203   1.803  0.0893  1.0860 -0.4250
  159MOL    H3335109   2.190   3.876   2.097 -0.7294 -1.1556  0.6024
  159MOL    H3435110   2.320   3.769   2.053  0.8157  1.7075  1.6945
  159MOL    C3535111   2.159   3.770   1.893 -0.0076  0.3516  0.0727
  159MOL    C3635112   2.052   3.684   1.960 -0.1630 -0.0262 -0.4568
  159MOL    O3735113   2.052   3.558   1.953  0.4703 -0.4445 -0.3162
  159MOL    C3835114   1.944   3.755   2.037 -0.0229  0.1451 -0.2717
  159MOL    C3935115   2.247   3.686   1.791 -0.0558  0.4333 -0.0131
  159MOL    H4035116   2.109   3.849   1.837  1.8531  0.8137 -0.9907
  159MOL    H4135117   1.964   3.758   2.144 -0.2541  4.6530 -0.2863
  159MOL    H4235118   1.942   3.859   2.005 -1.3135  0.8923  2.0842
  159MOL    H4335119   1.842   3.732   2.007 -0.7855  2.1715  0.6881
  159MOL    H4435120   2.272   3.588   1.832  1.1860 -0.4190 -2.6759
  159MOL    H4535121   2.348   3.727   1.786 -0.3287  1.2873  1.1710
  159MOL    C4635122   2.202   3.660   1.646  0.1638  0.0475 -0.4284
  159MOL    C4735123   2.171   3.785   1.575 -0.6309 -0.1288  0.5377
  159MOL    O4835124   2.053   3.822   1.561  0.5599  0.0117 -0.1440
  159MOL    C4935125   2.284   3.876   1.527 -0.2632 -0.5515  0.2240
  159MOL    C5035126   2.090   3.547   1.636 -0.5953 -0.5940  0.2233
  159MOL    H5135127   2.289   3.626   1.590 -0.0284 -0.7315 -0.2653
  159MOL    H5235128   2.382   3.862   1.572  1.6885 -1.1069 -3.9847
  159MOL    H5335129   2.305   3.869   1.421 -0.1616  3.0490 -0.0679
  159MOL    H5435130   2.258   3.980   1.545  1.1954  0.3970 -2.8417
  159MOL    H5535131   2.054   3.546   1.533 -1.5563 -2.2813  0.5530
  159MOL    H5635132   2.011   3.583   1.702 -0.7790  0.4206 -0.5545
  159MOL    C5735133   2.126   3.402   1.678  0.6808  0.3593 -0.3409
  159MOL    C5835134   2.239   3.352   1.585 -0.2880 -0.7728 -0.7626
  159MOL    O5935135   2.275   3.409   1.483  0.0823 -0.1252  0.5709
  159MOL    C6035136   2.323   3.236   1.635  0.1703  0.3169  0.6058
  159MOL    C6135137   2.013   3.304   1.675  0.2829 -0.0895 -0.1311
  159MOL    H6235138   2.167   3.409   1.779  0.2336  1.1096 -0.2040
  159MOL    H6335139   2.304   3.203   1.737  0.0101 -0.3795  0.3540
  159MOL    H6435140   2.298   3.160   1.561  1.4697  1.3915 -0.9860
  159MOL    H6535141   2.426   3.265   1.620  0.3318 -0.5987 -0.1019
  159MOL    H6635142   2.059   3.205   1.682  0.7415  0.1737  0.7019
  159MOL    H6735143   1.967   3.305   1.576 -0.6868  1.5710  0.3251
  159MOL    C6835144   1.908   3.314   1.790 -0.2220 -0.3450 -0.4412
  159MOL    C6935145   1.937   3.250   1.922  0.1872  0.3002 -0.6009
  159MOL    O7035146   1.984   3.138   1.930  0.8507  0.4837 -0.0738
  159MOL    C7135147   1.896   3.320   2.050 -0.5474 -0.0596 -0.1672
  159MOL    C7235148   1.762   3.299   1.742  0.0292 -0.3576 -0.2560
  159MOL    H7335149   1.902   3.419   1.819 -2.1375 -0.8169  0.9689
  159MOL    H7435150   1.866   3.245   2.124 -0.4458 -0.3909 -0.4576
  159MOL    H7535151   1.970   3.389   2.090 -1.0155 -0.3763  1.2680
  159MOL    H7635152   1.812   3.388   2.035 -1.4995 -0.8776  1.3111
  159MOL    H7735153   1.701   3.291   1.832  0.6704  1.6465  0.3814
  159MOL    H7835154   1.750   3.206   1.686 -1.0379 -0.8915  0.8459
  159MOL    C7935155   1.715   3.430   1.662 -0.1883 -0.4490 -0.3671
  159MOL    C8035156   1.712   3.550   1.764 -0.5976  0.0299  0.9745
  159MOL    O8135157   1.700   3.528   1.884  0.0972 -0.3310 -0.3621
  159MOL    C8235158   1.736   3.693   1.716  0.1620  0.1546 -0.4427
  159MOL    C8335159   1.579   3.400   1.600 -0.1018 -0.3161 -0.1090
  159MOL    H8435160   1.790   3.448   1.585  1.3307 -4.5949  0.0065
  159MOL    H8535161   1.684   3.764   1.781  0.9149  1.0364 -0.8056
  159MOL    H8635162   1.842   3.717   1.705  0.7190 -1.0465  1.8691
  159MOL    H8735163   1.698   3.697   1.614  2.8855 -0.9508 -1.5458
  159MOL    H8835164   1.522   3.491   1.578 -1.3582 -1.8096 -3.4940
  159MOL    H8935165   1.518   3.342   1.669 -1.3226  1.5634  0.4356
  159MOL    C9035166   1.589   3.334   1.458 -0.1439 -0.9806  0.2282
  159MOL    C9135167   1.650   3.428   1.350 -0.2029 -0.4761  0.8753
  159MOL    O9235168   1.578   3.513   1.294 -1.0687 -0.5570 -0.1582
  159MOL    C9335169   1.797   3.412   1.314 -0.0222 -0.2902  0.9565
  159MOL    C9435170   1.441   3.294   1.424 -0.1483  0.3738 -0.2523
  159MOL    H9535171   1.654   3.247   1.469 -3.5326 -3.7132 -0.4358
  159MOL    H9635172   1.799   3.311   1.274 -2.9302  1.1026 -3.0215
  159MOL    H9735173   1.826   3.472   1.227 -1.1512 -3.5630 -1.8133
  159MOL    H9835174   1.873   3.433   1.389 -2.5695  2.4684  2.8466
  159MOL    H9935175   1.398   3.385   1.383  0.5902  0.3288 -1.1668
  159MOL   H10035176   1.397   3.250   1.513  0.4643  0.9505  0.3509
  159MOL   C10135177   1.428   3.185   1.308  0.0663 -0.0021 -0.8857
  159MOL   C10235178   1.273   3.163   1.297  0.1853 -0.0934  0.4580
  159MOL   O10335179   1.206   3.078   1.356  0.4554 -0.2229 -0.0771
  159MOL   C10435180   1.206   3.265   1.208  0.6638  0.0394 -0.6407
  159MOL   C10535181   1.509   3.051   1.339 -0.0942  0.2125 -0.6527
  159MOL   H10635182   1.459   3.240   1.220  0.8705  0.1422 -0.5180
  159MOL   H10735183   1.198   3.226   1.107 -4.0111 -0.0041 -0.3819
  159MOL   H10835184   1.101   3.281   1.232  0.8731 -1.1254  1.2584
  159MOL   H10935185   1.257   3.361   1.218  0.9499 -0.2707  1.0384
  159MOL   H11035186   1.458   3.016   1.429 -0.1463 -0.3181 -0.8856
  159MOL   H11135187   1.612   3.062   1.370  0.1632 -0.5719 -1.2032
  159MOL   C11235188   1.493   2.956   1.227 -0.0281 -0.5544  0.3052
  159MOL   C11335189   1.491   2.809   1.283  0.3156 -0.0876  0.0483
  159MOL   O11435190   1.554   2.779   1.387  0.3080 -0.5262  0.5008
  159MOL   C11535191   1.405   2.703   1.225  0.7603  0.0006 -0.1689
  159MOL   C11635192   1.604   2.964   1.124 -0.2421  0.0455 -0.1847
  159MOL   H11735193   1.398   2.965   1.173  0.3029  0.3612 -0.1444
  159MOL   H11835194   1.456   2.643   1.149  0.8230  0.3522 -0.4046
  159MOL   H11935195   1.383   2.628   1.301 -0.9620 -1.0690 -1.6928
  159MOL   H12035196   1.313   2.744   1.182  0.5271 -1.4226 -1.0695
  159MOL   H12135197   1.662   2.871   1.115 -0.2736 -0.3326  2.7536
  159MOL   H12235198   1.681   3.035   1.155  1.8957 -1.2742 -2.2484
  159MOL   C12335199   1.563   3.016   0.987 -0.0773  0.4577 -0.0017
  159MOL   C12435200   1.472   2.913   0.907 -0.1559 -0.0057 -0.1642
  159MOL   O12535201   1.467   2.798   0.942 -0.0300 -0.0137 -0.4692
  159MOL   C12635202   1.363   2.967   0.807 -0.8035  0.4924 -0.0168
  159MOL   C12735203   1.687   3.057   0.900  0.6139 -0.0930  0.1953
  159MOL   H12835204   1.501   3.104   1.005  0.4110  1.0090 -1.0407
  159MOL   H12935205   1.412   3.005   0.717 -1.0064 -1.2254 -0.8769
  159MOL   H13035206   1.301   2.888   0.765  0.5554 -0.4282 -0.3353
  159MOL   H13135207   1.302   3.036   0.865  0.5116  1.2761  0.4747
  159MOL   H13235208   1.724   2.979   0.834 -3.1308 -1.2661 -0.6836
  159MOL   H13335209   1.769   3.075   0.969  1.2250 -0.6504 -0.3805
  159MOL   C13435210   1.669   3.183   0.820 -0.0933 -0.4200 -0.4119
  159MOL   C13535211   1.781   3.196   0.714 -0.3817 -0.1085  0.5612
  159MOL   O13635212   1.902   3.169   0.739  0.0858  0.3908  1.0042
  159MOL   C13735213   1.733   3.245   0.577 -0.3621  0.0085 -0.1936
  159MOL   C13835214   1.687   3.306   0.905  0.3353 -0.0316 -0.3333
  159MOL   H13935215   1.575   3.183   0.766 -0.8745 -2.7132  0.8848
  159MOL   H14035216   1.641   3.201   0.538 -0.6008  0.4286 -0.0982
  159MOL   H14135217   1.703   3.349   0.581  0.0057  0.1137 -0.1550
  159MOL   H14235218   1.819   3.245   0.510 -0.3393  2.6773 -0.2064
  159MOL   H14335219   1.792   3.310   0.934  0.4306 -0.2714 -0.6275
  159MOL   H14435220   1.645   3.290   1.004  1.5407 -0.6657  0.0865
  159MOL   C14535221   1.621   3.430   0.848 -0.8019 -0.0041 -0.2949
  159MOL   C14635222   1.704   3.551   0.884 -0.6605 -0.4164 -0.0260
  159MOL   O14735223   1.823   3.564   0.848 -0.0326 -0.3777 -0.4044
  159MOL   C14835224   1.649   3.650   0.982  0.0868 -0.1579 -0.1027
  159MOL   C14935225   1.463   3.429   0.879  0.2137  0.4944  0.2930
  159MOL   H15035226   1.645   3.431   0.742 -2.4129 -0.1222 -0.6773
  159MOL   H15135227   1.620   3.749   0.946  0.6365 -0.4993 -1.5284
  159MOL   H15235228   1.580   3.607   1.055 -2.0951  1.2403 -1.2891
  159MOL   H15335229   1.736   3.668   1.046 -1.2999  1.2987  1.4521
  159MOL   H15435230   1.452   3.433   0.987 -1.0804 -2.9046  0.3293
  159MOL   H15535231   1.415   3.334   0.857 -1.2008  1.5202 -1.1105
  159MOL   C15635232   1.383   3.543   0.813  0.0610  0.5777  0.1330
  159MOL   C15735233   1.258   3.578   0.900 -0.0858  0.3296  0.4946
  159MOL   O15835234   1.186   3.494   0.941 -0.0848 -0.3512 -0.2611
  159MOL   C15935235   1.238   3.725   0.933 -0.2735  0.1658  0.6800
  159MOL   C16035236   1.356   3.558   0.663 -0.1751 -0.4500  0.3600
  159MOL   H16135237   1.451   3.625   0.835  0.7262  0.1349 -0.2760
  159MOL   H16235238   1.178   3.740   1.023 -1.8445  0.7648 -0.4412
  159MOL   H16335239   1.331   3.779   0.947 -1.1416  1.5214  1.4003
  159MOL   H16435240   1.195   3.773   0.845 -0.3611 -1.0156  0.0678
  159MOL   H16535241   1.451   3.556   0.611 -0.2478 -0.4760  0.2252
  159MOL   H16635242   1.335   3.663   0.641  1.3576 -0.5003 -1.4725
  159MOL   C16735243   1.248   3.464   0.593  0.1779 -0.8803 -0.4849
  159MOL   C16835244   1.287   3.320   0.597  0.1694  0.1835  0.5542
  159MOL   O16935245   1.401   3.280   0.576 -0.0244  0.7415  0.3582
  159MOL   C17035246   1.170   3.232   0.633 -0.5969  0.7930  0.3646
  159MOL   C17135247   1.219   3.524   0.452 -0.1904  1.1202 -0.5333
  159MOL   H17235248   1.154   3.482   0.646  0.1590 -1.1949 -0.4146
  159MOL   H17335249   1.084   3.267   0.576 -1.7083  0.8196  1.9984
  159MOL   H17435250   1.195   3.134   0.592 -4.9365 -0.9226  1.4354
  159MOL   H17535251   1.163   3.219   0.741 -0.0058  2.6206  0.6478
  159MOL   H17635252   1.198   3.630   0.458  1.6848  1.4707  0.7103
  159MOL   H17735253   1.125   3.477   0.425  0.1480  0.5048 -0.6648
  159MOL   C17835254   1.310   3.493   0.330 -0.0263  0.2737  0.3387
  159MOL   C17935255   1.442   3.571   0.341  0.0508  0.1592 -0.7879
  159MOL   O18035256   1.446   3.691   0.345 -0.3106  0.4049  0.0890
  159MOL   C18135257   1.571   3.492   0.328 -0.3424  0.1275  0.2458
  159MOL   C18235258   1.232   3.529   0.197 -0.1633  0.7326 -0.0598
  159MOL   H18335259   1.342   3.390   0.341  1.5737  0.6752 -0.3757
  159MOL   H18435260   1.545   3.393   0.292 -0.1884 -1.2577  3.7152
  159MOL   H18535261   1.638   3.537   0.256  0.7266  1.6191  2.1235
  159MOL   H18635262   1.627   3.482   0.421  0.9061  0.9153 -0.4126
  159MOL   H18735263   1.226   3.636   0.214  1.2111  0.6243  1.2138
  159MOL   H18835264   1.132   3.486   0.196  0.1883 -0.1204  0.2373
  159MOL   C18935265   1.308   3.488   0.063 -0.1974 -0.2079 -0.2815
  159MOL   C19035266   1.296   3.608   7.809  0.1848  0.2920  0.4840
  159MOL   O19135267   1.223   3.611   7.708  0.1227 -0.3807 -0.4565
  159MOL   C19235268   1.383   3.729   7.836 -0.2179 -0.7055 -0.0979
  159MOL   C19335269   1.269   3.347   0.024  0.3542  0.0902 -0.3322
  159MOL   H19435270   1.411   3.497   0.097 -0.5721  0.5904  0.6576
  159MOL   H19535271   1.477   3.688   0.032 -1.7464 -3.1143  1.2021
  159MOL   H19635272   1.388   3.776   7.738 -2.4685 -1.3968 -0.5617
  159MOL   H19735273   1.335   3.793   0.068  0.9428  0.3959 -0.2842
  159MOL   H19835274   1.227   3.345   7.766 -0.3458  2.8420 -0.1329
  159MOL   H19935275   1.183   3.319   0.084  0.4044  0.0204 -0.2914
  159MOL   C20035276   1.381   3.241   0.044 -0.3176  0.2398 -0.3463
  159MOL   C20135277   1.495   3.259   7.790 -0.0776 -0.0132 -0.0186
  159MOL   O20235278   1.509   3.360   7.717 -0.5767  0.1128  0.3113
  159MOL   C20335279   1.596   3.138   7.786 -0.4631  0.0599  0.2280
  159MOL   C20435280   1.329   3.088   0.052  0.5537 -0.3731 -0.8225
  159MOL   H20535281   1.438   3.272   0.132 -1.9345  1.9569  0.1306
  159MOL   H20635282   1.678   3.168   7.721  0.4635 -2.7254  0.0378
  159MOL   H20735283   1.625   3.118   0.047  1.0962 -0.1199 -0.2394
  159MOL   H20835284   1.545   3.049   7.752  0.1544 -0.3319  0.3185
  159MOL   H20935285   1.258   3.070   0.133  0.6544 -0.0492 -0.6612
  159MOL   H21035286   1.417   3.037   0.091  0.6969 -0.1168 -0.8093
  159MOL   C21135287   1.276   3.022   7.761 -0.3589 -0.0721 -0.1027
  159MOL   C21235288   1.128   3.045   7.733  0.2516  0.0853 -0.0160
  159MOL   O21335289   1.055   3.107   7.811 -0.0075 -0.3506  0.1813
  159MOL   C21435290   1.076   3.007   7.600 -0.4070 -0.2728  0.1655
  159MOL   C21535291   1.299   2.869   7.760 -0.0050 -0.5640 -0.1885
  159MOL   H21635292   1.334   3.063   7.679 -0.9449  0.3459 -0.3056
  159MOL   H21735293   1.026   3.096   7.563  0.8556  0.9574  1.3592
  159MOL   H21835294   1.154   2.984   7.528  0.6727 -2.4628  1.9535
  159MOL   H21935295   0.997   2.933   7.612  0.1574 -1.0925 -1.0802
  159MOL   H22035296   1.272   2.814   0.008  1.1204  1.3321  1.3317
  159MOL   H22135297   1.405   2.848   7.746  0.2647 -0.0763  1.1231
  159MOL   H22235298   1.249   2.816   7.678  0.5694 -1.9652  0.3489
  160MOL     C135299   5.586   2.755   6.065  0.6922  0.0352 -0.4016
  160MOL     C235300   5.528   2.713   5.933  0.7532  0.5928  0.0399
  160MOL     O335301   5.561   2.606   5.878  0.5051  0.0604 -0.1305
  160MOL     C435302   5.416   2.804   5.873 -0.5132  0.3517  0.2723
  160MOL     C535303   5.728   2.816   6.048  0.1881 -0.2481 -0.0116
  160MOL     H635304   5.518   2.834   6.098 -0.5096  0.1532 -3.0221
  160MOL     H735305   5.314   2.765   5.876 -1.2513  2.0658 -1.4472
  160MOL     H835306   5.427   2.902   5.918  0.2836  0.7395 -0.7417
  160MOL     H935307   5.427   2.820   5.765  0.6256 -2.0875  0.0075
  160MOL    H1035308   5.735   2.913   5.998  0.5745 -0.4626 -0.3797
  160MOL    H1135309   5.793   2.748   5.994  0.5458 -0.0026  0.1108
  160MOL    H1235310   5.579   2.678   6.141 -2.0680 -0.8797 -1.5335
  160MOL    C1335311   5.817   2.827   6.167 -0.0138  0.2915  0.3887
  160MOL    C1435312   5.752   2.900   6.288 -0.0553  0.0916  0.0268
  160MOL    O1535313   5.749   3.025   6.293  0.1503  0.1066 -0.1553
  160MOL    C1635314   5.674   2.826   6.393  0.0934  0.3186  0.2710
  160MOL    C1735315   5.953   2.894   6.128 -0.0160  0.0593  0.7883
  160MOL    H1835316   5.839   2.727   6.205  0.5676  0.2191 -0.1483
  160MOL    H1935317   5.640   2.732   6.350  0.9721 -0.6277  1.6350
  160MOL    H2035318   5.736   2.815   6.482 -0.4913 -0.5814  0.5714
  160MOL    H2135319   5.592   2.893   6.419 -0.9783 -0.7664 -0.2739
  160MOL    H2235320   5.952   2.988   6.073 -0.1732 -1.0387 -1.1492
  160MOL    H2335321   5.997   2.826   6.055 -1.4028  0.4858 -0.4627
  160MOL    C2435322   6.057   2.896   6.247  0.5701 -0.2838 -0.1838
  160MOL    C2535323   6.182   2.971   6.203 -0.0222  0.4799  0.4102
  160MOL    O2635324   6.189   3.096   6.217  0.1063  0.9070  0.4926
  160MOL    C2735325   6.291   2.899   6.133  0.0710  0.0740  0.5780
  160MOL    C2835326   6.081   2.766   6.337  0.1374 -0.1723  0.2075
  160MOL    H2935327   6.028   2.973   6.318  0.9023 -0.1622 -0.1777
  160MOL    H3035328   6.297   2.942   6.033  0.9141 -0.5798  0.3456
  160MOL    H3135329   6.379   2.926   6.191  0.6914 -1.9910  0.6181
  160MOL    H3235330   6.286   2.790   6.138 -1.9813  0.2049  1.9417
  160MOL    H3335331   6.129   2.682   6.287  4.3208  0.3572  3.0606
  160MOL    H3435332   5.980   2.731   6.359 -0.5848  2.1943  0.8678
  160MOL    C3535333   6.165   2.784   6.461 -0.3543 -0.0888 -0.0713
  160MOL    C3635334   6.089   2.875   6.564 -0.2429 -0.1247  0.5478
  160MOL    O3735335   6.010   2.825   6.647 -0.0110 -0.5113  0.8186
  160MOL    C3835336   6.121   3.021   6.565 -0.3401 -0.4973  0.3734
  160MOL    C3935337   6.318   2.796   6.458 -0.1222 -0.4435 -0.3227
  160MOL    H4035338   6.154   2.682   6.498 -3.0223 -1.2267 -3.6399
  160MOL    H4135339   6.206   3.030   6.633 -1.6803 -0.4430  2.0600
  160MOL    H4235340   6.147   3.067   6.469 -0.6445  2.5814  1.7322
  160MOL    H4335341   6.042   3.081   6.609 -0.2529 -0.9780  1.1986
  160MOL    H4435342   6.344   2.897   6.426 -1.6866  0.0549 -0.0633
  160MOL    H4535343   6.359   2.730   6.382 -0.3859 -2.1869  1.0169
  160MOL    C4635344   6.391   2.752   6.588  0.5061 -0.0227 -0.4477
  160MOL    C4735345   6.539   2.788   6.578 -0.0112 -0.3722 -0.7473
  160MOL    O4835346   6.601   2.762   6.474  0.4333  0.3364 -0.2358
  160MOL    C4935347   6.613   2.846   6.700 -0.0316 -0.1873  0.0279
  160MOL    C5035348   6.363   2.603   6.625  0.4175 -0.3229  0.0378
  160MOL    H5135349   6.358   2.822   6.665 -0.9481  1.3052 -2.2128
  160MOL    H5235350   6.716   2.871   6.673 -0.1687  0.8424  0.4440
  160MOL    H5335351   6.557   2.932   6.737  1.3296  1.5065 -1.7601
  160MOL    H5435352   6.621   2.774   6.781  0.5352  0.3180  0.4325
  160MOL    H5535353   6.442   2.542   6.581 -0.1546  0.0804 -1.5894
  160MOL    H5635354   6.272   2.564   6.579  0.8915 -1.0515 -0.2939
  160MOL    C5735355   6.346   2.579   6.780  0.5689 -0.3680  0.1991
  160MOL    C5835356   6.338   2.427   6.797 -1.0000  0.0535 -0.1552
  160MOL    O5935357   6.228   2.374   6.812 -0.8237 -0.2659 -0.0693
  160MOL    C6035358   6.470   2.346   6.795 -0.2584  0.1174 -0.2408
  160MOL    C6135359   6.225   2.649   6.844  0.1914  0.2581 -0.5776
  160MOL    H6235360   6.435   2.603   6.838  0.6138  1.8607 -0.7469
  160MOL    H6335361   6.490   2.309   6.896 -0.6391 -2.3240 -1.0312
  160MOL    H6435362   6.457   2.269   6.719  0.2486  0.6982 -0.9105
  160MOL    H6535363   6.546   2.407   6.748 -0.5057 -0.6371 -1.6523
  160MOL    H6635364   6.131   2.616   6.800  0.0561  1.5436 -1.2890
  160MOL    H6735365   6.222   2.757   6.826 -4.5411  0.8276  2.7310
  160MOL    C6835366   6.214   2.621   7.000 -0.3652 -0.7521 -0.3425
  160MOL    C6935367   6.072   2.644   7.049  0.3619  0.2051 -0.2357
  160MOL    O7035368   6.027   2.753   7.070  0.2371 -0.1073  0.1401
  160MOL    C7135369   5.986   2.529   7.101  0.4969 -0.3799  0.0825
  160MOL    C7235370   6.327   2.707   7.073 -0.0833 -0.2953 -0.0114
  160MOL    H7335371   6.243   2.517   7.010  0.2157 -0.4094  1.9282
  160MOL    H7435372   5.958   2.542   7.206  1.8974 -0.9026  0.5350
  160MOL    H7535373   5.894   2.524   7.043  0.8713  1.1949 -0.6667
  160MOL    H7635374   6.042   2.436   7.088  3.2700  1.1484  0.5272
  160MOL    H7735375   6.297   2.811   7.084 -3.6739 -1.1271 -1.2020
  160MOL    H7835376   6.421   2.714   7.019  0.3759  2.2805  1.0288
  160MOL    C7935377   6.379   2.680   7.221 -0.2406 -0.3128  0.0043
  160MOL    C8035378   6.278   2.745   7.326 -0.3050 -0.2780 -0.4514
  160MOL    O8135379   6.286   2.861   7.361  0.3339 -0.3156 -0.0709
  160MOL    C8235380   6.166   2.661   7.380  0.4054 -0.4728  0.3963
  160MOL    C8335381   6.528   2.729   7.229 -0.6741 -0.5037 -0.1232
  160MOL    H8435382   6.372   2.571   7.232 -1.3535 -0.4227 -1.4912
  160MOL    H8535383   6.070   2.667   7.329 -0.2535 -1.7227  1.4229
  160MOL    H8635384   6.193   2.555   7.370  0.7920 -0.3285 -0.1151
  160MOL    H8735385   6.155   2.680   7.487 -0.4504  1.9727 -0.1153
  160MOL    H8835386   6.528   2.832   7.193 -0.4355 -0.1871  0.7654
  160MOL    H8935387   6.587   2.688   7.147 -1.7525  1.8566 -2.1407
  160MOL    C9035388   6.603   2.711   7.370 -0.2248 -0.6293  0.2620
  160MOL    C9135389   6.716   2.820   7.389 -0.0760 -0.3423 -0.2195
  160MOL    O9235390   6.769   2.877   7.293  0.4205  0.1678  0.0884
  160MOL    C9335391   6.742   2.872   7.529 -0.0459  0.1318 -1.0228
  160MOL    C9435392   6.649   2.564   7.391  0.3725 -0.5192  0.3897
  160MOL    H9535393   6.537   2.734   7.453 -1.7276 -2.7983 -0.2984
  160MOL    H9635394   6.713   2.791   7.597 -0.2042  1.6137  0.7052
  160MOL    H9735395   6.844   2.908   7.534 -0.6065  1.5956  0.6137
  160MOL    H9835396   6.680   2.959   7.552 -3.3076 -2.4471  0.3974
  160MOL    H9935397   6.567   2.498   7.361  0.2214 -1.1814  2.1719
  160MOL   H10035398   6.645   2.542   7.498 -0.7184 -1.6688  0.1225
  160MOL   C10135399   6.790   2.518   7.330  0.9226 -0.2806 -0.6161
  160MOL   C10235400   6.789   2.478   7.184  0.5077  1.0210 -0.2394
  160MOL   O10335401   6.725   2.383   7.140 -0.1589  0.3100  0.0596
  160MOL   C10435402   6.873   2.567   7.092 -0.2052 -0.2515 -0.2738
  160MOL   C10535403   6.856   2.407   7.421 -0.2290 -0.2080  0.5303
  160MOL   H10635404   6.851   2.608   7.342  1.1943 -0.5671  0.1975
  160MOL   H10735405   6.954   2.608   7.154  0.3368 -1.1798 -0.3679
  160MOL   H10835406   6.915   2.505   7.014  0.1149 -1.6862  1.0107
  160MOL   H10935407   6.815   2.656   7.068 -0.8968 -0.9216 -1.0967
  160MOL   H11035408   6.910   2.337   7.357 -2.0975 -1.1550 -0.0202
  160MOL   H11135409   6.781   2.343   7.466 -0.4411  0.5807  1.3178
  160MOL   C11235410   6.949   2.460   7.536 -0.4714  0.9889  0.1367
  160MOL   C11335411   7.056   2.560   7.485 -0.1246  0.3952 -0.0129
  160MOL   O11435412   7.076   2.569   7.364 -0.4466 -0.3305 -0.2992
  160MOL   C11535413   7.119   2.648   7.588  0.3931 -0.1485  0.0311
  160MOL   C11635414   7.026   2.339   7.585  0.2762 -0.2269 -0.6394
  160MOL   H11735415   6.895   2.497   7.623 -1.8377  1.9947 -1.1085
  160MOL   H11835416   7.034   2.693   7.640 -1.3557 -1.7398 -1.3733
  160MOL   H11935417   7.184   2.585   7.649 -0.9356 -1.5656  0.0391
  160MOL   H12035418   7.183   2.721   7.539 -1.0689  1.5857  0.6768
  160MOL   H12135419   7.082   2.369   7.673  0.2274 -1.2834 -0.2446
  160MOL   H12235420   7.088   2.318   7.498  1.5933  0.1408  0.2085
  160MOL   C12335421   6.943   2.211   7.641 -0.0087 -0.0760 -0.8725
  160MOL   C12435422   6.891   2.244   7.779  0.7503 -0.1867  0.4781
  160MOL   O12535423   6.970   2.234   0.033  0.7710 -0.4178  0.4697
  160MOL   C12635424   6.745   2.290   7.782  0.4532  0.2750  0.7736
  160MOL   C12735425   7.035   2.088   7.636 -0.1174  0.1178 -0.5705
  160MOL   H12835426   6.854   2.193   7.581  0.5449  1.2929 -2.1436
  160MOL   H12935427   6.737   2.353   0.029 -2.3849  0.9340  0.1127
  160MOL   H13035428   6.718   2.360   7.702  3.4126  2.4657  1.6002
  160MOL   H13135429   6.663   2.218   7.788  2.1822 -2.1642 -3.2143
  160MOL   H13235430   7.110   2.106   7.713 -0.8775 -1.3918  0.5700
  160MOL   H13335431   7.086   2.083   7.541  1.7962  2.2994  0.3145
  160MOL   C13435432   6.986   1.947   7.672 -0.5872  0.2008  0.4835
  160MOL   C13535433   7.102   1.848   7.688  0.2370  0.4600  0.2203
  160MOL   O13635434   7.159   1.801   7.593  0.2872  0.2598 -0.4432
  160MOL   C13735435   7.138   1.811   7.829 -0.1440  0.1640 -0.0832
  160MOL   C13835436   6.877   1.903   7.572  0.1200  0.5420  0.2043
  160MOL   H13935437   6.924   1.941   7.761 -1.1626  0.1595  0.0836
  160MOL   H14035438   7.073   1.740   0.038  1.0342 -0.1603  0.9812
  160MOL   H14135439   7.239   1.772   7.841  0.0418  0.3672 -0.9466
  160MOL   H14235440   7.141   1.910   0.033 -0.1959  0.9428 -1.7064
  160MOL   H14335441   6.917   1.904   7.470 -0.0625  1.7984  0.1371
  160MOL   H14435442   6.801   1.980   7.582  0.2392  0.5459  1.1816
  160MOL   C14535443   6.801   1.776   7.609  0.6394  0.1702 -0.4022
  160MOL   C14635444   6.729   1.713   7.486 -0.1238  0.5150  0.1683
  160MOL   O14735445   6.615   1.738   7.457 -0.3525  0.4882  0.3513
  160MOL   C14835446   6.803   1.600   7.419 -0.1017  0.4061  0.2041
  160MOL   C14935447   6.707   1.792   7.729  0.0760 -0.0318  0.5913
  160MOL   H15035448   6.875   1.703   7.642 -1.8348 -2.4960 -0.5743
  160MOL   H15135449   6.756   1.574   7.324  0.4456 -2.9412  0.8143
  160MOL   H15235450   6.905   1.626   7.390 -0.0115 -0.5086 -0.3046
  160MOL   H15335451   6.797   1.505   7.472  2.7333  0.4828  0.7225
  160MOL   H15435452   6.601   1.778   7.707  0.5140 -1.7140 -0.5172
  160MOL   H15535453   6.705   1.896   7.763 -0.4905  0.1377  0.0435
  160MOL   C15635454   6.732   1.701   0.015  0.2838 -0.7683 -0.0911
  160MOL   C15735455   6.715   1.553   7.824  1.0949 -0.3241  0.2721
  160MOL   O15835456   6.602   1.501   7.808 -0.2174 -0.3814 -0.2825
  160MOL   C15935457   6.841   1.466   7.815  0.6490 -0.8805 -0.7412
  160MOL   C16035458   6.630   1.738   0.123  0.3353  0.6358  0.0231
  160MOL   H16135459   6.835   1.706   0.049  0.4677 -0.7271 -0.6530
  160MOL   H16235460   6.900   1.480   7.725 -0.2399 -0.9540 -1.3481
  160MOL   H16335461   6.919   1.486   0.046 -0.3233 -0.1657  0.1266
  160MOL   H16435462   6.822   1.360   7.832  1.9262 -1.5486 -3.2396
  160MOL   H16535463   6.575   1.647   0.150 -1.3913  1.0536 -1.9405
  160MOL   H16635464   6.566   1.816   0.082  1.4086  2.0204  0.9213
  160MOL   C16735465   6.689   1.787   0.252 -0.2026 -0.0353 -0.4979
  160MOL   C16835466   6.797   1.895   0.233 -0.1443  0.1900 -0.4451
  160MOL   O16935467   6.923   1.870   0.231  0.3098  0.3672 -0.4992
  160MOL   C17035468   6.750   2.039   0.200  0.5704  0.8691 -0.2539
  160MOL   C17135469   6.733   1.675   0.343 -0.6991  0.1617 -0.2197
  160MOL   H17235470   6.607   1.847   0.290 -0.2790  0.1958 -1.0168
  160MOL   H17335471   6.690   2.084   0.279  0.4932  0.0757  0.1402
  160MOL   H17435472   6.839   2.103   0.197  1.8895 -0.7375  2.4388
  160MOL   H17535473   6.702   2.035   0.103  0.7655 -0.6689 -0.2998
  160MOL   H17635474   6.834   1.707   0.368  0.2647 -2.3743 -0.7717
  160MOL   H17735475   6.757   1.588   0.281  1.3147  0.1145  0.6073
  160MOL   C17835476   6.641   1.653   0.478 -0.0323  0.1310 -0.3229
  160MOL   C17935477   6.642   1.793   0.555  0.2276 -0.1810  0.0913
  160MOL   O18035478   6.554   1.876   0.537 -0.9345 -0.1670 -0.8259
  160MOL   C18135479   6.761   1.834   0.636  0.5224  0.1395 -0.0441
  160MOL   C18235480   6.690   1.535   0.564 -0.7137 -0.7571  0.3543
  160MOL   H18335481   6.540   1.634   0.442 -0.7347  0.5326  1.3382
  160MOL   H18435482   6.847   1.769   0.625  2.1742  1.6457  3.4078
  160MOL   H18535483   6.798   1.936   0.623 -0.4971  0.5903  0.4528
  160MOL   H18635484   6.721   1.838   0.738 -0.1603  0.8208 -0.3281
  160MOL   H18735485   6.768   1.578   0.627  0.9600 -1.5956 -1.1216
  160MOL   H18835486   6.725   1.462   0.492 -2.4692 -1.1998 -0.0832
  160MOL   C18935487   6.600   1.474   0.669 -0.3289  0.1566  0.2527
  160MOL   C19035488   6.695   1.422   0.788  0.5564  0.1630 -0.1115
  160MOL   O19135489   6.747   1.313   0.789  0.2513  0.3396  0.1985
  160MOL   C19235490   6.716   1.524   0.906 -0.1662 -0.8197 -0.4111
  160MOL   C19335491   6.491   1.379   0.604 -0.2740 -0.7114  0.2528
  160MOL   H19435492   6.538   1.553   0.709  0.5263  2.1963 -2.2665
  160MOL   H19535493   6.636   1.501   0.975  0.7333 -0.1884  0.8509
  160MOL   H19635494   6.811   1.501   0.955 -0.4283  1.1603  1.0950
  160MOL   H19735495   6.723   1.630   0.879 -0.9018 -0.9504 -1.1157
  160MOL   H19835496   6.421   1.443   0.550  1.4161 -0.7338 -2.0552
  160MOL   H19935497   6.432   1.336   0.684 -1.9426 -0.6198 -0.9001
  160MOL   C20035498   6.534   1.267   0.504  0.3724 -0.0777 -0.0857
  160MOL   C20135499   6.553   1.305   0.359  0.5844 -0.3943  0.8118
  160MOL   O20235500   6.496   1.406   0.314 -0.0897 -0.6692  0.4176
  160MOL   C20335501   6.666   1.229   0.283 -0.2103  0.1232 -0.1164
  160MOL   C20435502   6.436   1.152   0.510  0.2519  0.7041  0.1242
  160MOL   H20535503   6.634   1.236   0.536  0.0694 -0.0394  0.9177
  160MOL   H20635504   6.768   1.253   0.314  0.2425  0.5044 -1.8417
  160MOL   H20735505   6.641   1.123   0.279  1.1659 -0.3363  2.4110
  160MOL   H20835506   6.678   1.268   0.182  0.0223 -1.1811 -0.6003
  160MOL   H20935507   6.459   1.088   0.426  4.6331  0.2790  1.5539
  160MOL   H21035508   6.334   1.192   0.506 -0.7167 -1.7556 -0.8906
  160MOL   C21135509   6.460   1.053   0.627  0.2379  0.0706  0.0304
  160MOL   C21235510   6.580   0.956   0.592  0.0767 -0.4474 -0.0251
  160MOL   O21335511   6.646   0.966   0.492  0.2545 -0.7607  0.0339
  160MOL   C21435512   6.611   0.857   0.703  0.7022 -0.0906  0.0310
  160MOL   C21535513   6.329   0.969   0.662  0.2513 -0.4689  0.0394
  160MOL   H21635514   6.492   1.107   0.715 -0.1521  0.9927 -0.3873
  160MOL   H21735515   6.548   0.769   0.687 -1.6492  1.6071 -0.4550
  160MOL   H21835516   6.715   0.827   0.696  0.8512  0.5219 -0.4371
  160MOL   H21935517   6.592   0.891   0.805  2.4246 -1.5190  0.8444
  160MOL   H22035518   6.305   0.897   0.584 -2.6906 -0.8022  1.1933
  160MOL   H22135519   6.234   1.022   0.662 -0.9852 -2.5879 -2.1817
  160MOL   H22235520   6.335   0.905   0.750  2.1053  0.0055  0.2820
  161MOL     C135521   5.820   4.773   6.331 -0.4205 -0.2422  0.1286
  161MOL     C235522   5.784   4.838   6.465  0.3886 -0.2031 -1.2785
  161MOL     O335523   5.789   4.960   6.490  0.3026 -0.0020  0.2009
  161MOL     C435524   5.725   4.747   6.566  0.2272  0.3895 -0.2910
  161MOL     C535525   5.832   4.883   6.225 -0.6242  0.3123  0.2025
  161MOL     H635526   5.910   4.715   6.350  0.6131  1.2546 -0.0826
  161MOL     H735527   5.783   4.755   6.658 -1.9981  2.0087  1.0255
  161MOL     H835528   5.622   4.776   6.585  0.2663 -0.8695  2.1359
  161MOL     H935529   5.739   4.648   6.523 -2.7066 -0.6583  1.0474
  161MOL    H1035530   5.898   4.965   6.252 -1.3220  0.4921  1.4100
  161MOL    H1135531   5.732   4.924   6.216 -0.0528  2.7141  3.6792
  161MOL    H1235532   5.745   4.704   6.293 -0.4707 -0.7008  1.0465
  161MOL    C1335533   5.861   4.818   6.085 -0.5565 -0.2713  0.0179
  161MOL    C1435534   5.941   4.929   6.009  0.6909 -0.6386 -0.5469
  161MOL    O1535535   6.061   4.925   6.007 -0.6819 -0.3042 -0.3763
  161MOL    C1635536   5.872   5.058   5.964 -0.4007 -0.7894  0.2528
  161MOL    C1735537   5.738   4.761   5.999  0.0280 -0.2368  0.8563
  161MOL    H1835538   5.935   4.742   6.109 -1.4024 -0.3244  2.5603
  161MOL    H1935539   5.805   5.039   5.881  0.3997 -0.1236 -0.5608
  161MOL    H2035540   5.816   5.091   6.052 -1.0836  0.6854 -0.6974
  161MOL    H2135541   5.944   5.135   5.936  0.8664 -1.1990  2.2406
  161MOL    H2235542   5.682   4.831   5.937  0.3119  0.0945  0.9725
  161MOL    H2335543   5.666   4.751   6.080 -0.1994  0.6784  0.7683
  161MOL    C2435544   5.771   4.623   5.926  0.0824 -0.2253 -0.4889
  161MOL    C2535545   5.889   4.637   5.832 -0.6467  0.0633 -0.1855
  161MOL    O2635546   5.892   4.724   5.742 -0.1558 -0.2146  0.1746
  161MOL    C2735547   6.008   4.542   5.855  0.2601 -0.1373  0.2269
  161MOL    C2835548   5.655   4.550   5.865 -0.4303  0.3554  0.0852
  161MOL    H2935549   5.806   4.542   5.990  2.8603  0.3498 -1.1922
  161MOL    H3035550   6.087   4.587   5.916 -1.4051  1.2354  1.4374
  161MOL    H3135551   5.958   4.461   5.909  1.2333 -0.3702  0.7830
  161MOL    H3235552   6.051   4.512   5.760  1.0410  1.0815  0.1816
  161MOL    H3335553   5.576   4.547   5.941 -1.5025  0.6714 -1.0011
  161MOL    H3435554   5.698   4.451   5.848 -0.2104  0.6591 -1.1472
  161MOL    C3535555   5.590   4.612   5.730 -0.5065  0.0971 -0.1615
  161MOL    C3635556   5.509   4.741   5.752  0.1985 -0.2052  0.3378
  161MOL    O3735557   5.408   4.741   5.826 -0.2362  0.5797 -0.9238
  161MOL    C3835558   5.551   4.865   5.675 -0.5609 -0.0799 -0.1957
  161MOL    C3935559   5.498   4.514   5.650  0.0004 -0.0071 -0.9304
  161MOL    H4035560   5.668   4.632   5.656  0.4928 -1.1206  0.5292
  161MOL    H4135561   5.659   4.875   5.677 -0.6233  0.6560  3.1473
  161MOL    H4235562   5.539   4.842   5.569  0.9050  0.3001 -0.4462
  161MOL    H4335563   5.503   4.957   5.707  2.5762  1.6740 -0.3394
  161MOL    H4435564   5.474   4.574   5.563  0.3759  0.6093 -0.6132
  161MOL    H4535565   5.416   4.486   5.716  0.0537  0.6985 -0.5584
  161MOL    C4635566   5.562   4.384   5.603 -0.1349  0.4594  0.1342
  161MOL    C4735567   5.670   4.400   5.500 -0.1169  0.3447  0.2977
  161MOL    O4835568   5.789   4.374   5.523  0.0961  0.0138  0.3173
  161MOL    C4935569   5.638   4.463   5.365 -0.0682 -0.1497 -0.0645
  161MOL    C5035570   5.447   4.302   5.549  0.3192 -0.1825 -0.2986
  161MOL    H5135571   5.609   4.330   5.685  2.3723  0.2419 -1.3917
  161MOL    H5235572   5.563   4.399   5.319  0.7175 -1.1392  0.0097
  161MOL    H5335573   5.599   4.564   5.375  2.1517  1.0091 -2.4051
  161MOL    H5435574   5.730   4.452   5.307  0.0098 -1.6175  0.3123
  161MOL    H5535575   5.490   4.217   5.496  1.4836  1.0855 -1.3793
  161MOL    H5635576   5.394   4.370   5.482  1.5527  1.2760  0.1878
  161MOL    C5735577   5.346   4.247   5.648 -0.3097 -0.4151  0.4027
  161MOL    C5835578   5.403   4.142   5.733 -0.0565 -0.1168  0.1126
  161MOL    O5935579   5.394   4.022   5.708 -0.0245 -0.1806 -0.0932
  161MOL    C6035580   5.465   4.195   5.860 -0.0402 -0.8440 -0.4344
  161MOL    C6135581   5.226   4.188   5.569  0.8960 -0.4616  0.0162
  161MOL    H6235582   5.298   4.315   5.718  0.2308 -0.3540  0.7153
  161MOL    H6335583   5.572   4.176   5.854  0.0788 -0.0040 -1.1367
  161MOL    H6435584   5.454   4.303   5.859  0.1208 -0.8208  0.2277
  161MOL    H6535585   5.429   4.140   5.947  0.2352 -0.3062  0.0214
  161MOL    H6635586   5.268   4.113   5.502  1.4560 -1.1838  1.1650
  161MOL    H6735587   5.190   4.268   5.505 -0.2322  0.8230  2.1932
  161MOL    C6835588   5.092   4.132   5.633 -0.8624  0.0074 -0.3443
  161MOL    C6935589   5.029   4.028   5.533  0.1309 -0.5927 -1.0099
  161MOL    O7035590   4.954   4.064   5.443 -0.8390  0.3005  0.0210
  161MOL    C7135591   5.100   3.892   5.523 -0.6685  0.1182  0.3032
  161MOL    C7235592   5.001   4.246   5.669  0.6386 -0.2872 -0.3230
  161MOL    H7335593   5.120   4.073   5.721  1.3579 -0.6564 -1.4444
  161MOL    H7435594   5.205   3.913   5.537  0.2681 -2.2740 -2.4042
  161MOL    H7535595   5.079   3.838   5.615 -0.2286  0.0462  0.3620
  161MOL    H7635596   5.096   3.836   5.429  0.3813  1.5933 -0.6249
  161MOL    H7735597   4.960   4.299   5.583  0.7661  2.0011  0.9967
  161MOL    H7835598   5.047   4.337   5.706 -0.2864 -0.5785  1.6073
  161MOL    C7935599   4.887   4.200   5.771 -0.1068  0.0996 -0.8253
  161MOL    C8035600   4.751   4.226   5.717 -0.0457  0.5136  0.4609
  161MOL    O8135601   4.687   4.331   5.731  0.1343 -0.5419 -0.1586
  161MOL    C8235602   4.692   4.115   5.629 -0.3687 -0.3048  0.7131
  161MOL    C8335603   4.901   4.250   5.917  0.3761  0.0455 -0.2471
  161MOL    H8435604   4.894   4.092   5.766 -0.2852 -0.1402  2.6985
  161MOL    H8535605   4.586   4.117   5.603 -0.5929  0.9995  1.6604
  161MOL    H8635606   4.740   4.124   5.532 -3.9421  2.1432 -0.9724
  161MOL    H8735607   4.721   4.016   5.663 -1.8514 -0.5137  1.4258
  161MOL    H8835608   4.803   4.235   5.963  1.0894 -2.3502  0.5266
  161MOL    H8935609   4.915   4.358   5.907  0.2781 -0.0254 -1.2051
  161MOL    C9035610   5.023   4.190   5.987 -0.4548  0.0225  0.5236
  161MOL    C9135611   5.007   4.039   6.003  0.3396 -0.2331 -0.3017
  161MOL    O9235612   5.047   3.963   5.917  0.3916  0.6619  0.1770
  161MOL    C9335613   4.953   3.982   6.132  0.3899 -0.1379  0.0147
  161MOL    C9435614   5.076   4.254   6.117  0.4284 -0.1156 -0.7393
  161MOL    H9535615   5.097   4.213   5.910 -3.3505 -0.1617 -2.4343
  161MOL    H9635616   4.915   4.056   6.202  0.3145  2.5762 -2.7793
  161MOL    H9735617   4.882   3.903   6.111  1.5568 -0.8359 -1.4344
  161MOL    H9835618   5.037   3.933   6.182  0.7857  2.0679  1.5728
  161MOL    H9935619   5.171   4.205   6.139  1.5733  2.2071 -0.3700
  161MOL   H10035620   5.002   4.242   6.196 -0.7382  2.2230 -1.4334
  161MOL   C10135621   5.089   4.407   6.114  0.4921 -0.2763  0.1460
  161MOL   C10235622   5.191   4.460   6.010 -0.3454  0.7991  0.5711
  161MOL   O10335623   5.311   4.438   6.023  0.4408 -0.0490 -0.2520
  161MOL   C10435624   5.148   4.535   5.881  0.0628 -0.2365 -0.1767
  161MOL   C10535625   5.104   4.472   6.253 -0.4543  0.2585 -1.2620
  161MOL   H10635626   4.992   4.443   6.082  1.0740  0.1660 -1.1471
  161MOL   H10735627   5.187   4.483   5.793  0.8518  1.4432 -0.8480
  161MOL   H10835628   5.039   4.532   5.872  0.0736 -1.5785  0.0147
  161MOL   H10935629   5.181   4.639   5.873 -0.0266 -0.1454  0.6486
  161MOL   H11035630   5.031   4.428   6.321  1.1763  1.5303  1.3929
  161MOL   H11135631   5.053   4.567   6.240  1.2996  1.6640  1.7320
  161MOL   C11235632   5.245   4.477   6.323  0.0904 -0.3378 -0.0750
  161MOL   C11335633   5.292   4.336   6.357 -0.3335  0.0672  0.3138
  161MOL   O11435634   5.229   4.259   6.427  0.4330  0.0946  0.4116
  161MOL   C11535635   5.434   4.288   6.321 -0.0826 -0.4391 -0.0406
  161MOL   C11635636   5.263   4.564   6.450  0.0327 -0.1665  0.6073
  161MOL   H11735637   5.317   4.527   6.257  0.5840  0.9849  1.4424
  161MOL   H11835638   5.443   4.303   6.213 -0.9083 -0.6523 -0.1425
  161MOL   H11935639   5.514   4.342   6.371 -0.8824  0.6631  0.0878
  161MOL   H12035640   5.446   4.182   6.338 -1.5429 -0.8466 -1.3478
  161MOL   H12135641   5.361   4.537   6.487  0.3389  0.3131  0.1538
  161MOL   H12235642   5.195   4.538   6.531 -0.6381 -0.7793 -0.1408
  161MOL   C12335643   5.279   4.716   6.428  0.4410  0.3511 -0.3041
  161MOL   C12435644   5.410   4.743   6.351  0.2132 -0.0395  0.3895
  161MOL   O12535645   5.511   4.673   6.351 -0.1941 -0.0754  0.3530
  161MOL   C12635646   5.411   4.874   6.279  0.3868 -0.4724  0.7519
  161MOL   C12735647   5.283   4.787   6.562 -0.3313  0.5080 -0.6439
  161MOL   H12835648   5.199   4.760   6.369  0.2849  0.5695  0.0708
  161MOL   H12935649   5.481   4.879   6.195 -0.3430  1.1649  0.2178
  161MOL   H13035650   5.314   4.887   6.231  0.9093 -0.8501 -0.4194
  161MOL   H13135651   5.428   4.958   6.347  0.0481 -1.8504  2.5610
  161MOL   H13235652   5.323   4.885   6.539  1.4022 -0.0457 -0.0709
  161MOL   H13335653   5.363   4.750   6.626  0.1652 -1.0194 -2.0951
  161MOL   C13435654   5.146   4.810   6.635  0.4261 -0.0457 -0.1709
  161MOL   C13535655   5.038   4.876   6.549  0.3480 -0.2666  0.5324
  161MOL   O13635656   5.036   4.997   6.533 -0.0001 -0.2521 -0.5657
  161MOL   C13735657   4.952   4.797   6.452 -0.1507 -0.0495 -0.4675
  161MOL   C13835658   5.168   4.914   6.754 -0.4262  0.1327  0.2870
  161MOL   H13935659   5.105   4.718   6.677 -0.1747  1.5458  2.8828
  161MOL   H14035660   4.981   4.824   6.350  1.0884 -0.4560 -0.2253
  161MOL   H14135661   4.961   4.689   6.463  2.3579  0.3263  1.3927
  161MOL   H14235662   4.849   4.829   6.464  0.0396 -0.2213  1.7836
  161MOL   H14335663   5.073   4.936   6.803 -0.4048 -0.6916  0.7191
  161MOL   H14435664   5.198   5.011   6.715 -0.5476  0.4174  0.9055
  161MOL   C14535665   5.262   4.852   6.860  0.1041 -0.3728  0.6954
  161MOL   C14635666   5.188   4.749   6.943 -0.5588 -0.0166 -0.3450
  161MOL   O14735667   5.224   4.629   6.932  0.2543 -0.6456 -0.1362
  161MOL   C14835668   5.078   4.778   7.041 -0.0012 -0.3658 -0.2197
  161MOL   C14935669   5.317   4.958   6.958  0.9913  0.1343  0.0574
  161MOL   H15035670   5.349   4.809   6.812  1.1480 -0.2466  2.4112
  161MOL   H15135671   5.078   4.701   7.118 -1.2531  0.5894  0.7465
  161MOL   H15235672   5.079   4.876   7.087 -0.4972 -1.0760  1.3231
  161MOL   H15335673   4.987   4.766   6.983 -0.1979  1.8418 -0.3895
  161MOL   H15435674   5.376   4.911   7.037 -0.7027 -3.7717 -0.8800
  161MOL   H15535675   5.236   5.016   7.002  0.3066 -1.0063  0.2943
  161MOL   C15635676   5.409   5.066   6.902 -0.6202  0.2086 -0.2014
  161MOL   C15735677   5.531   5.006   6.827  0.4350 -0.1626 -0.6012
  161MOL   O15835678   5.588   4.908   6.872 -0.3063  0.7331 -0.0737
  161MOL   C15935679   5.589   5.078   6.709  0.4860 -0.1138 -0.0869
  161MOL   C16035680   5.448   5.170   7.007  0.2933 -0.6947  0.1293
  161MOL   H16135681   5.359   5.128   6.828 -1.2333  0.5743  0.5194
  161MOL   H16235682   5.584   5.018   6.618  2.7414  1.2478 -1.1316
  161MOL   H16335683   5.538   5.171   6.687  1.4804  0.4986  0.1944
  161MOL   H16435684   5.695   5.099   6.722  0.6063 -2.1156  2.8662
  161MOL   H16535685   5.553   5.176   7.035  0.5786 -2.5217 -0.4695
  161MOL   H16635686   5.386   5.146   7.094 -1.1817  0.8516 -0.4517
  161MOL   C16735687   5.403   5.312   6.971 -0.3585 -0.0035 -1.2387
  161MOL   C16835688   5.464   5.364   6.847 -0.0511 -1.0599  0.8000
  161MOL   O16935689   5.587   5.390   6.838  0.1502 -0.7219 -0.3703
  161MOL   C17035690   5.361   5.374   6.730 -0.1412  0.0500  0.1556
  161MOL   C17135691   5.429   5.416   7.087 -0.7783  0.6605  0.6807
  161MOL   H17235692   5.295   5.302   6.956  0.0504 -1.4458 -3.2889
  161MOL   H17335693   5.279   5.304   6.738 -1.1160  1.2438  0.7482
  161MOL   H17435694   5.307   5.469   6.728  0.1356  0.2235  0.8318
  161MOL   H17535695   5.404   5.357   6.631  1.5844 -0.0724  0.8957
  161MOL   H17635696   5.516   5.475   7.058 -0.9734  0.2049 -0.8864
  161MOL   H17735697   5.464   5.355   7.170 -2.0090  0.4295  1.0307
  161MOL   C17835698   5.310   5.500   7.137  0.4247 -0.2022 -0.1592
  161MOL   C17935699   5.192   5.414   7.183 -0.8241  0.2770 -0.3527
  161MOL   O18035700   5.105   5.388   7.108  0.0793 -0.1588 -0.1134
  161MOL   C18135701   5.200   5.358   7.321 -0.0145  0.2725 -0.0401
  161MOL   C18235702   5.277   5.604   7.029  0.4299  0.3340  0.4721
  161MOL   H18335703   5.346   5.552   7.226 -0.0839 -1.4330  0.7887
  161MOL   H18435704   5.109   5.302   7.343  0.3210 -0.8327 -1.4048
  161MOL   H18535705   5.282   5.287   7.330 -0.8099 -0.7298 -0.5570
  161MOL   H18635706   5.214   5.430   7.401  1.7114 -0.7347  0.5995
  161MOL   H18735707   5.222   5.552   6.950 -2.1528  2.6343  0.7019
  161MOL   H18835708   5.370   5.639   6.983 -0.0672 -0.2001 -0.9888
  161MOL   C18935709   5.182   5.721   7.073 -0.4737  0.5218  0.3238
  161MOL   C19035710   5.082   5.749   6.965  0.5965  0.2067  0.5887
  161MOL   O19135711   5.114   5.825   6.872  0.5855  0.3476  0.5687
  161MOL   C19235712   4.952   5.677   6.964  0.1518 -0.1194  0.0575
  161MOL   C19335713   5.263   5.842   7.117 -0.7643 -0.0840 -0.2950
  161MOL   H19435714   5.133   5.674   7.158 -0.0386  0.1059  0.3479
  161MOL   H19535715   4.889   5.709   7.047  1.2523 -1.9458  1.6485
  161MOL   H19635716   4.890   5.693   6.876  0.8652 -1.5478 -0.7257
  161MOL   H19735717   4.971   5.569   6.963  3.9853  0.4987  0.9279
  161MOL   H19835718   5.308   5.894   7.032 -0.7027 -2.5841 -1.8488
  161MOL   H19935719   5.340   5.804   7.184 -0.6024  0.9679  0.1307
  161MOL   C20035720   5.185   5.936   7.211 -0.0602 -0.4626 -0.0495
  161MOL   C20135721   5.136   5.863   7.337  0.3050 -0.4869 -0.1772
  161MOL   O20235722   5.028   5.797   7.329 -0.1722  0.7726 -0.7946
  161MOL   C20335723   5.216   5.858   7.464 -0.2009  0.0072  0.7016
  161MOL   C20435724   5.073   6.023   7.147 -0.2104  0.0579  0.0671
  161MOL   H20535725   5.265   6.000   7.250  1.0902 -1.0656 -1.3470
  161MOL   H20635726   5.155   5.916   7.533 -0.8594  3.1902 -2.3970
  161MOL   H20735727   5.232   5.752   7.485  0.0847  0.1947  1.4786
  161MOL   H20835728   5.308   5.915   7.451  0.2548 -0.6223  1.1024
  161MOL   H20935729   5.033   6.087   7.225 -1.3172 -0.5291 -0.0061
  161MOL   H21035730   4.989   5.957   7.125  0.1850 -0.0406 -1.1499
  161MOL   C21135731   5.115   6.112   7.019  0.1167 -0.1065  0.4903
  161MOL   C21235732   5.233   6.209   7.049 -0.5694 -0.0411  0.3036
  161MOL   O21335733   5.247   6.256   7.162 -0.2041  0.3903 -0.2442
  161MOL   C21435734   5.328   6.256   6.938 -0.5353 -1.1860  0.4618
  161MOL   C21535735   4.998   6.187   6.965 -0.1301  0.5263  0.5825
  161MOL   H21635736   5.141   6.041   6.941 -1.2278 -0.5546  0.4259
  161MOL   H21735737   5.286   6.343   6.887  0.3134 -0.5998  0.7481
  161MOL   H21835738   5.417   6.293   6.990 -1.2566  0.3112  0.6835
  161MOL   H21935739   5.353   6.178   6.866 -0.5669 -2.2367  1.5904
  161MOL   H22035740   5.005   6.202   6.857 -2.0608  0.3333  0.4123
  161MOL   H22135741   4.997   6.284   7.015 -0.4960  0.9060 -0.1476
  161MOL   H22235742   4.902   6.147   6.998  1.1062 -1.3845  1.9579
  162MOL     C135743   7.201   6.012   7.128  0.0455 -0.2553 -0.1432
  162MOL     C235744   7.134   6.154   7.131  0.2148 -1.0461 -0.1827
  162MOL     O335745   7.067   6.195   7.036  0.3414  0.2275 -0.6374
  162MOL     C435746   7.167   6.253   7.245  0.0639 -0.1507  0.1116
  162MOL     C535747   7.161   5.920   7.015  0.0026  0.2059  0.0083
  162MOL     H635748   7.310   6.021   7.123 -0.0365  0.7888 -0.0471
  162MOL     H735749   7.261   6.232   7.294 -1.8644  0.4509  4.2795
  162MOL     H835750   7.190   6.346   7.193  1.5804 -0.1546  0.7758
  162MOL     H935751   7.080   6.258   7.311  0.6078 -1.4833  0.9347
  162MOL    H1035752   7.062   5.950   6.982  0.3023  0.7133 -0.4345
  162MOL    H1135753   7.151   5.815   7.043 -0.5159 -0.8724 -3.8624
  162MOL    H1235754   7.185   5.958   7.221 -2.1977 -3.4901 -2.2933
  162MOL    C1335755   7.255   5.910   6.889 -0.8158  0.1931  0.3911
  162MOL    C1435756   7.394   5.842   6.911  0.2168  0.1418 -0.0493
  162MOL    O1535757   7.443   5.842   7.024  0.2673  1.0657  0.5346
  162MOL    C1635758   7.463   5.784   6.790 -0.1807 -0.2201  0.0787
  162MOL    C1735759   7.269   6.039   6.801  0.1021  0.5759 -0.4226
  162MOL    H1835760   7.209   5.835   6.825  1.8057  0.0523 -1.3931
  162MOL    H1935761   7.568   5.779   6.818 -0.3690 -0.0055  0.8552
  162MOL    H2035762   7.426   5.684   6.769  1.9368 -1.1688  0.7804
  162MOL    H2135763   7.455   5.842   6.699  0.9133  0.9002  0.6875
  162MOL    H2235764   7.349   6.022   6.730  0.7600  1.2179  0.1592
  162MOL    H2335765   7.300   6.123   6.863  3.2175 -0.6225 -0.2745
  162MOL    C2435766   7.137   6.067   6.727 -0.0398  0.4288 -0.1789
  162MOL    C2535767   7.109   5.961   6.613  0.2629 -0.0005 -0.1474
  162MOL    O2635768   7.194   5.904   6.545 -0.7805  0.4022 -0.4780
  162MOL    C2735769   6.967   5.920   6.593 -0.2446  0.4030  0.8094
  162MOL    C2835770   7.161   6.206   6.663 -0.1262  0.3145 -0.4111
  162MOL    H2935771   7.062   6.062   6.806 -0.5556 -0.0191 -0.6987
  162MOL    H3035772   6.968   5.812   6.610 -0.8440  0.3680  0.6468
  162MOL    H3135773   6.901   5.960   6.671 -1.2493 -4.0073  2.4069
  162MOL    H3235774   6.929   5.952   6.497  0.6896 -0.9169 -0.0236
  162MOL    H3335775   7.234   6.200   6.583 -0.1490 -0.2209 -0.3945
  162MOL    H3435776   7.190   6.277   6.740  1.8906 -1.0657  0.1477
  162MOL    C3535777   7.028   6.263   6.593 -0.2855  0.2964  0.2510
  162MOL    C3635778   7.054   6.307   6.445 -0.1431 -0.1242  0.0708
  162MOL    O3735779   7.072   6.428   6.417  0.4628 -0.0928  0.1603
  162MOL    C3835780   7.065   6.202   6.336  0.6999 -0.7498 -0.2971
  162MOL    C3935781   6.950   6.361   6.682  0.5128  0.6647  0.2782
  162MOL    H4035782   6.963   6.178   6.571  0.0845  0.6231 -2.3461
  162MOL    H4135783   6.981   6.207   6.266 -0.4476  0.2826  1.1303
  162MOL    H4235784   7.164   6.201   6.292  2.0545 -0.3207  2.6448
  162MOL    H4335785   7.051   6.106   6.385  2.6087 -0.8249  0.1201
  162MOL    H4435786   7.011   6.434   6.734 -1.2285  1.3652  1.3999
  162MOL    H4535787   6.910   6.293   6.757 -0.4531  1.8536  0.8739
  162MOL    C4635788   6.822   6.432   6.625  0.2268 -0.6763  0.5282
  162MOL    C4735789   6.774   6.546   6.722  0.2896  0.2175 -0.8826
  162MOL    O4835790   6.670   6.526   6.790  0.1019  0.0073 -0.6105
  162MOL    C4935791   6.861   6.668   6.746  0.0659 -0.0590 -0.6263
  162MOL    C5035792   6.709   6.337   6.573 -1.0727  0.5524 -0.0491
  162MOL    H5135793   6.859   6.493   6.543 -0.1543 -1.3658 -0.1615
  162MOL    H5235794   6.823   6.733   6.825  1.6156 -1.5159  1.3740
  162MOL    H5335795   6.957   6.636   6.788 -0.1225 -0.4632 -0.4975
  162MOL    H5435796   6.897   6.713   6.653  0.7626 -0.2872 -0.4721
  162MOL    H5535797   6.663   6.299   6.664  0.4692 -0.2571  0.4081
  162MOL    H5635798   6.735   6.242   6.525  1.2457  2.0497 -1.8577
  162MOL    C5735799   6.603   6.407   6.493  0.5952  0.1941  0.2484
  162MOL    C5835800   6.476   6.323   6.507  0.7722  0.3123  0.4566
  162MOL    O5935801   6.480   6.208   6.460 -0.2531  0.0942  0.4720
  162MOL    C6035802   6.348   6.383   6.554  0.3256  0.2960 -0.1601
  162MOL    C6135803   6.654   6.416   6.346 -0.3823  0.1996 -0.1322
  162MOL    H6235804   6.586   6.507   6.534 -0.0236 -0.0046  0.4844
  162MOL    H6335805   6.288   6.418   6.470 -1.6192  1.1631  1.5340
  162MOL    H6435806   6.287   6.298   6.584 -1.2638  0.9209 -1.5355
  162MOL    H6535807   6.367   6.444   6.642  0.3462 -2.9170  2.1552
  162MOL    H6635808   6.625   6.320   6.304  0.4374  0.7362 -1.9812
  162MOL    H6735809   6.763   6.421   6.351 -0.4024  1.4655 -0.7229
  162MOL    C6835810   6.603   6.539   6.268  0.0805 -0.4913  0.5929
  162MOL    C6935811   6.453   6.541   6.243 -0.0136 -0.6083 -0.4645
  162MOL    O7035812   6.401   6.453   6.172  0.4162  0.4034 -0.2807
  162MOL    C7135813   6.379   6.648   6.310  0.0738  0.3460  1.0102
  162MOL    C7235814   6.684   6.571   6.137  0.0128  0.8365  0.3618
  162MOL    H7335815   6.622   6.631   6.323 -1.5264  0.3007 -0.1639
  162MOL    H7435816   6.377   6.733   6.241  1.8819  0.1264  0.6552
  162MOL    H7535817   6.279   6.608   6.327 -1.0390  0.3073 -4.4192
  162MOL    H7635818   6.424   6.673   6.406 -0.8451  1.2570  1.2218
  162MOL    H7735819   6.682   6.486   6.069  1.8105  0.4871  0.7120
  162MOL    H7835820   6.788   6.579   6.167 -0.0689  2.6313  0.2124
  162MOL    C7935821   6.645   6.700   6.055 -0.4392  0.0114 -0.1777
  162MOL    C8035822   6.687   6.699   5.904 -0.1194  0.2862  0.2468
  162MOL    O8135823   6.729   6.592   5.855  0.9372  0.5077  0.5115
  162MOL    C8235824   6.649   6.805   5.811 -0.2631 -0.2396 -0.1051
  162MOL    C8335825   6.660   6.842   6.122 -0.2969  0.1693 -0.6053
  162MOL    H8435826   6.539   6.684   6.036 -0.2645  1.1083 -2.1718
  162MOL    H8535827   6.708   6.893   5.838 -1.8766 -0.0189  2.9796
  162MOL    H8635828   6.661   6.785   5.705  1.8993 -0.0481  0.0815
  162MOL    H8735829   6.541   6.818   5.817 -0.1907 -0.5468  2.5787
  162MOL    H8835830   6.625   6.838   6.225 -1.2587 -0.1839 -0.9438
  162MOL    H8935831   6.587   6.907   6.076 -1.4336  0.1599  1.1479
  162MOL    C9035832   6.801   6.905   6.122 -0.6725 -0.4383 -0.0726
  162MOL    C9135833   6.896   6.831   6.212 -0.3996 -0.0124 -0.1138
  162MOL    O9235834   6.879   6.814   6.334  0.5125 -0.4199  0.2153
  162MOL    C9335835   7.018   6.768   6.150  0.0319  0.6776  0.4895
  162MOL    C9435836   6.806   7.055   6.154 -0.4047  0.6459  0.6749
  162MOL    H9535837   6.830   6.889   6.018  1.7694  0.1456  0.4937
  162MOL    H9635838   7.063   6.694   6.216 -2.1538 -0.6440  0.5607
  162MOL    H9735839   6.977   6.709   6.068 -1.1449 -2.1201  2.9648
  162MOL    H9835840   7.096   6.834   6.113  0.8972 -1.8404 -2.3920
  162MOL    H9935841   6.771   7.059   6.257 -0.5886 -1.1014  0.6978
  162MOL   H10035842   6.722   7.096   6.098  1.3040  2.6855 -0.4678
  162MOL   C10135843   6.934   7.142   6.131 -0.5229 -0.2579 -0.3190
  162MOL   C10235844   6.943   7.241   6.242 -0.2140 -0.0980 -0.6574
  162MOL   O10335845   6.910   7.360   6.231 -0.2080  0.6731 -0.2652
  162MOL   C10435846   6.988   7.186   6.375  0.1416  0.0712 -0.2637
  162MOL   C10535847   6.939   7.200   5.988  0.2528 -0.0855  0.2042
  162MOL   H10635848   7.015   7.070   6.143 -0.2668 -0.0175 -0.5667
  162MOL   H10735849   6.911   7.197   6.451 -0.2584 -1.7415 -0.3780
  162MOL   H10835850   7.043   7.092   6.368 -0.5459 -0.2129 -2.3431
  162MOL   H10935851   7.060   7.260   6.408  1.0351 -0.6562 -0.5472
  162MOL   H11035852   6.853   7.265   5.972  1.6174  1.8802  0.7448
  162MOL   H11135853   6.921   7.128   5.909  1.0591 -0.7413  0.6125
  162MOL   C11235854   7.071   7.268   5.950 -0.1160  0.4397  0.3960
  162MOL   C11335855   7.051   7.421   5.921  0.3756  0.0112 -0.0132
  162MOL   O11435856   6.989   7.458   5.819  0.0711  0.1682 -0.2990
  162MOL   C11535857   7.122   7.519   6.010 -0.1929  0.4523 -0.1894
  162MOL   C11635858   7.162   7.202   5.847  0.2600 -0.7785 -0.1615
  162MOL   H11735859   7.131   7.279   6.041  0.5154 -1.0558  0.1710
  162MOL   H11835860   7.231   7.518   6.006 -0.2210  0.5398 -1.4810
  162MOL   H11935861   7.099   7.617   5.968  1.5349  0.7413 -0.4903
  162MOL   H12035862   7.095   7.527   6.115  0.9155  1.3875  0.0324
  162MOL   H12135863   7.223   7.274   5.793 -0.3709  0.5755  0.8994
  162MOL   H12235864   7.095   7.182   5.763  0.7505  0.6613 -0.9209
  162MOL   C12335865   7.243   7.081   5.887  0.2438  0.0969 -0.0586
  162MOL   C12435866   7.345   7.117   5.994  0.1638 -0.0083 -0.1593
  162MOL   O12535867   7.342   7.064   6.104 -0.4671  0.2700 -0.2211
  162MOL   C12635868   7.462   7.202   5.959  0.2973 -0.9645 -0.2214
  162MOL   C12735869   7.300   7.012   5.766 -1.0785 -0.3217  1.1276
  162MOL   H12835870   7.166   7.014   5.926 -0.9186  1.1687 -0.4748
  162MOL   H12935871   7.551   7.140   5.967  1.4778  0.7643  0.4575
  162MOL   H13035872   7.456   7.243   5.858 -3.7163  2.5179  1.2675
  162MOL   H13135873   7.474   7.284   6.030 -0.2410  0.1907 -1.4482
  162MOL   H13235874   7.366   6.929   5.793  1.3732  1.5003  0.8667
  162MOL   H13335875   7.357   7.087   5.712 -0.4028 -1.9009 -0.4060
  162MOL   C13435876   7.195   6.953   5.670 -0.3620  0.4705 -0.2697
  162MOL   C13535877   7.080   6.869   5.732  0.2609 -0.3723 -0.3282
  162MOL   O13635878   6.973   6.926   5.756  0.5967  0.2001  0.5524
  162MOL   C13735879   7.091   6.720   5.736 -0.1741  0.1286  0.1689
  162MOL   C13835880   7.270   6.883   5.545 -0.2843  0.0371 -0.3112
  162MOL   H13935881   7.148   7.037   5.619  0.1074  0.9298  0.0565
  162MOL   H14035882   7.189   6.675   5.720  0.0097 -0.0963  1.8423
  162MOL   H14135883   7.063   6.708   5.840 -0.9595 -0.9609 -0.1685
  162MOL   H14235884   7.013   6.674   5.675  0.1589  0.3836 -0.4575
  162MOL   H14335885   7.336   6.802   5.574 -1.7300 -1.1500 -0.3175
  162MOL   H14435886   7.349   6.951   5.512 -1.0265 -0.1024 -2.4440
  162MOL   C14535887   7.178   6.849   5.430  0.6257 -0.8017 -0.4556
  162MOL   C14635888   7.229   6.743   5.332 -0.2434 -0.4709  0.3822
  162MOL   O14735889   7.343   6.703   5.344  0.1836 -0.0245  0.2490
  162MOL   C14835890   7.140   6.693   5.220 -0.0586 -0.0074 -0.3754
  162MOL   C14935891   7.144   6.980   5.350  0.9405 -0.1118  0.1577
  162MOL   H15035892   7.090   6.807   5.477  2.1253 -1.6380  1.6780
  162MOL   H15135893   7.162   6.743   5.126  0.9962  0.8337  0.3149
  162MOL   H15235894   7.150   6.585   5.205 -1.3110 -0.1308 -0.3890
  162MOL   H15335895   7.037   6.723   5.239  0.7713  3.0122 -0.5081
  162MOL   H15435896   7.101   7.057   5.414  1.2985 -0.4867  0.8621
  162MOL   H15535897   7.061   6.955   5.284  1.9872 -0.3507 -1.0908
  162MOL   C15635898   7.260   7.051   5.271 -0.7590 -0.9961 -0.3807
  162MOL   C15735899   7.346   7.151   5.350  1.0917 -0.1931  0.1064
  162MOL   O15835900   7.298   7.197   5.457 -0.0587  0.2500  0.4824
  162MOL   C15935901   7.477   7.206   5.293  0.0650  0.4222 -0.2331
  162MOL   C16035902   7.199   7.141   5.157  0.8058 -0.2505 -0.1557
  162MOL   H16135903   7.324   6.974   5.226 -0.1970 -0.3513 -0.6912
  162MOL   H16235904   7.463   7.256   5.197  0.4124  0.7595 -0.1078
  162MOL   H16335905   7.522   7.282   5.357  0.2056 -0.0918  0.2743
  162MOL   H16435906   7.552   7.132   5.268 -0.2859 -0.3731  1.0560
  162MOL   H16535907   7.256   7.228   5.125  1.6934 -0.2078  1.4895
  162MOL   H16635908   7.104   7.182   5.192  1.6415  1.0779  0.6442
  162MOL   C16735909   7.167   7.062   5.034  0.3577  0.0257  0.9118
  162MOL   C16835910   7.292   7.019   4.951 -0.4306  0.0135  0.8081
  162MOL   O16935911   7.404   7.074   4.964  0.0526  0.1113  0.1764
  162MOL   C17035912   7.275   6.896   4.855 -0.5133 -0.9011 -0.2361
  162MOL   C17135913   7.058   7.136   4.958 -0.4446 -0.1684  0.6893
  162MOL   H17235914   7.117   6.970   5.065 -2.1121  0.7189 -0.8415
  162MOL   H17335915   7.200   6.920   4.780 -1.0032  0.8339  0.7802
  162MOL   H17435916   7.359   6.865   4.793  0.6590 -1.2102  1.4715
  162MOL   H17535917   7.258   6.814   4.925  3.2271 -1.3704  0.1907
  162MOL   H17635918   7.089   7.113   4.856 -0.2673 -0.1615  0.7411
  162MOL   H17735919   7.065   7.244   4.972  1.1154 -0.3205  1.1762
  162MOL   C17835920   6.915   7.092   4.981 -0.0566  0.4776 -0.3530
  162MOL   C17935921   6.891   6.974   4.890 -0.2347  0.3537  0.0323
  162MOL   O18035922   6.875   6.997   4.773 -0.3643  0.0122 -0.1820
  162MOL   C18135923   6.884   6.835   4.959 -0.1481 -0.0397 -0.1531
  162MOL   C18235924   6.815   7.204   4.939 -0.4211 -0.4814  0.3560
  162MOL   H18335925   6.898   7.063   5.085 -0.3882  0.0552 -0.5286
  162MOL   H18435926   6.841   6.757   4.896 -1.7652  0.4873  0.2899
  162MOL   H18535927   6.988   6.810   4.983 -0.3034  0.3075  0.8944
  162MOL   H18635928   6.841   6.838   5.059  0.3150 -0.5403  0.0628
  162MOL   H18735929   6.831   7.248   4.841  0.0593  0.2281  0.7523
  162MOL   H18835930   6.829   7.287   5.009  0.6191  0.4297 -0.9184
  162MOL   C18935931   6.668   7.162   4.941  0.3128 -0.1807 -0.3707
  162MOL   C19035932   6.593   7.278   4.873  0.2593 -0.7398  0.5133
  162MOL   O19135933   6.553   7.377   4.931  0.3972 -0.4889  0.0298
  162MOL   C19235934   6.582   7.268   4.726 -0.0854 -0.0743  0.5999
  162MOL   C19335935   6.611   7.135   5.086 -0.3332  0.3788  0.6931
  162MOL   H19435936   6.644   7.081   4.873 -1.4078 -1.1308  1.3311
  162MOL   H19535937   6.679   7.259   4.675 -1.1438 -0.9400 -1.3217
  162MOL   H19635938   6.500   7.202   4.698 -0.1835  0.9499 -1.6519
  162MOL   H19735939   6.556   7.368   4.692 -1.3292 -0.8751 -0.8414
  162MOL   H19835940   6.535   7.208   5.113 -0.2974  0.3079  0.9825
  162MOL   H19935941   6.687   7.138   5.164  0.2057  0.0670  0.1878
  162MOL   C20035942   6.537   6.999   5.098 -0.1308  0.0970 -0.6473
  162MOL   C20135943   6.427   6.972   4.989  0.1498  0.3243  0.0873
  162MOL   O20235944   6.357   7.055   4.934  0.4132  0.3599 -0.0701
  162MOL   C20335945   6.395   6.824   4.972 -0.1419 -0.1027 -0.2198
  162MOL   C20435946   6.466   6.982   5.237  0.0303  0.1789  0.7895
  162MOL   H20535947   6.607   6.916   5.087  1.9417  1.5325  1.4437
  162MOL   H20635948   6.330   6.816   4.885  0.5526  2.1572 -0.9734
  162MOL   H20735949   6.483   6.761   4.958  1.1369  0.6591  3.8880
  162MOL   H20835950   6.334   6.780   5.051  1.2668 -1.3443  0.1932
  162MOL   H20935951   6.398   6.898   5.235  1.4926 -1.0030 -0.9767
  162MOL   H21035952   6.410   7.074   5.257 -0.7167  0.2172 -1.4194
  162MOL   C21135953   6.573   6.947   5.352  0.0088 -1.0432 -0.2643
  162MOL   C21235954   6.626   6.807   5.335  0.0966 -0.4685 -0.7592
  162MOL   O21335955   6.599   6.727   5.243 -0.2168 -0.0194 -0.5493
  162MOL   C21435956   6.747   6.769   5.422 -0.1397 -0.4446  0.4419
  162MOL   C21535957   6.524   6.984   5.500  0.0795 -0.0780  0.0621
  162MOL   H21635958   6.656   7.015   5.336 -1.1024  0.8895  1.9177
  162MOL   H21735959   6.725   6.700   5.503  0.8955 -0.8965  0.3406
  162MOL   H21835960   6.830   6.745   5.356  0.0094 -0.3971  0.6113
  162MOL   H21935961   6.774   6.867   5.463  0.3265  0.3938 -1.7894
  162MOL   H22035962   6.452   6.911   5.539 -0.6479  0.1897 -0.7473
  162MOL   H22135963   6.472   7.079   5.507  0.6345  0.1387  1.1188
  162MOL   H22235964   6.606   6.994   5.570 -0.1657 -1.6970  0.5955
  163MOL     C135965   3.011   7.294   2.478  0.3707 -0.5842  0.1548
  163MOL     C235966   2.949   7.412   2.402 -0.5015  0.6422  0.4028
  163MOL     O335967   2.829   7.411   2.374 -0.0735 -0.5311  0.1916
  163MOL     C435968   3.037   7.533   2.371 -0.1813  0.4326 -0.1775
  163MOL     C535969   2.913   7.187   2.538 -0.0713 -0.6964  0.1092
  163MOL     H635970   3.074   7.243   2.405 -0.7172 -0.5338 -0.8421
  163MOL     H735971   3.079   7.501   2.275  1.8144  0.1473  0.7761
  163MOL     H835972   2.974   7.622   2.363 -1.0706 -0.1700  0.0381
  163MOL     H935973   3.109   7.544   2.452 -0.5833 -1.3569  0.4417
  163MOL    H1035974   2.841   7.241   2.600 -0.5999 -1.2398 -0.0347
  163MOL    H1135975   2.970   7.125   2.607  0.6612 -0.8182 -0.5935
  163MOL    H1235976   3.074   7.340   2.554  1.2464  1.3023 -1.6390
  163MOL    C1335977   2.845   7.088   2.435 -0.3436 -1.0902 -0.0630
  163MOL    C1435978   2.710   7.038   2.497 -0.5291 -0.0173  0.0406
  163MOL    O1535979   2.712   6.942   2.575 -0.1382  0.1278  0.0179
  163MOL    C1635980   2.579   7.102   2.456 -0.9512 -0.1071 -0.2208
  163MOL    C1735981   2.938   6.969   2.386  0.1642  0.2197 -0.4918
  163MOL    H1835982   2.832   7.143   2.342  2.2326  0.2550  0.3338
  163MOL    H1935983   2.572   7.204   2.493 -3.1500 -0.5510  0.6301
  163MOL    H2035984   2.563   7.095   2.348  2.6727 -3.4655 -0.6393
  163MOL    H2135985   2.496   7.047   2.500 -1.5795 -0.9001 -2.3100
  163MOL    H2235986   2.926   6.879   2.445  0.4534  1.0208  0.8092
  163MOL    H2335987   3.042   6.999   2.393  0.1728  0.3600 -1.1458
  163MOL    C2435988   2.918   6.915   2.243  0.4117  1.0546 -0.3495
  163MOL    C2535989   2.784   6.848   2.228  0.3184 -0.2279  0.4592
  163MOL    O2635990   2.703   6.880   2.140  0.2830  0.2698 -0.0485
  163MOL    C2735991   2.748   6.728   2.317 -0.0422 -0.1232  1.0224
  163MOL    C2835992   3.032   6.811   2.212 -0.0432 -0.2774  0.3897
  163MOL    H2935993   2.918   7.004   2.180 -0.1737  1.8072  0.6907
  163MOL    H3035994   2.768   6.741   2.423  0.3709 -3.0350  1.3505
  163MOL    H3135995   2.641   6.710   2.308 -0.0149  0.2401 -0.1827
  163MOL    H3235996   2.802   6.644   2.272  0.3322  0.3524  0.5900
  163MOL    H3335997   3.002   6.716   2.257 -0.9795 -0.2937 -0.2664
  163MOL    H3435998   3.124   6.829   2.267 -1.0248  0.3368  1.8662
  163MOL    C3535999   3.071   6.778   2.061  0.5923  0.0950 -0.7064
  163MOL    C3636000   3.133   6.644   2.041  0.4379  0.4635  0.4422
  163MOL    O3736001   3.240   6.610   2.094 -1.0201  0.6625 -0.0464
  163MOL    C3836002   3.053   6.540   1.956  0.0712  0.4057 -0.2499
  163MOL    C3936003   3.149   6.897   1.993 -0.2840  0.2940 -0.1066
  163MOL    H4036004   2.976   6.770   2.009 -0.0616 -1.0567  0.6236
  163MOL    H4136005   3.097   6.443   1.935  0.3615  0.4583  0.1074
  163MOL    H4236006   2.954   6.522   1.999  0.1950  0.9757  0.2879
  163MOL    H4336007   3.015   6.569   1.858  0.3921 -1.7772 -1.0359
  163MOL    H4436008   3.222   6.923   2.070  1.6385 -1.8988 -1.1372
  163MOL    H4536009   3.097   6.989   1.967 -1.2691  0.2512  1.6046
  163MOL    C4636010   3.224   6.864   1.859 -0.7756  0.3380  0.7882
  163MOL    C4736011   3.324   6.978   1.822 -0.7633 -0.1355 -0.1300
  163MOL    O4836012   3.288   7.089   1.796  0.5261 -0.0496 -0.1551
  163MOL    C4936013   3.467   6.940   1.810 -0.3856 -0.4465  0.0372
  163MOL    C5036014   3.133   6.826   1.740 -0.3823  0.3644  0.1820
  163MOL    H5136015   3.288   6.779   1.884 -1.0231  0.6307  2.4860
  163MOL    H5236016   3.478   6.880   1.719 -0.2034 -0.0770 -0.1840
  163MOL    H5336017   3.547   7.014   1.809  0.7786 -1.6749  0.9707
  163MOL    H5436018   3.492   6.869   1.888 -0.3551  1.1351  1.4770
  163MOL    H5536019   3.095   6.919   1.698 -2.0933 -1.7114 -3.1344
  163MOL    H5636020   3.056   6.755   1.769  0.0172 -0.7716 -1.4211
  163MOL    C5736021   3.209   6.749   1.619 -0.0821 -0.0205 -0.2567
  163MOL    C5836022   3.131   6.739   1.487  0.0134  0.1797 -1.3019
  163MOL    O5936023   3.006   6.742   1.486  0.4886  0.1409  0.3847
  163MOL    C6036024   3.208   6.732   1.359 -0.5347  0.0092 -0.1266
  163MOL    C6136025   3.261   6.609   1.665  0.2712  0.1865 -0.6689
  163MOL    H6236026   3.299   6.807   1.598  0.4973 -0.5833  0.6247
  163MOL    H6336027   3.248   6.833   1.356  1.1361 -0.5690  1.6013
  163MOL    H6436028   3.289   6.659   1.356  0.0142  0.6538 -1.2482
  163MOL    H6536029   3.145   6.715   1.272 -0.6940  2.0878 -0.4334
  163MOL    H6636030   3.231   6.534   1.592 -1.6054  0.9337 -0.6766
  163MOL    H6736031   3.223   6.574   1.761  1.1109  0.1912 -0.3284
  163MOL    C6836032   3.419   6.594   1.691 -0.4067 -0.0720  0.3347
  163MOL    C6936033   3.507   6.594   1.564 -0.0091  0.1293 -0.2113
  163MOL    O7036034   3.464   6.548   1.465 -0.3138  1.0907 -0.3698
  163MOL    C7136035   3.651   6.643   1.583 -0.2351 -0.0059  0.4466
  163MOL    C7236036   3.449   6.470   1.782  0.5387 -0.3905 -0.2412
  163MOL    H7336037   3.453   6.682   1.745 -0.4998 -0.5483  1.1760
  163MOL    H7436038   3.728   6.588   1.528  0.9338  2.4460 -0.4450
  163MOL    H7536039   3.647   6.747   1.551 -2.5720  0.1486  1.1769
  163MOL    H7636040   3.685   6.625   1.685  0.8974  0.9071  0.2281
  163MOL    H7736041   3.381   6.470   1.867  1.7185 -0.2176  0.7060
  163MOL    H7836042   3.551   6.488   1.815  1.3813 -1.4921 -2.1441
  163MOL    C7936043   3.461   6.335   1.710  0.8814  0.5978  0.1488
  163MOL    C8036044   3.332   6.285   1.648 -0.0494  0.0925  0.1194
  163MOL    O8136045   3.231   6.270   1.714  0.6685  0.0866 -0.2063
  163MOL    C8236046   3.329   6.242   1.497 -0.1662  0.2555 -0.5288
  163MOL    C8336047   3.528   6.226   1.802  0.0694 -0.5640  0.1775
  163MOL    H8436048   3.533   6.350   1.630  2.0904  2.7459  1.5628
  163MOL    H8536049   3.401   6.162   1.483  0.1347  0.5452 -0.6603
  163MOL    H8636050   3.228   6.208   1.478  0.1661 -1.2816  0.3822
  163MOL    H8736051   3.347   6.323   1.426  0.3691 -0.8244 -1.6426
  163MOL    H8836052   3.606   6.275   1.861  0.9958  0.1365 -1.5759
  163MOL    H8936053   3.584   6.156   1.739  1.9434  0.9352  0.1182
  163MOL    C9036054   3.447   6.132   1.892 -0.5444  0.1957  0.0548
  163MOL    C9136055   3.367   6.205   2.003  0.2400 -0.5454 -0.1971
  163MOL    O9236056   3.248   6.181   2.018 -0.0989  0.3103  0.0689
  163MOL    C9336057   3.442   6.289   2.105  0.1339  0.4110  0.2583
  163MOL    C9436058   3.533   6.012   1.934 -0.8418  0.8053  0.0969
  163MOL    H9536059   3.371   6.092   1.825  0.0115 -0.7096 -0.0306
  163MOL    H9636060   3.373   6.353   2.160 -0.9628  0.1613 -0.7932
  163MOL    H9736061   3.487   6.234   2.188 -2.8307  0.4688  1.9843
  163MOL    H9836062   3.519   6.349   2.058 -1.9732  3.2132  0.2467
  163MOL    H9936063   3.608   6.042   2.007 -1.0024  0.7064  0.3024
  163MOL   H10036064   3.591   5.978   1.848 -0.5462  3.2437 -0.6893
  163MOL   C10136065   3.452   5.892   1.991  0.5088 -1.0021  0.4264
  163MOL   C10236066   3.547   5.782   2.040 -0.3181 -0.0032 -0.2451
  163MOL   O10336067   3.598   5.693   1.972  0.4821  0.2926 -0.2862
  163MOL   C10436068   3.611   5.798   2.179  0.3066  0.2027 -0.6356
  163MOL   C10536069   3.344   5.833   1.893 -0.0980  0.2747  0.6025
  163MOL   H10636070   3.402   5.925   2.082  0.9926 -0.7091  0.5851
  163MOL   H10736071   3.579   5.899   2.206 -1.2378  0.1535 -2.2037
  163MOL   H10836072   3.568   5.723   2.245 -1.0208  1.9249  0.5084
  163MOL   H10936073   3.720   5.803   2.181  0.3446 -0.0991 -1.5905
  163MOL   H11036074   3.381   5.828   1.791 -0.6719  1.5242  0.3254
  163MOL   H11136075   3.264   5.905   1.877 -2.3641 -2.0820  0.9850
  163MOL   C11236076   3.269   5.714   1.935  0.2688  0.3567 -0.3979
  163MOL   C11336077   3.243   5.619   1.809  0.0538 -0.2146 -0.2951
  163MOL   O11436078   3.125   5.589   1.776 -0.0294 -0.3660  0.7851
  163MOL   C11536079   3.369   5.550   1.745  0.1172 -0.5594 -0.2230
  163MOL   C11636080   3.142   5.740   2.024 -0.2018  0.3108  0.1274
  163MOL   H11736081   3.338   5.653   1.993 -0.0030  1.0716  0.6715
  163MOL   H11836082   3.334   5.463   1.689  2.1466 -1.4670 -0.1365
  163MOL   H11936083   3.433   5.607   1.678  0.5002 -0.1968  0.4421
  163MOL   H12036084   3.435   5.511   1.824 -0.1726  0.2869  0.4396
  163MOL   H12136085   3.047   5.717   1.976 -0.1952 -1.7496  1.0492
  163MOL   H12236086   3.121   5.846   2.036  1.1145  0.6957 -0.8608
  163MOL   C12336087   3.134   5.659   2.155 -0.2983  0.3309  0.5232
  163MOL   C12436088   3.224   5.731   2.253 -0.5256 -0.5476  0.3077
  163MOL   O12536089   3.336   5.688   2.281 -0.1191  0.7460 -0.3476
  163MOL   C12636090   3.175   5.865   2.316 -0.1510 -0.1478 -0.5604
  163MOL   C12736091   3.163   5.509   2.154 -0.7042  0.1216  0.0761
  163MOL   H12836092   3.032   5.672   2.191 -0.3085  0.0783  0.5917
  163MOL   H12936093   3.219   5.952   2.268 -0.0280  0.2098  0.2051
  163MOL   H13036094   3.066   5.872   2.318 -0.2018 -1.0244  0.0465
  163MOL   H13136095   3.197   5.870   2.422 -0.9136 -0.2753 -0.3904
  163MOL   H13236096   3.263   5.490   2.114 -0.3084  0.6683  0.8039
  163MOL   H13336097   3.100   5.462   2.078 -1.0622  0.2499  0.2927
  163MOL   C13436098   3.135   5.430   2.286 -0.5214 -0.2716  0.2812
  163MOL   C13536099   3.225   5.304   2.292  0.2474  0.2579 -0.3312
  163MOL   O13636100   3.180   5.196   2.248 -0.0731 -0.4793 -0.0743
  163MOL   C13736101   3.369   5.318   2.350  0.7492 -0.1293 -0.1540
  163MOL   C13836102   2.985   5.396   2.296 -0.7060  0.2964 -0.0001
  163MOL   H13936103   3.172   5.477   2.378  0.7883 -2.2966  0.8287
  163MOL   H14036104   3.422   5.224   2.340 -1.9425 -1.8535  1.1064
  163MOL   H14136105   3.419   5.389   2.284  0.8095 -0.1405 -0.1190
  163MOL   H14236106   3.356   5.369   2.445 -1.9444 -1.5944  0.3375
  163MOL   H14336107   2.976   5.289   2.282 -1.9352  0.1678  1.5918
  163MOL   H14436108   2.931   5.447   2.216 -2.1154 -0.7335  0.2682
  163MOL   C14536109   2.916   5.430   2.435  0.7022 -0.1541  0.8638
  163MOL   C14636110   2.927   5.574   2.461 -0.0924  0.1582  0.2551
  163MOL   O14736111   3.031   5.631   2.484  0.0246 -0.4707  1.0339
  163MOL   C14836112   2.802   5.660   2.439 -0.0668 -0.4078 -0.5185
  163MOL   C14936113   2.957   5.351   2.559  0.1132  0.7137 -0.3229
  163MOL   H15036114   2.810   5.413   2.421  0.6299 -0.8018  2.0962
  163MOL   H15136115   2.718   5.605   2.395 -1.2386 -0.3782  1.6255
  163MOL   H15236116   2.773   5.700   2.536  0.5726 -2.5368  0.5868
  163MOL   H15336117   2.821   5.742   2.369 -1.1646  1.3210  1.1549
  163MOL   H15436118   2.998   5.415   2.637  2.3924 -1.8243  0.6943
  163MOL   H15536119   3.037   5.281   2.534 -0.8868 -0.8247  0.6654
  163MOL   C15636120   2.845   5.280   2.625 -0.6291  0.0689  0.3121
  163MOL   C15736121   2.763   5.377   2.714  0.6676 -0.8091 -0.2211
  163MOL   O15836122   2.808   5.429   2.817 -0.3442  0.5084  0.0834
  163MOL   C15936123   2.613   5.385   2.678  0.0900  0.4732 -0.1682
  163MOL   C16036124   2.893   5.151   2.697  0.4403 -0.0959  0.0524
  163MOL   H16136125   2.784   5.251   2.539  0.5052  2.7491 -1.5014
  163MOL   H16236126   2.603   5.343   2.578 -2.3410  0.0185  0.2310
  163MOL   H16336127   2.560   5.323   2.750  1.3172 -1.6952 -1.0839
  163MOL   H16436128   2.565   5.483   2.675  0.3668  0.5597 -2.7459
  163MOL   H16536129   2.916   5.080   2.618 -1.8358 -1.2989  0.4371
  163MOL   H16636130   2.805   5.111   2.748  1.3103 -2.3545 -0.1477
  163MOL   C16736131   3.005   5.158   2.809  0.1454 -0.3076  0.3645
  163MOL   C16836132   3.144   5.124   2.759  0.5999 -0.4622 -0.1042
  163MOL   O16936133   3.160   5.053   2.666  0.3755  0.2532  0.0313
  163MOL   C17036134   3.260   5.173   2.840  0.2466 -0.1451  0.7740
  163MOL   C17136135   2.977   5.062   2.930  0.3653  0.4395 -0.0812
  163MOL   H17236136   3.010   5.259   2.850  0.7223 -0.4976  0.7834
  163MOL   H17336137   3.234   5.118   2.931  0.6336 -0.7876  0.5045
  163MOL   H17436138   3.356   5.127   2.817 -0.4366 -0.4103 -1.6944
  163MOL   H17536139   3.270   5.281   2.844  2.7458 -0.2704 -0.5986
  163MOL   H17636140   2.869   5.069   2.941  0.4499 -1.0759  2.0788
  163MOL   H17736141   3.006   5.115   3.021 -0.5703 -0.4168  0.7323
  163MOL   C17836142   3.015   4.910   2.937  0.3498 -0.4118  0.1685
  163MOL   C17936143   2.922   4.836   2.841 -0.3040  0.4720 -0.1194
  163MOL   O18036144   2.805   4.825   2.869 -0.0735 -0.0909  0.4327
  163MOL   C18136145   2.990   4.773   2.718  0.5127  0.6939  0.1926
  163MOL   C18236146   3.003   4.861   3.085 -0.1843  0.6383  0.0481
  163MOL   H18336147   3.120   4.900   2.910  1.1866  0.3367  2.9909
  163MOL   H18436148   2.953   4.805   2.620 -0.6592  2.1681  1.0896
  163MOL   H18536149   3.098   4.781   2.718  0.5925 -0.3343  0.1884
  163MOL   H18636150   2.963   4.668   2.713 -0.4706  0.9450 -0.1075
  163MOL   H18736151   2.901   4.866   3.124 -0.2380 -0.1675  0.0221
  163MOL   H18836152   3.070   4.908   3.157  0.7462  0.3112 -0.6001
  163MOL   C18936153   3.028   4.702   3.103  0.8344  0.5919 -0.1327
  163MOL   C19036154   3.014   4.653   3.248 -0.4941  0.2010 -0.3519
  163MOL   O19136155   3.068   4.702   3.344  0.0604 -0.6956 -0.0059
  163MOL   C19236156   2.931   4.531   3.266  0.0227 -0.2963  0.2186
  163MOL   C19336157   3.152   4.639   3.035  0.3316  0.4978  0.4074
  163MOL   H19436158   2.945   4.647   3.059  0.4467  0.4629  0.7328
  163MOL   H19536159   2.922   4.493   3.368 -1.5400  0.2679  0.3145
  163MOL   H19636160   2.832   4.540   3.221  1.1239 -1.0801 -2.4054
  163MOL   H19736161   2.980   4.459   3.201  1.1568  0.6866 -0.0213
  163MOL   H19836162   3.147   4.676   2.933 -0.2622  1.4864  0.7843
  163MOL   H19936163   3.125   4.535   3.016 -0.1160  1.0156 -1.8794
  163MOL   C20036164   3.285   4.648   3.114 -1.1126  0.1360  0.0331
  163MOL   C20136165   3.339   4.793   3.148  0.6674 -0.5936  0.1130
  163MOL   O20236166   3.321   4.883   3.070  0.2220  0.0359  0.3346
  163MOL   C20336167   3.413   4.809   3.274 -0.5244 -0.1257 -0.0481
  163MOL   C20436168   3.404   4.575   3.042  0.3508 -0.1796 -0.5320
  163MOL   H20536169   3.259   4.608   3.212  1.8799 -1.3813  0.2625
  163MOL   H20636170   3.392   4.910   3.309  0.7969 -0.2443  1.1086
  163MOL   H20736171   3.382   4.736   3.350 -3.2260 -0.3937 -1.3291
  163MOL   H20836172   3.520   4.800   3.256 -0.3661 -3.9972  2.1003
  163MOL   H20936173   3.377   4.470   3.050  2.8791 -1.0451 -2.7128
  163MOL   H21036174   3.491   4.595   3.105  0.1367 -1.7081  0.2755
  163MOL   C21136175   3.443   4.624   2.900 -0.6628  0.2498 -0.6335
  163MOL   C21236176   3.375   4.553   2.781  0.2619 -0.4029  0.5141
  163MOL   O21336177   3.311   4.450   2.803  0.1712  0.0975  0.1716
  163MOL   C21436178   3.367   4.626   2.648  0.2026  0.0596  0.2408
  163MOL   C21536179   3.590   4.621   2.872  0.5726 -0.4678  0.3221
  163MOL   H21636180   3.419   4.730   2.902  2.7140  1.0644 -0.3095
  163MOL   H21736181   3.263   4.645   2.626  0.1641 -2.2689 -1.7766
  163MOL   H21836182   3.420   4.721   2.656 -0.1668  0.3111 -0.3264
  163MOL   H21936183   3.426   4.572   2.574  0.5374  0.7614 -0.0127
  163MOL   H22036184   3.615   4.687   2.788  0.3943 -1.5491 -0.6003
  163MOL   H22136185   3.625   4.519   2.856  0.6929 -0.1267 -1.8452
  163MOL   H22236186   3.639   4.665   2.958  2.0071 -1.2414 -0.0737
  164MOL     C136187   6.728   1.510   1.357  0.4030  0.4190  0.2075
  164MOL     C236188   6.817   1.388   1.388 -0.3121 -0.3030 -0.2480
  164MOL     O336189   6.795   1.316   1.481  0.1783  0.2926  0.1170
  164MOL     C436190   6.943   1.372   1.307 -0.7883 -0.3141  0.0375
  164MOL     C536191   6.591   1.527   1.421  0.4002  0.5204  0.4503
  164MOL     H636192   6.772   1.607   1.381  0.9704  0.2926 -0.3249
  164MOL     H736193   6.948   1.456   1.238  0.1126 -1.1989 -0.9932
  164MOL     H836194   7.028   1.363   1.376 -0.6838 -0.9334 -0.1647
  164MOL     H936195   6.943   1.281   1.248 -0.5904  1.5872 -2.9781
  164MOL    H1036196   6.527   1.446   1.388 -1.3594  1.9600  0.2488
  164MOL    H1136197   6.544   1.614   1.375  1.0447 -0.4854 -2.1957
  164MOL    H1236198   6.715   1.511   1.249 -1.5207 -1.6730  0.3866
  164MOL    C1336199   6.595   1.543   1.572 -0.3476  0.7412  0.2484
  164MOL    C1436200   6.451   1.563   1.627  0.0793 -0.6031  0.0287
  164MOL    O1536201   6.377   1.645   1.579 -0.2150 -0.2872  0.0651
  164MOL    C1636202   6.419   1.506   1.762 -0.0000  0.1106 -0.5316
  164MOL    C1736203   6.702   1.641   1.633 -0.3547 -0.6071  0.0608
  164MOL    H1836204   6.630   1.443   1.596 -0.2886  0.9495  1.0447
  164MOL    H1936205   6.494   1.537   1.834 -0.4520  0.7723 -0.3479
  164MOL    H2036206   6.316   1.525   1.791  0.6807 -0.0144  2.0610
  164MOL    H2136207   6.434   1.398   1.768 -1.9609 -0.1574 -0.0837
  164MOL    H2236208   6.798   1.616   1.588 -0.4794  0.9601 -1.1215
  164MOL    H2336209   6.715   1.609   1.736 -2.7983  1.5379  1.0994
  164MOL    C2436210   6.669   1.786   1.643  0.0966  0.7469  0.3461
  164MOL    C2536211   6.675   1.856   1.508 -0.8282  0.2196 -0.2202
  164MOL    O2636212   6.786   1.875   1.461 -0.3720 -0.3557  0.2221
  164MOL    C2736213   6.550   1.894   1.437 -0.7305  0.8631  0.3184
  164MOL    C2836214   6.730   1.869   1.753  0.5316 -0.0423  0.5000
  164MOL    H2936215   6.560   1.788   1.651 -0.0529 -1.0901 -1.0934
  164MOL    H3036216   6.556   1.990   1.386 -1.3935  0.5180 -0.4276
  164MOL    H3136217   6.519   1.823   1.360 -0.9337  0.5744  0.6661
  164MOL    H3236218   6.465   1.890   1.505 -0.5548 -0.6508  0.4699
  164MOL    H3336219   6.736   1.973   1.720  2.7144  0.1309  1.3551
  164MOL    H3436220   6.834   1.838   1.764  0.5832  0.0250  0.2115
  164MOL    C3536221   6.669   1.869   1.895 -0.3190  0.0043  0.4264
  164MOL    C3636222   6.539   1.954   1.900 -0.0315  0.2986 -0.2782
  164MOL    O3736223   6.499   2.025   1.807 -0.2162 -0.2029 -0.3938
  164MOL    C3836224   6.452   1.925   2.021 -0.0214 -0.4147 -0.3842
  164MOL    C3936225   6.779   1.921   1.988  0.6268  0.2626  0.8953
  164MOL    H4036226   6.640   1.771   1.933  4.5600 -0.6122  3.0422
  164MOL    H4136227   6.349   1.943   1.990  0.5088 -1.3422 -2.7951
  164MOL    H4236228   6.475   1.829   2.066  1.9772 -0.5966 -1.7443
  164MOL    H4336229   6.483   1.997   2.097  1.0414 -2.6091  1.2903
  164MOL    H4436230   6.866   1.856   1.983 -1.8591 -3.0702 -1.0971
  164MOL    H4536231   6.742   1.913   2.090 -0.2623  0.8245  0.6183
  164MOL    C4636232   6.839   2.063   1.972 -1.0253 -0.5412 -0.7532
  164MOL    C4736233   6.990   2.051   1.961 -0.2328  0.0952  0.7637
  164MOL    O4836234   7.052   2.030   2.059 -0.1793  0.3173 -0.2870
  164MOL    C4936235   7.046   2.013   1.828 -0.0547 -0.0562  0.0072
  164MOL    C5036236   6.785   2.171   2.072  0.2738 -0.1861  0.0291
  164MOL    H5136237   6.804   2.092   1.873 -1.7338 -0.0663 -0.3682
  164MOL    H5236238   7.149   2.045   1.810  0.0324 -1.3158 -1.9144
  164MOL    H5336239   7.055   1.905   1.823 -0.9131 -0.3137  3.0551
  164MOL    H5436240   6.979   2.057   1.754 -1.1405 -1.6394  0.0318
  164MOL    H5536241   6.836   2.143   2.164  1.2976 -0.2802 -0.5633
  164MOL    H5636242   6.681   2.149   2.098 -0.1386  1.3474 -0.2487
  164MOL    C5736243   6.800   2.321   2.019 -0.3185  0.2552 -0.0336
  164MOL    C5836244   6.905   2.410   2.089 -0.4891  0.5057 -0.6216
  164MOL    O5936245   6.895   2.529   2.100  0.4791  0.1097  0.0024
  164MOL    C6036246   7.036   2.344   2.139  0.1030  0.0576  0.3233
  164MOL    C6136247   6.658   2.385   2.003  0.4210  0.0273 -0.5467
  164MOL    H6236248   6.834   2.316   1.916 -1.0151  0.4627 -0.2799
  164MOL    H6336249   7.005   2.288   2.228 -0.8467 -0.2653 -0.2013
  164MOL    H6436250   7.077   2.276   2.064  0.4130  1.3818 -0.7169
  164MOL    H6536251   7.117   2.405   2.177  2.1151 -2.9215  1.0256
  164MOL    H6636252   6.615   2.308   1.938  1.5517 -0.6659 -0.4856
  164MOL    H6736253   6.671   2.474   1.943  2.3569 -0.3395 -0.6918
  164MOL    C6836254   6.559   2.402   2.125  1.4867 -0.0073 -0.0409
  164MOL    C6936255   6.424   2.328   2.099  0.1607 -0.0431  0.1020
  164MOL    O7036256   6.374   2.323   1.988  0.3932 -0.1778  0.0268
  164MOL    C7136257   6.360   2.250   2.216 -0.6467  0.3083  0.3398
  164MOL    C7236258   6.549   2.548   2.171 -0.0689 -0.3583 -0.1615
  164MOL    H7336259   6.605   2.348   2.208  2.2611 -0.1498 -0.5596
  164MOL    H7436260   6.429   2.243   2.300  0.6243 -1.5087 -0.8234
  164MOL    H7536261   6.268   2.294   2.254 -2.3986 -1.1052 -2.1056
  164MOL    H7636262   6.322   2.152   2.187  1.9307 -0.1837 -1.5508
  164MOL    H7736263   6.465   2.597   2.121 -0.1078 -1.7537 -1.5160
  164MOL    H7836264   6.629   2.604   2.121  0.3753 -2.6575 -2.0994
  164MOL    C7936265   6.547   2.561   2.322 -0.4761  0.2547  0.4844
  164MOL    C8036266   6.518   2.707   2.366 -0.2153  0.0235  0.0145
  164MOL    O8136267   6.423   2.746   2.436 -0.2710 -0.0632 -0.0950
  164MOL    C8236268   6.618   2.816   2.318  0.1807 -0.3402  0.3417
  164MOL    C8336269   6.679   2.519   2.381  0.2710 -0.5719  0.0470
  164MOL    H8436270   6.464   2.498   2.354 -0.2218  0.9519  2.6172
  164MOL    H8536271   6.618   2.816   2.209 -2.6310  1.6569  0.2733
  164MOL    H8636272   6.595   2.917   2.353  1.0507  0.9028 -2.4703
  164MOL    H8736273   6.719   2.819   2.358  0.1204  1.0554  0.4124
  164MOL    H8836274   6.753   2.599   2.381  0.7184 -0.9762 -0.6316
  164MOL    H8936275   6.734   2.449   2.319  1.2126  1.4014 -1.4040
  164MOL    C9036276   6.680   2.451   2.521 -0.3148  0.4401  0.0564
  164MOL    C9136277   6.595   2.321   2.528 -0.1938 -0.4532  0.7603
  164MOL    O9236278   6.614   2.235   2.441 -0.2379 -0.0575 -0.0523
  164MOL    C9336279   6.481   2.294   2.636  0.1288 -0.2278  0.0078
  164MOL    C9436280   6.639   2.546   2.638 -0.4528 -0.4832 -0.3683
  164MOL    H9536281   6.781   2.418   2.544 -0.2386  0.5140 -0.1700
  164MOL    H9636282   6.471   2.187   2.655 -2.6992 -0.0404 -0.1469
  164MOL    H9736283   6.500   2.352   2.727 -0.3722  1.9324 -1.2241
  164MOL    H9836284   6.387   2.317   2.585  1.0856  0.3893 -1.4934
  164MOL    H9936285   6.648   2.498   2.735  2.5071  0.9740  0.1407
  164MOL   H10036286   6.537   2.583   2.631 -0.5685 -0.7336 -0.0048
  164MOL   C10136287   6.740   2.665   2.655  0.1430  0.1937 -1.0294
  164MOL   C10236288   6.878   2.611   2.685 -0.5714 -0.1722 -0.1085
  164MOL   O10336289   6.889   2.522   2.771 -0.4270 -0.7176  0.3830
  164MOL   C10436290   6.996   2.667   2.606  0.0794  0.1941 -0.5861
  164MOL   C10536291   6.696   2.756   2.777 -0.3992  0.6906  0.9115
  164MOL   H10636292   6.746   2.727   2.565  0.1110  0.3140 -0.9484
  164MOL   H10736293   7.023   2.762   2.651 -0.6150 -1.1229  2.7954
  164MOL   H10836294   7.077   2.594   2.601  2.5478  2.8367 -0.2202
  164MOL   H10936295   6.952   2.685   2.508  0.2361  2.5655 -0.2617
  164MOL   H11036296   6.733   2.697   2.862  0.2495 -2.9600 -1.7758
  164MOL   H11136297   6.591   2.763   2.805  0.0602  0.4012  2.8299
  164MOL   C11236298   6.752   2.896   2.800  0.1602 -0.8446  0.8147
  164MOL   C11336299   6.697   2.951   2.931 -0.8069 -0.0994 -0.3710
  164MOL   O11436300   6.598   3.023   2.934  0.1133 -0.0610  0.6202
  164MOL   C11536301   6.777   2.932   3.052 -0.0831  0.0296  0.1015
  164MOL   C11636302   6.729   2.991   2.683 -0.4785  0.1285  0.2113
  164MOL   H11736303   6.860   2.884   2.803  0.4837  0.8295 -2.3527
  164MOL   H11836304   6.736   2.882   3.141  0.2420 -2.0498 -0.8881
  164MOL   H11936305   6.860   2.864   3.033  1.3339  2.3946 -2.3962
  164MOL   H12036306   6.817   3.024   3.094  1.6687 -0.4164 -0.5711
  164MOL   H12136307   6.627   2.987   2.646 -0.6889 -0.0226  0.8121
  164MOL   H12236308   6.792   2.958   2.600 -0.5954  2.6251 -0.9107
  164MOL   C12336309   6.767   3.143   2.710  0.1188 -0.2236  0.0195
  164MOL   C12436310   6.712   3.230   2.593 -1.0791 -0.0902  0.8540
  164MOL   O12536311   6.781   3.257   2.489 -0.4812  0.3727 -0.0292
  164MOL   C12636312   6.575   3.280   2.610  0.8620 -0.0884  0.2026
  164MOL   C12736313   6.922   3.165   2.730  0.2053 -0.1206 -0.0966
  164MOL   H12836314   6.712   3.181   2.796 -1.2906 -0.9162 -0.5634
  164MOL   H12936315   6.533   3.266   2.709  2.4743 -1.0491  0.7693
  164MOL   H13036316   6.582   3.386   2.586  0.8398  0.0100  0.6323
  164MOL   H13136317   6.524   3.218   2.536  1.4225 -0.3355  0.0174
  164MOL   H13236318   6.977   3.143   2.638 -1.0479 -0.5729 -0.7515
  164MOL   H13336319   6.953   3.093   2.806 -0.8676  0.2055  0.6720
  164MOL   C13436320   6.952   3.311   2.771 -0.1473 -0.2368 -0.0774
  164MOL   C13536321   7.095   3.348   2.732  0.4994  0.2476  0.3668
  164MOL   O13636322   7.181   3.262   2.721 -0.2269  0.3289  0.1614
  164MOL   C13736323   7.124   3.497   2.708 -0.3695 -0.4221 -0.0365
  164MOL   C13836324   6.919   3.336   2.922  0.4152 -0.1830  0.5579
  164MOL   H13936325   6.903   3.384   2.706  1.4008 -1.0536 -2.1853
  164MOL   H14036326   7.059   3.562   2.649  1.8846  1.3318 -0.6620
  164MOL   H14136327   7.136   3.539   2.808  1.3496 -1.4385  0.1962
  164MOL   H14236328   7.222   3.504   2.662  0.1172 -0.9568  0.8893
  164MOL   H14336329   6.993   3.374   2.992  0.3197 -0.0821  0.6047
  164MOL   H14436330   6.898   3.240   2.969  1.1402 -1.3344 -1.4021
  164MOL   C14536331   6.791   3.427   2.932  0.3819  0.1711 -0.0310
  164MOL   C14636332   6.831   3.570   2.882  0.3335  0.0869  0.5838
  164MOL   O14736333   6.791   3.617   2.781  0.1255  0.3824 -0.1713
  164MOL   C14836334   6.923   3.651   2.967 -0.5021  0.5986 -0.3153
  164MOL   C14936335   6.736   3.431   3.078  0.3366 -0.4215  0.5935
  164MOL   H15036336   6.715   3.387   2.865 -0.4798  2.5562 -0.5391
  164MOL   H15136337   6.941   3.599   3.060  0.8086  0.1896 -0.7918
  164MOL   H15236338   7.014   3.673   2.912 -1.3270 -0.0922 -2.0013
  164MOL   H15336339   6.859   3.739   2.977 -1.6799 -0.3357  0.4947
  164MOL   H15436340   6.687   3.525   3.101  0.1379 -0.4457  0.2682
  164MOL   H15536341   6.826   3.423   3.138  0.6840 -0.9112  0.0169
  164MOL   C15636342   6.647   3.310   3.109 -0.1577 -0.0732 -0.4522
  164MOL   C15736343   6.502   3.333   3.066  0.1569 -0.1149  0.0475
  164MOL   O15836344   6.458   3.446   3.046 -0.0104 -0.5915  0.5888
  164MOL   C15936345   6.404   3.216   3.078  0.3319  0.4639 -0.5019
  164MOL   C16036346   6.662   3.257   3.259  0.1811 -0.9886 -0.0262
  164MOL   H16136347   6.661   3.217   3.054 -2.2565 -0.0087 -1.1381
  164MOL   H16236348   6.354   3.231   3.173 -0.6955  0.8365 -1.0900
  164MOL   H16336349   6.321   3.216   3.007 -1.2438  2.7613  1.2475
  164MOL   H16436350   6.454   3.120   3.065 -0.5970  0.0619 -1.1572
  164MOL   H16536351   6.757   3.209   3.277  0.4853 -0.1666  0.5818
  164MOL   H16636352   6.583   3.184   3.278  1.3237 -1.8490  1.4673
  164MOL   C16736353   6.647   3.372   3.376 -0.2904 -0.4661  0.2506
  164MOL   C16836354   6.785   3.440   3.413 -0.0424  0.5749 -0.0636
  164MOL   O16936355   6.867   3.376   3.471 -0.4578 -0.7019 -0.6313
  164MOL   C17036356   6.794   3.588   3.373 -0.6846 -0.0517  0.4605
  164MOL   C17136357   6.578   3.320   3.505  0.3764  0.1291 -0.1446
  164MOL   H17236358   6.578   3.442   3.328  0.4913 -1.5632 -2.5718
  164MOL   H17336359   6.874   3.587   3.299 -0.8235 -0.4027  0.3190
  164MOL   H17436360   6.699   3.628   3.337 -0.0147 -1.4362 -2.9593
  164MOL   H17536361   6.838   3.649   3.453 -1.9166  1.8003 -0.2354
  164MOL   H17636362   6.648   3.273   3.574 -1.4799 -1.7518  0.5223
  164MOL   H17736363   6.522   3.232   3.473  0.9081 -0.0534 -0.5777
  164MOL   C17836364   6.487   3.405   3.591 -0.0152  0.0233  0.0969
  164MOL   C17936365   6.370   3.475   3.514  0.1704  0.4471 -0.4780
  164MOL   O18036366   6.352   3.593   3.502  0.0281  0.1423 -0.5618
  164MOL   C18136367   6.276   3.375   3.446  0.0174 -0.0726 -0.6438
  164MOL   C18236368   6.564   3.514   3.676  0.0467  0.6981 -0.1142
  164MOL   H18336369   6.442   3.328   3.654 -0.1057  1.2896  1.6088
  164MOL   H18436370   6.325   3.327   3.362 -1.6346 -0.4709 -1.4104
  164MOL   H18536371   6.231   3.293   3.502  1.2936 -0.5856 -0.3521
  164MOL   H18636372   6.200   3.443   3.407 -0.4483  1.4943  2.8128
  164MOL   H18736373   6.486   3.576   3.719 -0.5350  0.3650 -0.6811
  164MOL   H18836374   6.613   3.585   3.609  1.4686  0.2176  0.3958
  164MOL   C18936375   6.661   3.461   3.779 -0.1410 -0.5055  0.0398
  164MOL   C19036376   6.585   3.390   3.900  0.1967 -0.3788  0.3808
  164MOL   O19136377   6.461   3.402   3.904  0.4630 -0.1115 -0.5853
  164MOL   C19236378   6.677   3.318   4.007 -0.0145 -0.2363  0.3667
  164MOL   C19336379   6.738   3.584   3.834 -0.2374 -0.0498 -0.4352
  164MOL   H19436380   6.725   3.382   3.738 -1.7290 -2.2829  0.8778
  164MOL   H19536381   6.735   3.395   4.057  1.3891 -0.1530 -1.3555
  164MOL   H19636382   6.624   3.263   4.085 -0.5732 -1.5460 -0.9291
  164MOL   H19736383   6.732   3.238   3.957  0.4593  0.4606 -0.2326
  164MOL   H19836384   6.770   3.573   3.937  0.3954 -0.5179 -0.6788
  164MOL   H19936385   6.666   3.665   3.841 -1.4896 -0.9317 -2.3132
  164MOL   C20036386   6.861   3.625   3.749  1.2436 -0.5558 -0.1050
  164MOL   C20136387   6.978   3.523   3.770  0.7449 -0.1466 -0.6061
  164MOL   O20236388   6.977   3.441   3.864 -0.1478 -0.6951 -0.2020
  164MOL   C20336389   7.099   3.529   3.688  0.0275 -0.1659  0.9140
  164MOL   C20436390   6.907   3.766   3.794 -0.0290  0.4660 -0.1153
  164MOL   H20536391   6.822   3.630   3.648 -0.7052 -0.7769  0.6297
  164MOL   H20636392   7.154   3.435   3.684 -1.0672 -0.7549 -1.3369
  164MOL   H20736393   7.081   3.570   3.588  0.4967 -0.1572  0.8286
  164MOL   H20836394   7.164   3.598   3.741 -0.0461 -0.1283  0.9538
  164MOL   H20936395   6.984   3.797   3.724 -0.7568  1.1757 -0.6113
  164MOL   H21036396   6.965   3.762   3.887  0.6194  0.2738 -0.5257
  164MOL   C21136397   6.803   3.886   3.804 -0.1976  0.6132  0.4285
  164MOL   C21236398   6.694   3.893   3.700 -0.4399 -0.3325 -0.5716
  164MOL   O21336399   6.724   3.870   3.580  0.0127 -0.8033 -0.5781
  164MOL   C21436400   6.547   3.921   3.734 -0.1101 -0.2608  0.4777
  164MOL   C21536401   6.893   4.010   3.791 -0.0921  0.1745 -0.5262
  164MOL   H21636402   6.754   3.888   3.901  0.7796 -1.6779  1.0078
  164MOL   H21736403   6.515   4.024   3.746 -0.2806 -0.2622  0.0621
  164MOL   H21836404   6.469   3.885   3.666 -1.8380  1.3237  1.5915
  164MOL   H21936405   6.533   3.868   3.828 -1.1132 -0.3040  0.3060
  164MOL   H22036406   6.971   4.023   3.866 -0.0148 -0.6416 -0.4686
  164MOL   H22136407   6.826   4.092   3.817 -0.4188 -0.5441  0.9544
  164MOL   H22236408   6.926   4.018   3.688  1.6510  1.4607  0.1094
  165MOL     C136409   6.107   6.631   6.021 -0.3698  0.2012  0.2801
  165MOL     C236410   6.011   6.512   6.006  0.0564  0.7631 -0.2942
  165MOL     O336411   5.894   6.522   6.040 -0.4546  0.1934  0.0976
  165MOL     C436412   6.050   6.370   5.968  0.3021 -0.0253  0.5348
  165MOL     C536413   6.041   6.763   5.983  0.1335 -0.5021  0.3624
  165MOL     H636414   6.157   6.641   6.117  1.4626  1.8991 -0.8148
  165MOL     H736415   6.148   6.347   6.010  0.0839  0.7700  1.5184
  165MOL     H836416   5.978   6.303   6.014  2.1143 -1.7497  0.9124
  165MOL     H936417   6.046   6.367   5.859  0.6201  0.2503  0.5145
  165MOL    H1036418   5.936   6.764   6.012 -0.0888  1.7497 -0.4339
  165MOL    H1136419   6.037   6.759   5.875 -0.4438 -0.4993  0.3831
  165MOL    H1236420   6.182   6.614   5.945 -2.3876 -1.1646 -1.4592
  165MOL    C1336421   6.113   6.893   6.030 -0.1088  0.0297  0.2513
  165MOL    C1436422   6.255   6.905   5.971 -0.0481  0.4620 -0.2349
  165MOL    O1536423   6.352   6.868   6.025 -1.0722 -0.6876  0.3048
  165MOL    C1636424   6.259   6.943   5.818  0.1959 -0.1099 -0.3700
  165MOL    C1736425   6.108   6.916   6.188  0.1781 -0.1805  0.0655
  165MOL    H1836426   6.057   6.972   5.980  2.1037 -0.1521 -2.6248
  165MOL    H1936427   6.178   6.888   5.770  1.5541 -0.6577 -2.0695
  165MOL    H2036428   6.242   7.050   5.808  2.4316  0.3083 -0.1004
  165MOL    H2136429   6.352   6.907   5.774 -0.6917 -0.6713 -1.8108
  165MOL    H2236430   6.176   6.845   6.236  0.3279 -0.3248 -0.3549
  165MOL    H2336431   6.008   6.877   6.205  0.4791 -1.0970 -0.2377
  165MOL    C2436432   6.131   7.050   6.243 -0.1015  0.0638  0.2613
  165MOL    C2536433   6.053   7.162   6.174  0.2642 -0.7629  0.1040
  165MOL    O2636434   6.097   7.209   6.072  0.2701 -0.0862  0.3548
  165MOL    C2736435   5.951   7.245   6.245  0.3351 -0.0856 -0.3582
  165MOL    C2836436   6.285   7.091   6.261  0.0971  0.1469 -0.2875
  165MOL    H2936437   6.092   7.036   6.343  0.5479 -0.6572  0.4159
  165MOL    H3036438   5.982   7.336   6.297  2.6509 -0.5754 -0.7932
  165MOL    H3136439   5.875   7.274   6.172 -1.0127 -0.5389  0.8554
  165MOL    H3236440   5.910   7.188   6.328 -0.7692 -0.9915 -1.4948
  165MOL    H3336441   6.321   7.144   6.172  0.5459 -1.6676 -1.2169
  165MOL    H3436442   6.338   6.996   6.263  3.0363  1.7388  0.2218
  165MOL    C3536443   6.305   7.180   6.386 -0.2114  0.0982  0.2350
  165MOL    C3636444   6.457   7.211   6.388  0.3175 -0.3621 -0.0551
  165MOL    O3736445   6.534   7.127   6.409 -0.2146  0.0060  0.4999
  165MOL    C3836446   6.494   7.360   6.392  0.6105  0.1356  0.0026
  165MOL    C3936447   6.264   7.126   6.522 -0.1684 -0.3952  0.1997
  165MOL    H4036448   6.252   7.273   6.370 -2.1061 -0.7074  1.7015
  165MOL    H4136449   6.462   7.417   6.306 -0.1201  1.8445  1.3674
  165MOL    H4236450   6.450   7.418   6.473  0.1277 -0.0569 -0.1205
  165MOL    H4336451   6.600   7.362   6.418  0.0900  1.1445  2.1392
  165MOL    H4436452   6.336   7.135   6.604  0.5929 -1.1400 -0.3823
  165MOL    H4536453   6.276   7.020   6.500  0.4746  0.0180 -1.4809
  165MOL    C4636454   6.128   7.168   6.579 -0.2254  0.3025 -0.4274
  165MOL    C4736455   6.124   7.320   6.626  0.3690 -0.1736  0.2688
  165MOL    O4836456   6.222   7.394   6.651 -0.0125  0.3197  0.7609
  165MOL    C4936457   5.994   7.391   6.617  0.8561 -0.8592  0.3183
  165MOL    C5036458   6.092   7.072   6.694  0.1832  0.0879 -0.1706
  165MOL    H5136459   6.047   7.152   6.508  0.8805 -0.9395 -1.4372
  165MOL    H5236460   5.933   7.348   6.696 -1.0196 -0.6582 -0.9797
  165MOL    H5336461   6.003   7.497   6.644 -1.4608 -0.1473 -1.5255
  165MOL    H5436462   5.942   7.378   6.522 -2.3274 -0.6121  1.9636
  165MOL    H5536463   6.021   7.127   6.755  0.1417 -0.4533  0.2742
  165MOL    H5636464   6.177   7.080   6.762  0.6696 -2.4276 -0.4232
  165MOL    C5736465   6.030   6.934   6.666  0.7230 -0.2155  0.2706
  165MOL    C5836466   5.885   6.948   6.623  0.0842 -0.4678 -0.4570
  165MOL    O5936467   5.860   6.926   6.506 -0.1297 -0.3633  0.0491
  165MOL    C6036468   5.771   6.990   6.723  0.3275 -0.5131  0.1172
  165MOL    C6136469   6.057   6.819   6.753  0.7220 -0.6280 -0.2215
  165MOL    H6236470   6.081   6.901   6.575  1.1257 -2.4639  1.2749
  165MOL    H6336471   5.743   6.908   6.790  3.0054 -0.4327  1.4329
  165MOL    H6436472   5.821   7.066   6.783 -1.9000  0.6048  0.6249
  165MOL    H6536473   5.693   7.041   6.668  1.6059  0.1020 -1.1355
  165MOL    H6636474   6.017   6.734   6.697 -2.2931 -0.7768  2.0028
  165MOL    H6736475   5.991   6.824   6.840 -1.3542 -0.3689 -1.7823
  165MOL    C6836476   6.206   6.795   6.781 -0.2992  0.0662 -0.1106
  165MOL    C6936477   6.279   6.737   6.664 -0.1709  0.2376 -0.4434
  165MOL    O7036478   6.222   6.659   6.587 -0.1424 -0.4171  0.2613
  165MOL    C7136479   6.431   6.745   6.663 -0.1376  0.0664  0.2588
  165MOL    C7236480   6.219   6.700   6.902  0.4298  0.0189  0.9563
  165MOL    H7336481   6.257   6.887   6.812  0.9066 -0.7864  0.4710
  165MOL    H7436482   6.462   6.802   6.574 -3.7633 -0.8032 -1.6345
  165MOL    H7536483   6.477   6.804   6.743  1.3278 -2.5239  1.3666
  165MOL    H7636484   6.473   6.645   6.672  0.0089 -0.0908 -1.8206
  165MOL    H7736485   6.321   6.666   6.917  2.1511  2.8991 -3.2243
  165MOL    H7836486   6.167   6.607   6.881  0.0769 -0.0502  2.1174
  165MOL    C7936487   6.162   6.746   7.039  0.3561  0.8687  0.1673
  165MOL    C8036488   6.240   6.854   7.109 -1.2245  0.3419 -0.0648
  165MOL    O8136489   6.324   6.828   7.200  0.1167 -0.2408  0.0983
  165MOL    C8236490   6.220   6.998   7.055  0.4861  0.2266 -0.3486
  165MOL    C8336491   6.142   6.630   7.143 -0.5440 -0.2445 -0.0916
  165MOL    H8436492   6.058   6.776   7.021  0.4987  2.1530  1.3750
  165MOL    H8536493   6.238   7.075   7.130  0.2471  1.0971 -1.1858
  165MOL    H8636494   6.295   7.023   6.981  0.7113 -0.6528 -0.4276
  165MOL    H8736495   6.126   7.019   7.004 -1.0003 -0.6402  1.9408
  165MOL    H8836496   6.238   6.601   7.186  0.3042  2.6044  0.0893
  165MOL    H8936497   6.121   6.537   7.090  2.0491 -0.1518 -1.3575
  165MOL    C9036498   6.033   6.663   7.260  0.3205 -0.0639 -0.6427
  165MOL    C9136499   6.062   6.605   7.396 -0.0176 -0.0840 -0.5217
  165MOL    O9236500   5.993   6.514   7.449  0.5392  0.1239  0.0702
  165MOL    C9336501   6.180   6.661   7.481  0.5293 -0.1620  0.8116
  165MOL    C9436502   5.889   6.626   7.210 -0.0192 -0.4218  0.9260
  165MOL    H9536503   6.029   6.772   7.271 -2.9698 -0.2979  1.1899
  165MOL    H9636504   6.205   6.586   7.556  4.5695  0.3957  0.1227
  165MOL    H9736505   6.267   6.667   7.416  0.5562 -1.8051  0.6538
  165MOL    H9836506   6.160   6.757   7.527 -0.9180 -2.1598  4.5761
  165MOL    H9936507   5.856   6.531   7.253  0.5691 -1.6518 -1.2966
  165MOL   H10036508   5.909   6.595   7.108  0.2968  3.6646 -0.3334
  165MOL   C10136509   5.778   6.729   7.214  0.2374 -1.1682  0.0002
  165MOL   C10236510   5.717   6.717   7.356 -0.1955  0.8018 -0.1642
  165MOL   O10336511   5.629   6.636   7.366  0.2119 -0.1494  0.1991
  165MOL   C10436512   5.775   6.788   7.480  0.2698  0.2787 -0.2060
  165MOL   C10536513   5.674   6.706   7.095  0.4665 -0.2900 -0.8536
  165MOL   H10636514   5.828   6.824   7.195  0.6712 -1.2100  0.8989
  165MOL   H10736515   5.880   6.819   7.477  0.7606 -1.2513  0.5757
  165MOL   H10836516   5.721   6.883   7.487 -0.0226  0.0200  1.2359
  165MOL   H10936517   5.747   6.736   7.571 -1.2573  1.6406  0.1172
  165MOL   H11036518   5.650   6.599   7.093 -2.3265  0.2740 -0.2345
  165MOL   H11136519   5.719   6.716   6.997 -0.6637  2.8160 -1.1111
  165MOL   C11236520   5.544   6.786   7.112 -0.1165 -0.1619  0.2721
  165MOL   C11336521   5.443   6.751   6.997  0.3998  0.1816 -1.0896
  165MOL   O11436522   5.434   6.808   6.891 -1.0779  0.6491  0.5866
  165MOL   C11536523   5.343   6.642   7.037 -0.0549  0.7202  0.8847
  165MOL   C11636524   5.583   6.937   7.119  0.0136 -0.1513 -0.6216
  165MOL   H11736525   5.493   6.752   7.201  0.7411  1.1441  1.2784
  165MOL   H11836526   5.253   6.677   6.987  0.8441  1.1973 -0.4427
  165MOL   H11936527   5.372   6.548   6.989 -2.4307  0.1135  0.5903
  165MOL   H12036528   5.321   6.638   7.143 -2.4703 -0.6557  0.3583
  165MOL   H12136529   5.622   6.976   7.025  1.8864  0.2008  0.2761
  165MOL   H12236530   5.659   6.961   7.194 -1.4207 -0.7592  1.0589
  165MOL   C12336531   5.473   7.025   7.176 -0.5659  0.0168  0.8230
  165MOL   C12436532   5.404   6.979   7.312  0.9821  0.3713  0.1278
  165MOL   O12536533   5.301   6.910   7.314 -0.1859  0.0505 -0.7527
  165MOL   C12636534   5.470   7.019   7.434 -0.2076 -0.1415  0.0281
  165MOL   C12736535   5.373   7.058   7.059 -0.0628  0.0574 -0.0740
  165MOL   H12836536   5.522   7.115   7.211 -0.7360  0.9502 -1.2735
  165MOL   H12936537   5.546   7.097   7.434 -1.2290  0.8675 -1.0303
  165MOL   H13036538   5.378   7.044   7.488 -0.3870 -1.9287  0.5930
  165MOL   H13136539   5.518   6.933   7.480 -0.7179 -1.2671 -1.5105
  165MOL   H13236540   5.288   6.989   7.052 -1.7779  1.9849  1.3003
  165MOL   H13336541   5.417   7.044   6.960  2.0770  3.2375  0.3706
  165MOL   C13436542   5.313   7.200   7.065 -1.1109  0.4298 -0.0883
  165MOL   C13536543   5.201   7.219   7.169  0.5031  0.0040  0.0310
  165MOL   O13636544   5.088   7.176   7.149 -0.3432  0.2034  0.2775
  165MOL   C13736545   5.234   7.275   7.309  0.1954 -0.3524 -0.1399
  165MOL   C13836546   5.264   7.254   6.936 -0.2072 -0.1480  0.3314
  165MOL   H13936547   5.388   7.273   7.095  0.1809 -0.8931 -0.0849
  165MOL   H14036548   5.336   7.311   7.324 -0.8487  1.5741  2.8567
  165MOL   H14136549   5.179   7.368   7.322 -0.4303 -0.9379  1.6063
  165MOL   H14236550   5.214   7.201   7.387  1.1463 -1.5667 -1.0300
  165MOL   H14336551   5.215   7.350   6.952  0.1703  0.3776 -1.5416
  165MOL   H14436552   5.192   7.189   6.886  1.1871 -1.1990 -0.3531
  165MOL   C14536553   5.366   7.289   6.831 -0.1907 -0.4109  0.1414
  165MOL   C14636554   5.495   7.360   6.887  0.0968  0.5029  0.3968
  165MOL   O14736555   5.602   7.311   6.848  0.4436  0.7292  0.2168
  165MOL   C14836556   5.478   7.485   6.982  1.2659 -0.3003  0.0593
  165MOL   C14936557   5.294   7.358   6.715 -0.2668 -0.1168  0.4580
  165MOL   H15036558   5.408   7.192   6.803 -1.9950 -0.9899 -0.6809
  165MOL   H15136559   5.575   7.521   7.014  1.3658  0.0269 -0.6079
  165MOL   H15236560   5.432   7.565   6.924  0.6967 -1.2831 -0.8783
  165MOL   H15336561   5.417   7.472   7.071  1.0985  1.8172  0.2829
  165MOL   H15436562   5.303   7.465   6.735 -0.9598  0.1594 -0.6176
  165MOL   H15536563   5.188   7.333   6.709 -0.1658 -0.7450  1.3201
  165MOL   C15636564   5.353   7.325   6.572 -0.1650 -0.4468  0.5422
  165MOL   C15736565   5.482   7.412   6.541 -0.0649  0.1464 -0.4442
  165MOL   O15836566   5.465   7.527   6.512  0.3762 -0.3210  0.2180
  165MOL   C15936567   5.619   7.341   6.541 -0.4624 -0.6273  0.8411
  165MOL   C16036568   5.248   7.310   6.461 -0.3518 -0.0473 -0.8772
  165MOL   H16136569   5.395   7.226   6.589 -1.2643 -1.2909 -1.4803
  165MOL   H16236570   5.621   7.245   6.592  0.7608 -1.6903 -1.1531
  165MOL   H16336571   5.635   7.329   6.434  0.8636  1.1837  0.8014
  165MOL   H16436572   5.703   7.400   6.578  0.0806 -0.1530 -1.0863
  165MOL   H16536573   5.280   7.376   6.380  0.4415 -1.3820 -1.6623
  165MOL   H16636574   5.151   7.347   6.495  1.0899  2.8358  0.3290
  165MOL   C16736575   5.233   7.169   6.397 -0.0915 -0.4759 -0.0149
  165MOL   C16836576   5.183   7.066   6.499  0.7143 -0.0515 -0.1387
  165MOL   O16936577   5.257   7.018   6.582 -0.0694 -0.5188 -0.0585
  165MOL   C17036578   5.042   7.026   6.497  1.0316  0.2465  0.4014
  165MOL   C17136579   5.366   7.126   6.320 -1.1870  0.4255 -0.2043
  165MOL   H17236580   5.156   7.171   6.320  1.5861 -0.4111 -1.7451
  165MOL   H17336581   5.023   6.940   6.433 -0.1918  1.4058 -0.8363
  165MOL   H17436582   5.013   7.004   6.600 -1.6905 -0.1395 -0.4095
  165MOL   H17536583   4.983   7.114   6.473 -0.4935 -0.3121  2.0146
  165MOL   H17636584   5.355   7.031   6.269  2.8276 -0.7500  0.9629
  165MOL   H17736585   5.442   7.112   6.396  0.3921  3.0266 -1.2375
  165MOL   C17836586   5.421   7.224   6.214  0.2072 -0.5557 -0.2072
  165MOL   C17936587   5.318   7.268   6.111 -0.2085 -0.1472  0.1176
  165MOL   O18036588   5.222   7.196   6.088 -0.3699 -0.0734 -0.6342
  165MOL   C18136589   5.331   7.407   6.049  0.8860  0.8225 -0.4729
  165MOL   C18236590   5.559   7.172   6.142  0.0244  0.8542 -0.2517
  165MOL   H18336591   5.456   7.318   6.258  1.8931  0.0297 -2.6745
  165MOL   H18436592   5.344   7.487   6.121 -0.1308 -0.7518  1.5270
  165MOL   H18536593   5.422   7.417   5.990  0.0510  0.9652 -1.7446
  165MOL   H18636594   5.249   7.430   5.982  0.2481  1.0999  0.3911
  165MOL   H18736595   5.641   7.181   6.212  0.1211 -0.4605 -0.1751
  165MOL   H18836596   5.582   7.238   6.058  0.2625 -1.1331 -1.7914
  165MOL   C18936597   5.560   7.018   6.099  0.3759 -0.4504 -0.3060
  165MOL   C19036598   5.701   6.966   6.108 -0.1682 -0.1527  0.2510
  165MOL   O19136599   5.790   7.016   6.043  0.6186 -0.7819  0.1358
  165MOL   C19236600   5.723   6.845   6.202 -0.4760  0.2819  0.4742
  165MOL   C19336601   5.490   6.987   5.963  0.3261 -0.0026  0.3569
  165MOL   H19436602   5.502   6.956   6.167  0.3557 -1.0817 -0.8951
  165MOL   H19536603   5.775   6.877   6.292 -0.7412  1.1728  0.3179
  165MOL   H19636604   5.630   6.792   6.222 -0.0811 -0.6204 -0.0808
  165MOL   H19736605   5.785   6.780   6.139  0.0293  2.5655 -1.4699
  165MOL   H19836606   5.556   7.021   5.883 -2.5821  0.3178 -1.9796
  165MOL   H19936607   5.404   7.051   5.947  0.5289  0.6623  1.8086
  165MOL   C20036608   5.448   6.833   5.958  0.5549 -0.0973 -0.2703
  165MOL   C20136609   5.555   6.741   5.902  1.0988 -0.1438 -0.4932
  165MOL   O20236610   5.637   6.775   5.823 -0.5199  0.1326 -0.1917
  165MOL   C20336611   5.551   6.597   5.956 -0.1868 -0.2833  0.6940
  165MOL   C20436612   5.322   6.807   5.872  0.1778 -0.3672  0.0862
  165MOL   H20536613   5.437   6.792   6.058 -0.7411  2.3845  0.6249
  165MOL   H20636614   5.528   6.537   5.868  0.1235  0.3180  0.2024
  165MOL   H20736615   5.649   6.572   5.995 -0.5572  0.1436  1.9280
  165MOL   H20836616   5.472   6.579   6.029 -1.0824  2.5200  0.4541
  165MOL   H20936617   5.314   6.701   5.848  0.4561 -0.1838 -0.8741
  165MOL   H21036618   5.320   6.862   5.777  1.8443 -1.6031 -0.6962
  165MOL   C21136619   5.186   6.854   5.934 -0.1233  0.2529  0.4618
  165MOL   C21236620   5.164   6.810   6.081  0.2108  0.0160  0.8451
  165MOL   O21336621   5.196   6.708   6.131 -0.2223  0.1017 -0.7810
  165MOL   C21436622   5.101   6.914   6.167  0.5356 -0.1631  0.5731
  165MOL   C21536623   5.059   6.822   5.848  0.2816  0.5427 -0.2903
  165MOL   H21636624   5.192   6.962   5.943  1.9682  0.1604  0.3003
  165MOL   H21736625   5.056   6.987   6.099 -0.5208 -0.8433  0.5282
  165MOL   H21836626   5.019   6.872   6.225 -1.0230 -1.3382 -2.3670
  165MOL   H21936627   5.171   6.958   6.238 -1.8007  1.3104  2.0345
  165MOL   H22036628   5.051   6.862   5.747 -0.9792  1.4756  0.1722
  165MOL   H22136629   4.964   6.847   5.895  0.9364  2.2547  0.1667
  165MOL   H22236630   5.046   6.714   5.835  0.4797  0.6385 -1.3695
  166MOL     C136631   5.112   6.575   4.871  0.6404 -0.1334 -0.1417
  166MOL     C236632   5.115   6.719   4.922 -0.5357  0.4653 -0.5338
  166MOL     O336633   5.023   6.777   4.973 -0.0788 -0.0363 -0.4198
  166MOL     C436634   5.252   6.778   4.923  0.5580  0.3168 -0.1861
  166MOL     C536635   4.982   6.518   4.821 -0.0668 -0.1823  0.0147
  166MOL     H636636   5.181   6.563   4.787  1.6562 -1.2105  0.8191
  166MOL     H736637   5.310   6.736   5.005  0.9003 -1.3556 -1.2587
  166MOL     H836638   5.314   6.756   4.837 -1.7146 -2.3656 -1.2266
  166MOL     H936639   5.248   6.879   4.965 -1.2617 -0.6657  2.1536
  166MOL    H1036640   4.991   6.410   4.812 -0.3015 -0.0505 -2.1839
  166MOL    H1136641   4.970   6.530   4.713  0.1276 -0.0386  0.0098
  166MOL    H1236642   5.135   6.502   4.948 -0.8642 -0.7315 -0.2359
  166MOL    C1336643   4.839   6.545   4.888  0.3732  0.3083 -0.4314
  166MOL    C1436644   4.838   6.468   5.022  0.9035  0.3065 -0.3566
  166MOL    O1536645   4.800   6.351   5.031  0.7666  0.7759 -0.1470
  166MOL    C1636646   4.883   6.543   5.145  0.3235 -0.5293 -0.0107
  166MOL    C1736647   4.723   6.500   4.796  0.3326  0.0241  0.5057
  166MOL    H1836648   4.825   6.653   4.897 -1.1087 -0.0903  2.7720
  166MOL    H1936649   4.979   6.593   5.131 -0.7631  1.8220  0.7505
  166MOL    H2036650   4.809   6.616   5.179  1.3900  0.4764  0.2024
  166MOL    H2136651   4.892   6.480   5.233  0.5867 -1.0072 -0.3762
  166MOL    H2236652   4.729   6.393   4.775 -0.4455 -0.2567  1.6709
  166MOL    H2336653   4.750   6.540   4.698  1.3777 -2.0927 -0.1003
  166MOL    C2436654   4.585   6.525   4.851  0.0294  0.0756 -0.2630
  166MOL    C2536655   4.489   6.412   4.813 -0.6705  0.1717 -0.3446
  166MOL    O2636656   4.397   6.375   4.882  0.1615 -0.3061 -0.0682
  166MOL    C2736657   4.497   6.356   4.669 -0.3167 -0.1266  0.5044
  166MOL    C2836658   4.527   6.655   4.793 -0.2986  0.7866  0.4928
  166MOL    H2936659   4.584   6.525   4.960 -1.4525 -1.6620 -0.2402
  166MOL    H3036660   4.492   6.247   4.672 -0.1474 -0.1772 -0.8346
  166MOL    H3136661   4.402   6.386   4.625 -0.5133  1.1762  1.7778
  166MOL    H3236662   4.586   6.388   4.614 -1.4971  0.8983 -0.8299
  166MOL    H3336663   4.462   6.638   4.707 -2.8694 -0.3083  2.6085
  166MOL    H3436664   4.615   6.708   4.755 -0.0967 -1.1487 -1.8514
  166MOL    C3536665   4.457   6.753   4.890 -0.1598  0.3201 -0.1515
  166MOL    C3636666   4.559   6.818   4.987  0.5202 -0.4141  0.4607
  166MOL    O3736667   4.565   6.795   5.110 -0.0187 -0.3943 -0.1810
  166MOL    C3836668   4.661   6.915   4.931 -0.0201  0.4619 -0.2424
  166MOL    C3936669   4.326   6.687   4.950  0.9970 -0.0245 -0.0289
  166MOL    H4036670   4.420   6.833   4.825  2.3208  0.7416 -1.0774
  166MOL    H4136671   4.704   6.959   5.021 -0.5465  1.0781 -0.2854
  166MOL    H4236672   4.729   6.858   4.868  1.2607  1.7260 -0.0283
  166MOL    H4336673   4.613   6.998   4.878 -2.4396  0.0412  1.2198
  166MOL    H4436674   4.374   6.627   5.027  1.9738 -0.0791 -0.6787
  166MOL    H4536675   4.286   6.606   4.888 -1.4388  1.3196 -0.2780
  166MOL    C4636676   4.214   6.781   5.007  0.1501  0.1778 -0.5195
  166MOL    C4736677   4.154   6.857   4.888  0.2762  0.3935  0.4994
  166MOL    O4836678   4.151   6.980   4.875 -0.1039  0.4168 -0.0364
  166MOL    C4936679   4.108   6.778   4.770 -0.5972  0.8228 -0.1691
  166MOL    C5036680   4.247   6.866   5.131  0.1004 -0.9626  0.3029
  166MOL    H5136681   4.133   6.711   5.026 -0.2562  1.2174  1.7816
  166MOL    H5236682   4.189   6.721   4.724 -2.0355 -0.1521 -1.4874
  166MOL    H5336683   4.036   6.700   4.793 -1.0083  1.4838  0.7828
  166MOL    H5436684   4.068   6.847   4.696 -1.4550 -0.5846 -1.0193
  166MOL    H5536685   4.260   6.971   5.108 -0.1051 -0.1401  3.6256
  166MOL    H5636686   4.334   6.829   5.186  0.4470 -0.1662  0.2954
  166MOL    C5736687   4.126   6.873   5.237 -0.0771 -0.0458 -0.1057
  166MOL    C5836688   4.001   6.943   5.180 -0.5962 -0.5006 -0.1240
  166MOL    O5936689   4.002   7.066   5.184 -0.2088  0.0201 -0.7185
  166MOL    C6036690   3.888   6.869   5.116  0.3831  0.2167 -0.9134
  166MOL    C6136691   4.172   6.954   5.371  0.3491 -0.0036  0.2961
  166MOL    H6236692   4.109   6.768   5.263  1.2762 -0.2830 -0.1645
  166MOL    H6336693   3.872   6.914   5.019 -1.1109 -1.3685 -1.4354
  166MOL    H6436694   3.888   6.760   5.128  1.0199  0.4308  1.3415
  166MOL    H6536695   3.797   6.889   5.173  1.5375 -0.8385  1.3962
  166MOL    H6636696   4.187   7.059   5.344  1.3908 -0.2397 -0.0872
  166MOL    H6736697   4.275   6.922   5.382  0.7377  0.7948 -0.8992
  166MOL    C6836698   4.078   6.932   5.492 -0.3814  1.0089  0.5853
  166MOL    C6936699   4.075   7.055   5.576  0.2997 -0.0186 -0.2823
  166MOL    O7036700   4.128   7.053   5.687  0.1247 -0.6194  0.3843
  166MOL    C7136701   3.988   7.174   5.541 -0.0714 -0.4035 -0.5669
  166MOL    C7236702   4.077   6.797   5.572 -0.4270  0.1636  0.3051
  166MOL    H7336703   3.981   6.931   5.441 -0.2407 -0.2098  0.3237
  166MOL    H7436704   4.007   7.273   5.582  1.6119 -0.5460 -0.9610
  166MOL    H7536705   3.988   7.189   5.433 -2.0943  0.6031 -0.4658
  166MOL    H7636706   3.882   7.156   5.559 -0.1963 -1.1159 -1.9453
  166MOL    H7736707   4.170   6.792   5.628 -1.4403 -0.1086  2.0068
  166MOL    H7836708   4.069   6.721   5.494  1.4434 -0.6595  0.8789
  166MOL    C7936709   3.960   6.775   5.677 -0.4476  0.1383 -0.4325
  166MOL    C8036710   3.993   6.658   5.776  0.4975 -0.4113  0.8401
  166MOL    O8136711   4.063   6.560   5.746  0.5139  0.0383 -0.1008
  166MOL    C8236712   3.924   6.671   5.909  0.1870  0.1451  0.0533
  166MOL    C8336713   3.808   6.764   5.629 -0.1752 -0.8108  0.2031
  166MOL    H8436714   3.972   6.868   5.732 -1.4309  0.2723 -0.4380
  166MOL    H8536715   3.839   6.604   5.910 -0.5244  1.0527  1.8936
  166MOL    H8636716   3.992   6.627   5.981  2.0205 -0.8786 -2.2148
  166MOL    H8736717   3.899   6.776   5.928  1.9508  0.6065 -0.0150
  166MOL    H8836718   3.790   6.843   5.556  1.2733 -1.3273 -0.7216
  166MOL    H8936719   3.746   6.791   5.715 -0.0212  1.4306 -0.3587
  166MOL    C9036720   3.770   6.631   5.568 -0.4010 -0.3375 -0.4049
  166MOL    C9136721   3.807   6.622   5.419 -0.0047 -0.4443  0.1713
  166MOL    O9236722   3.800   6.723   5.351  0.4839 -0.4953  0.0102
  166MOL    C9336723   3.844   6.483   5.366  0.3258  0.2248 -0.5819
  166MOL    C9436724   3.623   6.586   5.586 -0.2757  0.0886 -0.1179
  166MOL    H9536725   3.832   6.560   5.623  0.2400 -0.4368 -1.2448
  166MOL    H9636726   3.822   6.399   5.431  0.5430 -1.6428 -2.8747
  166MOL    H9736727   3.806   6.465   5.266 -0.7149  1.4198 -0.4134
  166MOL    H9836728   3.953   6.481   5.373  0.1669 -1.4280  1.8055
  166MOL    H9936729   3.594   6.559   5.688  1.6584 -1.9871 -0.0883
  166MOL   H10036730   3.627   6.496   5.525 -2.2998 -0.1447  0.0312
  166MOL   C10136731   3.509   6.666   5.512  0.4601  0.1173  0.9228
  166MOL   C10236732   3.508   6.808   5.555  1.0230  0.0044  0.0004
  166MOL   O10336733   3.553   6.901   5.484  0.3033  0.4541 -0.0554
  166MOL   C10436734   3.466   6.838   5.696  0.2104 -0.0312 -0.3708
  166MOL   C10536735   3.369   6.599   5.509 -1.0790 -0.5032 -0.0541
  166MOL   H10636736   3.532   6.673   5.406 -0.3498  0.2224  0.7493
  166MOL   H10736737   3.536   6.887   5.764  0.0290 -0.0100 -0.2004
  166MOL   H10836738   3.377   6.900   5.681 -0.4016 -0.7465  0.3134
  166MOL   H10936739   3.427   6.751   5.748 -0.1852  0.6433  0.4811
  166MOL   H11036740   3.314   6.625   5.599 -1.8640 -1.0928 -0.3542
  166MOL   H11136741   3.380   6.490   5.517  0.1260 -0.3864 -0.0340
  166MOL   C11236742   3.298   6.638   5.373 -0.0748 -0.2335  0.2746
  166MOL   C11336743   3.150   6.601   5.378 -0.9862  0.3885  0.1300
  166MOL   O11436744   3.118   6.484   5.404 -0.1940  0.8241  0.2436
  166MOL   C11536745   3.041   6.705   5.346  0.4732 -0.1444 -0.3130
  166MOL   C11636746   3.373   6.600   5.242  0.1872 -0.2883 -0.3294
  166MOL   H11736747   3.293   6.747   5.364 -0.1270 -0.2861 -0.3285
  166MOL   H11836748   2.945   6.659   5.370 -0.3445  1.1712 -1.0021
  166MOL   H11936749   3.056   6.789   5.413 -1.7335  2.7730 -3.3361
  166MOL   H12036750   3.049   6.745   5.245  1.0998 -0.6227 -0.4550
  166MOL   H12136751   3.303   6.561   5.169 -0.1855  1.2303 -0.7964
  166MOL   H12236752   3.440   6.517   5.267 -0.4668 -0.4925  0.8209
  166MOL   C12336753   3.437   6.720   5.165  0.0763 -0.8000 -1.0783
  166MOL   C12436754   3.340   6.799   5.080  0.3222 -0.2964  0.2627
  166MOL   O12536755   3.219   6.763   5.073  0.3901 -0.3654  0.5622
  166MOL   C12636756   3.378   6.934   5.018  0.1479  0.2943 -0.5875
  166MOL   C12736757   3.570   6.685   5.081  0.1831 -0.8575 -0.6030
  166MOL   H12836758   3.469   6.792   5.240  0.8208 -1.7331 -0.4991
  166MOL   H12936759   3.316   6.964   4.934  1.0310  0.5206 -1.1650
  166MOL   H13036760   3.377   7.006   5.099 -1.3731  1.6918 -1.8095
  166MOL   H13136761   3.478   6.934   4.975  0.4054 -1.0186 -0.0207
  166MOL   H13236762   3.633   6.635   5.154  0.1303  1.2457  0.9320
  166MOL   H13336763   3.613   6.782   5.054 -1.8789 -0.1514 -1.4705
  166MOL   C13436764   3.562   6.605   4.950  0.1438 -0.0976  0.1946
  166MOL   C13536765   3.481   6.476   4.968  0.0871  0.6306 -0.4974
  166MOL   O13636766   3.514   6.386   5.041  0.5184  0.1520 -0.0833
  166MOL   C13736767   3.353   6.461   4.887 -0.0446  0.3140  0.3617
  166MOL   C13836768   3.700   6.577   4.891 -0.3151 -0.0080 -0.1849
  166MOL   H13936769   3.523   6.665   4.867  0.7133 -2.4014 -1.7847
  166MOL   H14036770   3.266   6.510   4.931 -1.1703 -1.0715 -0.2707
  166MOL   H14136771   3.354   6.508   4.789 -1.2255  1.9382  1.1129
  166MOL   H14236772   3.332   6.354   4.877  1.6281 -0.1650  1.7715
  166MOL   H14336773   3.752   6.526   4.972 -0.8332 -2.2943 -1.2571
  166MOL   H14436774   3.751   6.673   4.888 -2.2865  1.1285  1.5429
  166MOL   C14536775   3.719   6.503   4.760  0.1481 -0.2660 -0.4278
  166MOL   C14636776   3.628   6.547   4.652  0.0994 -0.6488  0.1658
  166MOL   O14736777   3.552   6.464   4.603  0.2963  0.3449  0.1004
  166MOL   C14836778   3.634   6.695   4.612 -0.1477  0.0232 -0.4681
  166MOL   C14936779   3.724   6.349   4.785  0.5084 -0.6099 -0.6931
  166MOL   H15036780   3.820   6.517   4.721 -0.0907  0.2825 -0.8499
  166MOL   H15136781   3.631   6.707   4.504 -0.5239  2.0188 -0.2546
  166MOL   H15236782   3.551   6.750   4.657  0.6109 -0.7102  1.9051
  166MOL   H15336783   3.730   6.734   4.647 -1.0262  2.6648 -0.9136
  166MOL   H15436784   3.624   6.306   4.782  0.6012 -0.7682 -1.5988
  166MOL   H15536785   3.743   6.332   4.891 -3.6686  0.3302  0.2828
  166MOL   C15636786   3.821   6.281   4.686  0.1549 -0.2707 -0.2245
  166MOL   C15736787   3.777   6.133   4.659  0.2915 -0.3491  0.2088
  166MOL   O15836788   3.812   6.042   4.734 -0.4111  0.5991  0.0238
  166MOL   C15936789   3.694   6.099   4.537 -0.4621  0.1492 -0.1177
  166MOL   C16036790   3.970   6.299   4.726  0.3950  0.2261  0.1053
  166MOL   H16136791   3.806   6.335   4.592  0.7083  0.9483  0.3680
  166MOL   H16236792   3.742   6.107   4.439 -1.4377  1.7419 -0.4657
  166MOL   H16336793   3.661   5.995   4.542  0.4727 -0.2554 -1.8163
  166MOL   H16436794   3.607   6.162   4.522 -2.0382 -2.2942 -1.4882
  166MOL   H16536795   4.007   6.400   4.708  0.3257  0.3588  0.6833
  166MOL   H16636796   4.025   6.246   4.648  0.0150 -0.8698  0.5749
  166MOL   C16736797   4.016   6.238   4.860 -0.5289 -0.0092 -0.5593
  166MOL   C16836798   4.013   6.341   4.973  0.2757 -0.0045 -0.8080
  166MOL   O16936799   4.007   6.468   4.961  0.1157  0.2860  0.4805
  166MOL   C17036800   4.021   6.286   5.116 -0.1786  0.7108 -0.4084
  166MOL   C17136801   4.151   6.160   4.853  0.3274  0.4113 -0.8936
  166MOL   H17236802   3.939   6.168   4.893 -1.2655  0.7886 -0.5781
  166MOL   H17336803   4.037   6.372   5.181  1.1516  1.0954 -1.2319
  166MOL   H17436804   3.929   6.234   5.142  1.2249 -1.4292  0.4161
  166MOL   H17536805   4.105   6.217   5.116 -1.0402 -0.4147  1.7791
  166MOL   H17636806   4.217   6.177   4.939 -0.7058  2.3596 -0.4726
  166MOL   H17736807   4.210   6.195   4.769  0.5254 -1.1704 -1.4392
  166MOL   C17836808   4.129   6.001   4.853  0.8240 -0.6930 -0.4363
  166MOL   C17936809   4.089   5.946   4.990 -0.6126 -0.4256  0.8813
  166MOL   O18036810   4.174   5.892   5.064  0.0372 -0.0249  0.1994
  166MOL   C18136811   3.948   5.956   5.035 -0.0429  0.6165 -0.0808
  166MOL   C18236812   4.260   5.938   4.792 -0.4337  0.0199 -0.2630
  166MOL   H18336813   4.048   5.992   4.781  0.7054 -1.3715 -0.2136
  166MOL   H18436814   3.876   5.907   4.969 -2.5768  5.1612 -0.8919
  166MOL   H18536815   3.940   5.925   5.139 -1.2923  1.6039  0.1229
  166MOL   H18636816   3.908   6.056   5.051 -0.8124  0.6931 -2.3008
  166MOL   H18736817   4.350   5.941   4.853 -0.5315  2.0662 -0.1769
  166MOL   H18836818   4.295   5.997   4.707  1.3131 -0.5993  0.0090
  166MOL   C18936819   4.255   5.793   4.749  0.1787 -0.3299  0.1517
  166MOL   C19036820   4.392   5.752   4.703  0.0820  0.1003 -0.0223
  166MOL   O19136821   4.422   5.738   4.586 -0.4931  0.4241  0.0488
  166MOL   C19236822   4.487   5.729   4.818  0.4813  0.0222 -0.2578
  166MOL   C19336823   4.145   5.762   4.651 -0.3919 -0.0549 -0.9277
  166MOL   H19436824   4.240   5.717   4.826  1.5622  0.4544  1.2137
  166MOL   H19536825   4.435   5.707   4.911  2.9964 -0.4746  1.0865
  166MOL   H19636826   4.545   5.639   4.799  1.7088  0.0846  2.8471
  166MOL   H19736827   4.559   5.809   4.838 -1.0469  0.7305  2.6220
  166MOL   H19836828   4.187   5.700   4.572  3.4603 -0.7792  1.5321
  166MOL   H19936829   4.116   5.852   4.596 -0.7213 -1.8211 -3.7531
  166MOL   C20036830   4.018   5.711   4.714  0.0443 -0.3030 -0.0207
  166MOL   C20136831   4.030   5.588   4.806 -0.2945  0.0971 -0.4746
  166MOL   O20236832   4.054   5.480   4.753  0.0989 -0.0768  0.4644
  166MOL   C20336833   3.997   5.594   4.948 -0.3712 -0.1191 -0.7277
  166MOL   C20436834   3.921   5.679   4.593  0.3079 -0.2556  0.1147
  166MOL   H20536835   3.960   5.784   4.769 -1.3147 -1.5920  0.3000
  166MOL   H20636836   3.893   5.617   4.969 -0.1772  0.2826 -0.1616
  166MOL   H20736837   4.017   5.509   5.013  0.4579  0.6737  0.0896
  166MOL   H20836838   4.043   5.686   4.986 -0.5549  0.0479 -0.9140
  166MOL   H20936839   3.983   5.617   4.528 -1.5827 -0.8954 -1.1378
  166MOL   H21036840   3.903   5.768   4.533 -3.7817 -1.0923 -0.0591
  166MOL   C21136841   3.776   5.613   4.630 -0.5685  0.2370  0.3593
  166MOL   C21236842   3.720   5.543   4.506  0.5384 -0.4208 -1.1146
  166MOL   O21336843   3.752   5.572   4.393 -0.4171  0.1031  0.1167
  166MOL   C21436844   3.620   5.433   4.532 -0.2346 -0.6737  0.6618
  166MOL   C21536845   3.681   5.713   4.691  0.2629  0.2971 -0.1621
  166MOL   H21636846   3.801   5.533   4.701 -1.2444 -0.0111  0.3249
  166MOL   H21736847   3.555   5.418   4.446 -0.9436 -0.4127  1.1405
  166MOL   H21836848   3.679   5.343   4.550 -0.3050 -0.7458  0.5334
  166MOL   H21936849   3.555   5.455   4.617 -0.6589 -0.3329  0.2456
  166MOL   H22036850   3.650   5.791   4.621 -1.9723  0.9438  1.5019
  166MOL   H22136851   3.714   5.754   4.787 -1.8064  1.0366  0.2671
  166MOL   H22236852   3.588   5.661   4.714  0.5433 -0.3700 -0.5312
  167MOL     C136853   4.631   5.936   5.363  1.2322 -0.0593  0.6947
  167MOL     C236854   4.550   5.798   5.373 -1.1892  0.4156 -0.1992
  167MOL     O336855   4.558   5.715   5.464 -0.5112  0.1591 -0.0751
  167MOL     C436856   4.446   5.764   5.265 -0.4640 -0.5118  1.2210
  167MOL     C536857   4.772   5.920   5.315  0.6777  0.9287  0.1852
  167MOL     H636858   4.573   6.010   5.307  2.9944 -0.0354 -1.1512
  167MOL     H736859   4.478   5.683   5.200  0.4523  0.3462  0.5891
  167MOL     H836860   4.345   5.746   5.302 -1.1732 -0.8261 -0.8426
  167MOL     H936861   4.444   5.851   5.200  2.6950 -1.2103  0.0877
  167MOL    H1036862   4.793   5.814   5.297  1.4996  1.0222  0.5818
  167MOL    H1136863   4.841   5.951   5.394  2.1764  0.6346 -0.9783
  167MOL    H1236864   4.629   5.977   5.464 -1.2196  2.2785 -0.2444
  167MOL    C1336865   4.822   5.984   5.181 -0.2507 -0.5934  0.0206
  167MOL    C1436866   4.711   5.966   5.071 -0.0351 -0.5211  0.5342
  167MOL    O1536867   4.700   5.862   5.011 -0.7411 -0.1311  0.3558
  167MOL    C1636868   4.613   6.080   5.042  0.5256 -0.4323 -0.5323
  167MOL    C1736869   4.958   5.930   5.142 -0.3750  0.0832  0.0359
  167MOL    H1836870   4.832   6.091   5.198  1.6889 -0.7619  0.0646
  167MOL    H1936871   4.514   6.050   5.006 -0.2740  0.0339  1.2143
  167MOL    H2036872   4.601   6.138   5.133  2.0676  0.2850 -0.7770
  167MOL    H2136873   4.650   6.152   4.969  1.2296  0.1846  0.4294
  167MOL    H2236874   4.934   5.834   5.096 -0.9160  0.7207 -1.0379
  167MOL    H2336875   5.024   5.910   5.227  0.2454 -1.9172 -0.8773
  167MOL    C2436876   5.034   6.019   5.033 -0.1241  0.4316  0.7960
  167MOL    C2536877   5.134   5.940   4.950  0.1563 -0.0070 -0.3968
  167MOL    O2636878   5.250   5.985   4.934 -0.0735  0.9522  0.5053
  167MOL    C2736879   5.089   5.819   4.875 -0.5210  0.6432 -0.5981
  167MOL    C2836880   5.093   6.163   5.085  0.6336 -0.0000  0.5472
  167MOL    H2936881   4.955   6.041   4.962  1.4626 -3.1716 -2.2639
  167MOL    H3036882   5.101   5.837   4.768 -2.6988 -0.1985 -1.0098
  167MOL    H3136883   5.139   5.728   4.908  1.2437  0.9561 -2.3040
  167MOL    H3236884   4.981   5.805   4.888 -0.3900 -0.2516 -0.4538
  167MOL    H3336885   5.018   6.191   5.159 -1.2837 -3.2993 -0.0247
  167MOL    H3436886   5.095   6.239   5.007  0.2675 -0.9031 -0.3475
  167MOL    C3536887   5.230   6.174   5.162 -0.5612  0.3109  0.1420
  167MOL    C3636888   5.230   6.063   5.268  0.2940  0.1447 -0.2182
  167MOL    O3736889   5.173   6.083   5.374 -0.3418 -0.1293  0.3706
  167MOL    C3836890   5.300   5.938   5.229  0.0487 -0.3068 -0.4241
  167MOL    C3936891   5.247   6.324   5.222 -0.0883  0.1953  0.4187
  167MOL    H4036892   5.310   6.163   5.087 -0.0860  0.1003  0.6773
  167MOL    H4136893   5.384   5.967   5.165  0.1683 -0.5823 -0.3879
  167MOL    H4236894   5.336   5.895   5.322 -0.6008 -2.2306 -1.0353
  167MOL    H4336895   5.243   5.854   5.188  3.3164 -2.3654 -0.9160
  167MOL    H4436896   5.157   6.347   5.280 -0.9157  1.2183 -1.2361
  167MOL    H4536897   5.233   6.392   5.138  0.1425  0.5722  0.6823
  167MOL    C4636898   5.375   6.377   5.296 -0.4048 -0.3788  0.4649
  167MOL    C4736899   5.501   6.329   5.231  0.0416  0.8282  0.4862
  167MOL    O4836900   5.511   6.214   5.186 -0.0352  0.3981 -0.1736
  167MOL    C4936901   5.620   6.416   5.242 -0.7590  0.0736  0.5962
  167MOL    C5036902   5.371   6.335   5.449 -1.0650 -0.1869 -0.5717
  167MOL    H5136903   5.378   6.485   5.305  0.6029 -0.4101  0.5862
  167MOL    H5236904   5.698   6.371   5.181 -3.1116 -0.9892 -1.7224
  167MOL    H5336905   5.577   6.504   5.193  0.7482  0.5724  0.1507
  167MOL    H5436906   5.660   6.436   5.341  1.6318 -0.6746 -0.1931
  167MOL    H5536907   5.471   6.349   5.492 -1.4321  2.0472 -0.3781
  167MOL    H5636908   5.352   6.229   5.468  0.4561 -0.8841 -2.7897
  167MOL    C5736909   5.279   6.412   5.547 -0.0402  1.3050  0.6306
  167MOL    C5836910   5.320   6.559   5.543  0.3339 -0.1430  0.3274
  167MOL    O5936911   5.438   6.595   5.576 -0.2928 -0.1063  0.1831
  167MOL    C6036912   5.208   6.666   5.522  0.9965 -0.1228  0.6607
  167MOL    C6136913   5.266   6.351   5.690  0.1821 -0.1388 -0.1525
  167MOL    H6236914   5.179   6.410   5.503  0.1613  1.5647  0.1579
  167MOL    H6336915   5.246   6.745   5.457 -1.0406  0.1320 -0.2562
  167MOL    H6436916   5.112   6.633   5.481  0.7306 -1.0640  2.0233
  167MOL    H6536917   5.181   6.720   5.612 -1.2279 -1.8429  1.0798
  167MOL    H6636918   5.224   6.424   5.759  1.4972  0.5165 -0.0155
  167MOL    H6736919   5.367   6.340   5.732  0.6770  1.4404 -0.8936
  167MOL    C6836920   5.182   6.223   5.691  0.6198  0.0131 -0.3563
  167MOL    C6936921   5.029   6.242   5.697 -1.0165  0.0424  0.2103
  167MOL    O7036922   4.983   6.344   5.759 -0.3838  0.2930 -0.1126
  167MOL    C7136923   4.936   6.144   5.624  0.1160 -0.8146  0.4030
  167MOL    C7236924   5.227   6.124   5.802  0.5262  0.3706  0.1044
  167MOL    H7336925   5.196   6.164   5.600  1.0935 -0.5869  0.1039
  167MOL    H7436926   4.856   6.203   5.577 -0.9957 -3.1148 -0.6831
  167MOL    H7536927   4.983   6.084   5.547 -0.9618 -1.0566 -0.0797
  167MOL    H7636928   4.898   6.083   5.706 -0.4254  0.2056  0.9222
  167MOL    H7736929   5.335   6.126   5.816  0.3705  1.7105  1.2920
  167MOL    H7836930   5.208   6.026   5.760  0.2744 -0.0199  1.1079
  167MOL    C7936931   5.160   6.130   5.942  0.2080 -0.4377  0.2939
  167MOL    C8036932   5.236   6.238   6.027 -0.1237 -0.6060  0.0261
  167MOL    O8136933   5.356   6.236   6.044 -0.1896  0.1977  0.1324
  167MOL    C8236934   5.167   6.365   6.073 -0.3387 -0.4905  0.4481
  167MOL    C8336935   5.173   5.988   6.003 -0.1106  0.2764  0.2821
  167MOL    H8436936   5.057   6.164   5.944  0.1266 -0.6950  0.4469
  167MOL    H8536937   5.081   6.352   6.138 -2.5841  0.9442 -2.1169
  167MOL    H8636938   5.233   6.431   6.129 -1.5055  0.4054  0.7908
  167MOL    H8736939   5.118   6.419   5.992 -1.1257 -0.4452  0.9534
  167MOL    H8836940   5.278   5.963   5.987 -0.3650 -0.7386  0.1789
  167MOL    H8936941   5.123   5.921   5.934  1.1801  0.9816 -1.3766
  167MOL    C9036942   5.128   5.958   6.148 -0.7365 -0.1476 -0.3422
  167MOL    C9136943   5.232   6.013   6.251 -0.2217  1.4152 -0.4085
  167MOL    O9236944   5.201   6.112   6.320 -0.8838  0.1027 -0.0977
  167MOL    C9336945   5.373   5.947   6.256 -0.6526 -0.0403 -0.3801
  167MOL    C9436946   5.076   5.819   6.180  0.6649 -0.0890 -0.3464
  167MOL    H9536947   5.035   6.015   6.152  0.1288  1.1950  2.3322
  167MOL    H9636948   5.376   5.849   6.304  0.2457  1.7270  3.3260
  167MOL    H9736949   5.403   5.940   6.152  1.9710 -1.9298  0.4492
  167MOL    H9836950   5.435   6.016   6.313 -1.5726  1.5080 -1.2120
  167MOL    H9936951   5.149   5.740   6.165  1.4325  1.2326 -4.1426
  167MOL   H10036952   5.005   5.800   6.099 -0.4542 -1.8707  1.0351
  167MOL   C10136953   5.019   5.807   6.323  0.6482 -0.0386  0.1993
  167MOL   C10236954   5.125   5.755   6.424 -0.2603 -0.3478 -0.4388
  167MOL   O10336955   5.176   5.643   6.403  0.0886  0.4252  0.6508
  167MOL   C10436956   5.152   5.828   6.553 -0.1376 -0.6511  0.5681
  167MOL   C10536957   4.882   5.729   6.334  0.1205  0.1055 -0.2194
  167MOL   H10636958   5.002   5.908   6.361  0.7601 -0.8888  2.6388
  167MOL   H10736959   5.081   5.907   6.578  2.4830  1.9507  0.1011
  167MOL   H10836960   5.161   5.760   6.638 -1.2213  0.3956  1.5343
  167MOL   H10936961   5.244   5.885   6.543 -0.2006 -0.7327 -0.4793
  167MOL   H11036962   4.897   5.631   6.380  2.6203 -0.1755 -1.5770
  167MOL   H11136963   4.836   5.721   6.235  1.2764 -0.3163 -0.7310
  167MOL   C11236964   4.771   5.800   6.433 -0.2167  0.3411  0.3575
  167MOL   C11336965   4.650   5.700   6.442 -0.1548 -0.2074  0.1402
  167MOL   O11436966   4.630   5.605   6.371  0.0234 -0.1573  0.2787
  167MOL   C11536967   4.555   5.720   6.558  0.0709 -0.5055 -0.2302
  167MOL   C11636968   4.737   5.947   6.387  0.4912 -0.3656 -0.3790
  167MOL   H11736969   4.813   5.813   6.533 -0.8371  0.4208  0.6071
  167MOL   H11836970   4.531   5.623   6.602  2.7943 -0.5351  1.3197
  167MOL   H11936971   4.594   5.781   6.639 -0.0106 -1.1545  0.3009
  167MOL   H12036972   4.472   5.770   6.508  0.3294 -0.6891 -0.8544
  167MOL   H12136973   4.630   5.958   6.402  0.2177 -1.9546 -1.0943
  167MOL   H12236974   4.761   5.965   6.282  2.0797  2.1000  0.3490
  167MOL   C12336975   4.796   6.044   6.486 -0.0669 -0.4399 -0.6090
  167MOL   C12436976   4.724   6.056   6.618 -0.1777  0.2631 -0.2909
  167MOL   O12536977   4.614   6.112   6.620 -0.1139 -0.2939  0.4461
  167MOL   C12636978   4.789   5.996   6.739  0.5092 -0.7794 -0.5369
  167MOL   C12736979   4.856   6.177   6.436  0.5489  0.3722  0.6290
  167MOL   H12836980   4.893   6.009   6.520  0.4339  1.4015 -0.0386
  167MOL   H12936981   4.864   6.067   6.773  2.4985 -2.6629 -0.8567
  167MOL   H13036982   4.717   5.963   6.814  1.6079 -1.3347  0.3058
  167MOL   H13136983   4.840   5.899   6.729  0.1196 -1.1593  0.9971
  167MOL   H13236984   4.933   6.165   6.360  0.0699 -2.1648  0.4990
  167MOL   H13336985   4.920   6.223   6.512  2.8030 -0.5694 -0.6365
  167MOL   C13436986   4.749   6.279   6.384  0.1797 -0.0157 -0.2864
  167MOL   C13536987   4.704   6.244   6.242 -0.5428 -0.4038 -0.3971
  167MOL   O13636988   4.790   6.227   6.154 -0.7705  0.1578  0.1608
  167MOL   C13736989   4.557   6.232   6.216 -0.1823  0.3962 -0.1314
  167MOL   C13836990   4.815   6.421   6.386  0.2267 -0.3283 -0.0992
  167MOL   H13936991   4.659   6.290   6.444 -1.7436 -0.1743 -3.0209
  167MOL   H14036992   4.541   6.125   6.229  0.8552  0.2450 -0.0804
  167MOL   H14136993   4.502   6.279   6.298 -0.2330  0.0490  0.0351
  167MOL   H14236994   4.531   6.260   6.114  1.1935 -0.8644 -0.8421
  167MOL   H14336995   4.755   6.482   6.318  2.5654  1.2957 -0.8012
  167MOL   H14436996   4.915   6.415   6.342  1.1817 -2.5634  2.2619
  167MOL   C14536997   4.815   6.489   6.527  0.5907 -0.6906  0.6045
  167MOL   C14636998   4.675   6.530   6.575 -0.4111 -0.5493 -0.3658
  167MOL   O14736999   4.583   6.540   6.491  0.0302  0.4301  0.4473
  167MOL   C14837000   4.649   6.553   6.723  0.4185  0.2580 -0.2190
  167MOL   C14937001   4.921   6.601   6.539 -0.4343  0.0045 -0.1707
  167MOL   H15037002   4.850   6.412   6.595  1.0377 -2.6895 -1.7922
  167MOL   H15137003   4.552   6.518   6.760  0.3880 -0.7332 -1.2232
  167MOL   H15237004   4.720   6.496   6.784 -1.0802  1.3203  2.6538
  167MOL   H15337005   4.652   6.660   6.745 -2.1718  0.3371 -0.1447
  167MOL   H15437006   4.897   6.669   6.620 -0.5138  0.5096 -0.6201
  167MOL   H15537007   4.907   6.674   6.460  0.3678  1.1652  0.7471
  167MOL   C15637008   5.067   6.544   6.542  0.4417 -0.1281 -0.4609
  167MOL   C15737009   5.090   6.494   6.684  0.4212 -0.9390 -0.1574
  167MOL   O15837010   5.099   6.375   6.716 -0.3333  0.4873  0.5305
  167MOL   C15937011   5.109   6.596   6.797 -0.0066 -0.0809  0.3064
  167MOL   C16037012   5.171   6.648   6.489 -0.0571  0.1234  0.2278
  167MOL   H16137013   5.073   6.457   6.477  0.9406  0.5152 -1.2917
  167MOL   H16237014   5.205   6.648   6.786 -0.6673  0.9898 -0.3895
  167MOL   H16337015   5.029   6.669   6.792  1.5756  1.6808 -0.1199
  167MOL   H16437016   5.114   6.545   6.894  0.6733 -1.2101 -0.3106
  167MOL   H16537017   5.157   6.734   6.554  0.2226 -2.4966  3.9284
  167MOL   H16637018   5.145   6.682   6.389 -1.0534 -1.5231 -0.0972
  167MOL   C16737019   5.321   6.601   6.488 -0.8273 -0.2045  0.6826
  167MOL   C16837020   5.400   6.726   6.453  0.4774  0.2124  0.1485
  167MOL   O16937021   5.355   6.808   6.369  0.1503  0.1937 -0.4603
  167MOL   C17037022   5.525   6.744   6.531  0.2070 -0.6633 -0.4091
  167MOL   C17137023   5.347   6.490   6.372 -0.2204  0.3060  0.4135
  167MOL   H17237024   5.339   6.567   6.590 -2.9371 -2.1855  0.4355
  167MOL   H17337025   5.616   6.737   6.472  1.1078 -2.7506  1.1520
  167MOL   H17437026   5.525   6.836   6.590  3.8149 -0.2185 -0.9937
  167MOL   H17537027   5.536   6.659   6.600 -0.1495 -1.2925 -1.1136
  167MOL   H17637028   5.355   6.541   6.276  0.8231 -0.8611 -0.1301
  167MOL   H17737029   5.252   6.438   6.362 -0.5806  0.8713  0.8858
  167MOL   C17837030   5.468   6.391   6.392 -0.3037  0.3744  0.5664
  167MOL   C17937031   5.465   6.331   6.526 -0.5791 -0.0326 -0.9123
  167MOL   O18037032   5.531   6.376   6.620 -0.4670  0.3144  0.0247
  167MOL   C18137033   5.385   6.202   6.546 -0.2152 -0.3640  0.1427
  167MOL   C18237034   5.610   6.448   6.351  0.1861  0.1561  0.2328
  167MOL   H18337035   5.445   6.311   6.322  3.8896 -1.6554  1.3520
  167MOL   H18437036   5.287   6.210   6.498  0.3744 -2.1304 -1.4274
  167MOL   H18537037   5.436   6.123   6.491 -0.4955 -1.5924  1.6027
  167MOL   H18637038   5.381   6.174   6.651  1.5128  0.3436  0.4110
  167MOL   H18737039   5.640   6.534   6.412  0.6071 -0.1795  0.4999
  167MOL   H18837040   5.595   6.508   6.261  0.8451 -0.9108 -0.5914
  167MOL   C18937041   5.729   6.351   6.315  0.1482  0.4491  0.5499
  167MOL   C19037042   5.686   6.218   6.245 -0.0131  0.0891 -0.0935
  167MOL   O19137043   5.660   6.116   6.311 -0.5751 -0.1162 -0.4117
  167MOL   C19237044   5.677   6.228   6.097  0.2561  0.0893  0.1621
  167MOL   C19337045   5.814   6.311   6.447  0.4363  0.0457 -0.0288
  167MOL   H19437046   5.795   6.396   6.241 -0.7367 -0.9897 -1.1456
  167MOL   H19537047   5.774   6.263   6.061 -0.1634  4.2475  2.7972
  167MOL   H19637048   5.653   6.136   6.043 -0.7607  0.9010 -0.7993
  167MOL   H19737049   5.601   6.304   6.080  0.0583 -0.0555  0.3790
  167MOL   H19837050   5.877   6.225   6.424  0.3192 -0.3876  1.2621
  167MOL   H19937051   5.743   6.268   6.518 -1.2060  0.8226 -1.1530
  167MOL   C20037052   5.890   6.431   6.513 -0.2575  0.3358 -0.7584
  167MOL   C20137053   5.967   6.509   6.404  0.2027  0.2083 -0.3027
  167MOL   O20237054   6.059   6.448   6.352 -0.2241  0.2266 -0.3193
  167MOL   C20337055   5.926   6.640   6.353 -0.3608  0.6919 -0.3351
  167MOL   C20437056   5.982   6.372   6.621 -0.2096  0.2183  0.1004
  167MOL   H20537057   5.818   6.500   6.558 -1.2650 -0.2137 -1.5116
  167MOL   H20637058   6.013   6.705   6.346  0.5204 -0.7211 -3.4546
  167MOL   H20737059   5.899   6.637   6.247  2.2814  1.9377 -1.0749
  167MOL   H20837060   5.850   6.693   6.410  0.2902  0.8726  0.3698
  167MOL   H20937061   6.053   6.453   6.640  0.1911  0.7317 -3.3574
  167MOL   H21037062   6.049   6.300   6.575 -1.6908 -0.9257 -0.2860
  167MOL   C21137063   5.918   6.323   6.755  0.5255  0.1389  0.1120
  167MOL   C21237064   5.850   6.443   6.829  0.5461  0.0872 -0.0400
  167MOL   O21337065   5.911   6.540   6.871  0.0049 -0.5286 -0.4022
  167MOL   C21437066   5.704   6.422   6.874 -0.7550 -0.4495 -0.6858
  167MOL   C21537067   6.019   6.251   6.844 -0.0660  0.0151  0.3305
  167MOL   H21637068   5.840   6.252   6.730 -0.6868  1.9175 -1.2217
  167MOL   H21737069   5.642   6.510   6.858 -0.0674 -0.2656 -2.5279
  167MOL   H21837070   5.660   6.335   6.827  1.9255 -2.4591  0.3967
  167MOL   H21937071   5.706   6.373   6.971 -2.6167 -1.9091 -1.3549
  167MOL   H22037072   6.086   6.327   6.884  1.2948 -1.5133  1.0548
  167MOL   H22137073   6.076   6.177   6.787 -1.9510 -0.0790 -1.4744
  167MOL   H22237074   5.974   6.202   6.931  0.9969 -2.2739 -0.3492
  168MOL     C137075   6.768   7.680   5.520  0.6421 -0.0119  0.1742
  168MOL     C237076   6.659   7.753   5.610  0.2260 -0.3145  0.1330
  168MOL     O337077   6.628   7.705   5.716  0.0814 -0.2816  0.1172
  168MOL     C437078   6.602   0.039   5.567 -0.3432 -0.4669 -0.3880
  168MOL     C537079   6.781   7.526   5.546 -0.8292 -0.1699 -0.5173
  168MOL     H637080   6.742   7.702   5.417 -0.2060  1.8922  0.7729
  168MOL     H737081   6.657   0.084   5.485 -1.0342 -1.4165 -1.3833
  168MOL     H837082   6.496   0.033   5.540 -0.0256 -1.1534 -1.5040
  168MOL     H937083   6.608   0.115   5.646  2.2067 -2.4184  1.3789
  168MOL    H1037084   6.683   7.478   5.549  0.2736 -2.3491  3.1694
  168MOL    H1137085   6.816   7.515   5.648 -0.0152  1.4283 -0.6076
  168MOL    H1237086   6.857   7.736   5.548 -0.3613  1.5722  0.2469
  168MOL    C1337087   6.878   7.454   5.448 -0.0162  0.8808  0.0438
  168MOL    C1437088   6.851   7.303   5.439 -0.1378 -0.2220  0.2259
  168MOL    O1537089   6.842   7.251   5.330  0.5019 -0.0956 -0.0397
  168MOL    C1637090   6.854   7.227   5.569  0.5623  0.0381 -0.2394
  168MOL    C1737091   7.028   7.490   5.464 -0.3367 -0.6220  0.3684
  168MOL    H1837092   6.852   7.484   5.346  0.8809  1.4393 -0.0259
  168MOL    H1937093   6.908   7.133   5.556 -1.0397 -0.9440  0.0448
  168MOL    H2037094   6.901   7.281   5.650 -0.6687 -2.1787  2.0342
  168MOL    H2137095   6.753   7.208   5.605  0.2838 -1.4304 -1.7374
  168MOL    H2237096   7.087   7.407   5.425 -0.1409 -0.0978 -0.4632
  168MOL    H2337097   7.065   7.501   5.566  0.3851  2.6596 -0.2090
  168MOL    C2437098   7.078   7.622   5.390  0.1199 -1.3154 -0.7773
  168MOL    C2537099   7.047   7.630   5.243 -0.2091  0.5863  0.1864
  168MOL    O2637100   6.989   7.731   5.198  0.2211  0.0773 -0.2927
  168MOL    C2737101   7.093   7.522   5.153  0.4466  0.2428 -0.7392
  168MOL    C2837102   7.227   7.643   5.420 -0.0992 -0.0154  0.1182
  168MOL    H2937103   7.017   7.706   5.421 -1.3963 -2.3708 -0.8132
  168MOL    H3037104   7.094   7.552   5.048  0.8081  2.4377 -0.1273
  168MOL    H3137105   7.190   7.482   5.182 -0.0680  1.7070  3.2173
  168MOL    H3237106   7.019   7.442   5.167 -1.1976  2.1663  2.0745
  168MOL    H3337107   7.282   7.706   5.350 -0.5268  0.2785  0.0455
  168MOL    H3437108   7.273   7.546   5.403 -3.3220 -1.5761 -0.0024
  168MOL    C3537109   7.270   7.696   5.551  0.5179 -0.4756 -0.1931
  168MOL    C3637110   7.202   7.831   5.583 -0.3025  0.2695  0.1034
  168MOL    O3737111   7.215   0.084   5.506  0.6470  0.0875  0.5664
  168MOL    C3837112   7.099   0.002   5.697  0.0196  0.1047 -0.5377
  168MOL    C3937113   7.424   7.721   5.550  0.2184  0.1452 -0.4348
  168MOL    H4037114   7.246   7.628   5.632  2.6065 -0.4681  0.4726
  168MOL    H4137115   7.110   0.106   5.725  1.3010 -0.7231  2.1345
  168MOL    H4237116   6.998   7.821   5.663 -0.6437  2.4721 -0.2127
  168MOL    H4337117   7.135   7.777   5.775 -1.8643  0.1991  0.4339
  168MOL    H4437118   7.448   7.827   5.539  0.5383  0.4629  2.7545
  168MOL    H4537119   7.479   7.659   5.479  0.8524 -0.7285  0.7970
  168MOL    C4637120   7.507   7.693   5.684 -0.0339  0.3788  0.1150
  168MOL    C4737121   7.515   7.540   5.712  0.1057 -0.1652  0.0551
  168MOL    O4837122   7.415   7.481   5.752 -0.1538 -0.1861 -0.2409
  168MOL    C4937123   7.639   7.467   5.676  0.3243 -0.6041  0.5529
  168MOL    C5037124   7.467   7.788   5.800  0.2216  0.0722  0.5051
  168MOL    H5137125   7.608   7.726   5.664  0.0447  0.5194  0.7155
  168MOL    H5237126   7.655   7.385   5.745  0.3674 -1.2345 -0.1980
  168MOL    H5337127   7.627   7.433   5.573 -0.8428  0.7175  0.2290
  168MOL    H5437128   7.729   7.528   5.670  0.3843 -0.7603 -0.1468
  168MOL    H5537129   7.369   7.758   5.838  0.7508  0.4614  2.2069
  168MOL    H5637130   7.458   0.044   5.753 -0.8933 -1.3837 -2.4377
  168MOL    C5737131   7.575   7.795   5.911 -0.3672  0.5513 -0.1925
  168MOL    C5837132   7.574   7.685   6.018 -0.1788 -0.1213 -0.1878
  168MOL    O5937133   7.475   7.643   6.071  0.3407  0.2727 -0.4696
  168MOL    C6037134   7.701   7.613   6.052 -0.6663 -0.0761 -0.2214
  168MOL    C6137135   7.589   0.089   5.976  0.2299  0.1201  0.1119
  168MOL    H6237136   7.669   7.766   5.864 -0.2176 -0.9220  0.9766
  168MOL    H6337137   7.685   7.505   6.056 -2.0281  0.2130  2.6320
  168MOL    H6437138   7.793   7.633   5.997  0.1021 -0.1773  1.0177
  168MOL    H6537139   7.723   7.639   6.155 -0.1111 -2.8320  0.3758
  168MOL    H6637140   7.589   0.174   5.908 -1.5951 -0.4089 -0.5746
  168MOL    H6737141   7.691   0.096   6.013 -0.1373  1.0188  0.9624
  168MOL    C6837142   7.487   0.117   6.096  0.2461  0.5205 -0.6033
  168MOL    C6937143   7.341   0.116   6.039 -0.0678 -0.5566 -0.2367
  168MOL    O7037144   7.315   0.190   5.950 -0.0431  0.3050  0.5683
  168MOL    C7137145   7.233   0.036   6.108 -0.4656  0.4824 -0.7307
  168MOL    C7237146   7.506   0.253   6.170 -0.0797 -0.6572  0.2547
  168MOL    H7337147   7.488   0.039   6.171  1.4023 -0.0349 -1.1861
  168MOL    H7437148   7.271   7.775   6.106  0.4504  0.7865  0.4872
  168MOL    H7537149   7.210   0.086   6.202  0.4577 -0.4437  0.0175
  168MOL    H7637150   7.144   0.056   6.048 -0.8034  2.2371  0.3446
  168MOL    H7737151   7.420   0.300   6.218 -0.5909  0.5571 -1.7696
  168MOL    H7837152   7.526   0.329   6.094  1.3058 -2.5353 -1.2938
  168MOL    C7937153   7.620   0.252   6.280 -0.7836  0.7389 -0.1239
  168MOL    C8037154   7.570   0.266   6.425  0.5581  0.6644  0.5619
  168MOL    O8137155   7.475   0.341   6.456  0.0440  0.0823  0.3285
  168MOL    C8237156   7.655   0.208   6.536  0.3695 -0.6362 -0.1280
  168MOL    C8337157   7.737   0.348   6.243 -0.3060 -0.3850 -0.1596
  168MOL    H8437158   7.671   0.156   6.284 -1.1336  0.5393 -0.4574
  168MOL    H8537159   7.583   0.171   6.609 -1.3413 -1.4532 -2.1860
  168MOL    H8637160   7.727   0.137   6.496  1.4271 -0.9936  2.3581
  168MOL    H8737161   7.723   0.286   6.570 -0.0391  1.5589 -4.0335
  168MOL    H8837162   7.809   0.360   6.324 -0.3554 -0.4582 -0.1059
  168MOL    H8937163   7.687   0.443   6.225  1.3118  0.5883  0.3562
  168MOL    C9037164   7.815   0.319   6.116 -0.1861  0.0379  0.6206
  168MOL    C9137165   0.065   0.198   6.125  0.3337  0.5390  0.0033
  168MOL    O9237166   0.078   0.136   6.232 -0.1321  0.0704  0.7212
  168MOL    C9337167   0.119   0.151   5.993 -0.2525  0.3623  0.6785
  168MOL    C9437168   0.051   0.443   6.049  0.0227 -0.1525  0.2778
  168MOL    H9537169   7.739   0.292   6.043 -0.1306 -0.1613  0.6358
  168MOL    H9637170   0.094   0.213   5.907 -0.2007 -3.1281 -1.9802
  168MOL    H9737171   0.227   0.140   5.997 -0.0320  0.8107 -2.6436
  168MOL    H9837172   0.094   0.046   5.975  1.5611  0.2735 -1.4821
  168MOL    H9937173   7.831   0.532   6.041  2.9870  2.0334  0.3446
  168MOL   H10037174   0.080   0.414   5.948 -0.4182 -0.2568  0.1841
  168MOL   C10137175   0.182   0.474   6.125 -0.5464  0.1418  0.0148
  168MOL   C10237176   0.151   0.525   6.271  0.2642 -0.3844 -0.2369
  168MOL   O10337177   0.078   0.621   6.292 -0.9112  0.2501 -1.0289
  168MOL   C10437178   0.220   0.453   6.386  0.1257 -0.5461 -0.1972
  168MOL   C10537179   0.273   0.565   6.047  0.6114 -0.1583 -0.3812
  168MOL   H10637180   0.244   0.387   6.147 -0.4254  0.6454  1.6934
  168MOL   H10737181   0.174   0.355   6.400  0.3931 -0.9606 -2.1739
  168MOL   H10837182   0.326   0.444   6.363 -0.0312 -0.1336 -1.0897
  168MOL   H10937183   0.207   0.513   6.476  0.8207 -0.2569 -0.2893
  168MOL   H11037184   0.249   0.669   6.067 -3.3081 -0.8383 -1.0725
  168MOL   H11137185   0.243   0.547   5.944  2.6787 -0.7461 -0.9041
  168MOL   C11237186   0.424   0.540   6.060  0.1940 -0.9811  0.1448
  168MOL   C11337187   0.464   0.401   6.016 -0.4118  0.2084  0.7955
  168MOL   O11437188   0.495   0.315   6.100  0.0350 -0.4680 -0.1066
  168MOL   C11537189   0.466   0.366   5.875  0.4558 -0.0113  0.3448
  168MOL   C11637190   0.503   0.601   6.179  0.5232  0.5856  0.6529
  168MOL   H11737191   0.453   0.598   5.973 -2.1183  0.9061  0.5687
  168MOL   H11837192   0.389   0.419   5.818  0.8676 -0.0638 -0.2654
  168MOL   H11937193   0.560   0.389   5.825  0.5680 -0.7852  0.1931
  168MOL   H12037194   0.455   0.259   5.861 -0.9315  0.2458 -0.6038
  168MOL   H12137195   0.517   0.521   6.251 -1.4994  0.3290  0.7883
  168MOL   H12237196   0.445   0.675   6.232  1.0433  1.8296 -0.4718
  168MOL   C12337197   0.645   0.646   6.131  0.9675  0.7619  0.4955
  168MOL   C12437198   0.731   0.644   6.255  0.2201 -0.5681 -0.0385
  168MOL   O12537199   0.750   0.748   6.314 -0.0174 -0.1094  0.1286
  168MOL   C12637200   0.785   0.512   6.309 -0.4938 -0.6979  0.2877
  168MOL   C12737201   0.629   0.783   6.057  0.1915 -0.7340  0.6817
  168MOL   H12837202   0.678   0.568   6.063 -1.8395 -0.6606  0.7125
  168MOL   H12937203   0.849   0.462   6.236  1.3884  3.5619 -1.1601
  168MOL   H13037204   0.845   0.525   6.399 -0.4843  2.2912 -0.1021
  168MOL   H13137205   0.702   0.442   6.315 -1.1781  0.1248  0.4559
  168MOL   H13237206   0.671   0.866   6.115 -1.1005  0.9345 -0.7128
  168MOL   H13337207   0.528   0.817   6.036  1.0399  0.6163 -1.4178
  168MOL   C13437208   0.716   0.790   5.923  0.6692  0.5187 -0.1603
  168MOL   C13537209   0.750   0.936   5.893 -0.1771  0.6838  0.4734
  168MOL   O13637210   0.870   0.967   5.889  0.8289  0.2493  0.0209
  168MOL   C13737211   0.640   1.039   5.879  0.4646  0.1259  0.4368
  168MOL   C13837212   0.645   0.716   5.804 -1.0528  0.4523 -0.1047
  168MOL   H13937213   0.816   0.750   5.942  0.4876 -0.6551 -1.5826
  168MOL   H14037214   0.631   1.107   5.963 -0.6433 -0.1410  0.5416
  168MOL   H14137215   0.671   1.099   5.793  0.2782  0.6342  0.7256
  168MOL   H14237216   0.539   1.000   5.864 -0.1303  2.6265 -2.5901
  168MOL   H14337217   0.545   0.758   5.792 -0.2680  1.6338 -3.0077
  168MOL   H14437218   0.624   0.612   5.827 -0.9565  0.3784 -0.3520
  168MOL   C14537219   0.724   0.723   5.666 -0.2520 -0.2419  0.3649
  168MOL   C14637220   0.638   0.704   5.540 -0.4234  0.3448 -0.1953
  168MOL   O14737221   0.578   0.601   5.520 -0.0598 -0.0675  0.2717
  168MOL   C14837222   0.616   0.821   5.450  0.4944 -0.0356 -0.0184
  168MOL   C14937223   0.860   0.640   5.669  0.3812 -0.3516 -0.6683
  168MOL   H15037224   0.762   0.824   5.653  4.3380 -2.0257 -1.2473
  168MOL   H15137225   0.666   0.914   5.478 -0.6729  0.5191  0.2256
  168MOL   H15237226   0.645   0.805   5.346 -1.3681 -1.0870 -0.3885
  168MOL   H15337227   0.510   0.842   5.440  0.5368 -0.4426 -1.3832
  168MOL   H15437228   0.843   0.576   5.583  0.6283 -0.0047 -0.9729
  168MOL   H15537229   0.852   0.570   5.753 -0.3630  0.5223  0.0027
  168MOL   C15637230   1.000   0.709   5.641  0.3232  0.3868  0.2136
  168MOL   C15737231   1.005   0.768   5.497 -0.4212 -0.1194  0.1681
  168MOL   O15837232   0.908   0.770   5.423  0.0092 -0.3388 -0.2288
  168MOL   C15937233   1.138   0.824   5.445  0.2126  0.1272  0.3617
  168MOL   C16037234   1.122   0.632   5.683 -0.4054  0.2921 -0.6177
  168MOL   H16137235   1.005   0.800   5.701 -2.9226  0.3997  0.5732
  168MOL   H16237236   1.198   0.745   5.399  0.1332 -1.1773  2.4125
  168MOL   H16337237   1.129   0.897   5.365  0.8605 -0.8130 -0.5708
  168MOL   H16437238   1.194   0.877   5.522 -1.3327  1.9056  0.2940
  168MOL   H16537239   1.210   0.657   5.623 -1.5789  0.9051 -2.1129
  168MOL   H16637240   1.100   0.525   5.675  2.5362 -0.4348  0.2619
  168MOL   C16737241   1.155   0.670   5.831 -0.6315  0.4626  0.7308
  168MOL   C16837242   1.195   0.813   5.846  0.8083  0.3684  0.5336
  168MOL   O16937243   1.272   0.861   5.772  0.4238 -0.3333 -0.2921
  168MOL   C17037244   1.151   0.884   5.967  0.3022  0.3381  0.6380
  168MOL   C17137245   1.242   0.579   5.916  0.0272  0.3027  0.5340
  168MOL   H17237246   1.059   0.671   5.882 -0.4885 -1.0532  1.0407
  168MOL   H17337247   1.233   0.909   6.034  0.9067  0.0244  0.0188
  168MOL   H17437248   1.103   0.973   5.926  0.6732  0.3532  0.2414
  168MOL   H17537249   1.075   0.825   6.017 -0.7267  2.0583  1.1630
  168MOL   H17637250   1.207   0.477   5.905 -0.7358  0.5552  0.5424
  168MOL   H17737251   1.204   0.606   6.015 -4.0159  0.8570 -1.0836
  168MOL   C17837252   1.388   0.580   5.882 -0.1774  0.5918 -0.4268
  168MOL   C17937253   1.442   0.475   5.786 -0.1437 -0.6408 -0.7618
  168MOL   O18037254   1.375   0.449   5.685 -0.0686 -0.2567  0.2890
  168MOL   C18137255   1.579   0.414   5.808 -0.6700  0.7875 -0.3780
  168MOL   C18237256   1.460   0.573   6.019  0.2653 -0.5751 -0.0546
  168MOL   H18337257   1.407   0.676   5.834 -1.7460  1.6730  1.0664
  168MOL   H18437258   1.583   0.373   5.909 -2.0350 -1.6285 -1.2632
  168MOL   H18537259   1.590   0.335   5.734  0.6420 -0.6436  1.2967
  168MOL   H18637260   1.660   0.486   5.796 -1.4013  1.4624 -1.3547
  168MOL   H18737261   1.564   0.539   6.021  0.7940  1.0613  0.8860
  168MOL   H18837262   1.417   0.490   6.075  3.1370 -0.8973  1.8304
  168MOL   C18937263   1.453   0.696   6.111  0.1330 -0.1142  0.6441
  168MOL   C19037264   1.524   0.821   6.054  0.7277  0.5443 -0.2968
  168MOL   O19137265   1.484   0.937   6.073 -0.2628 -0.1308  0.3759
  168MOL   C19237266   1.651   0.801   5.974 -0.2816 -0.9937 -0.0744
  168MOL   C19337267   1.513   0.663   6.252 -0.0359  0.0540 -0.3449
  168MOL   H19437268   1.348   0.717   6.135  0.1939 -2.0095  2.7566
  168MOL   H19537269   1.632   0.730   5.893 -1.9701  0.1526 -0.7191
  168MOL   H19637270   1.681   0.894   5.927  1.8296 -0.5942  1.9958
  168MOL   H19737271   1.733   0.756   6.029  0.7613 -0.1665 -0.9569
  168MOL   H19837272   1.510   0.759   6.305 -0.8752  0.4213 -1.0398
  168MOL   H19937273   1.620   0.643   6.239 -0.2095 -0.5362 -0.8641
  168MOL   C20037274   1.431   0.557   6.342  0.5117  0.4995  0.0667
  168MOL   C20137275   1.291   0.606   6.367  0.2830  0.8775  1.0628
  168MOL   O20237276   1.265   0.690   6.451  0.0613  0.0815  0.1431
  168MOL   C20337277   1.174   0.530   6.299 -0.8000 -0.0628  0.0579
  168MOL   C20437278   1.491   0.540   6.485  0.9715  0.2449  0.0690
  168MOL   H20537279   1.433   0.463   6.287  0.3673 -0.3186  1.4315
  168MOL   H20637280   1.207   0.440   6.248  1.1478 -0.0596  1.2654
  168MOL   H20737281   1.088   0.495   6.355  1.6528 -1.7719  2.8768
  168MOL   H20837282   1.122   0.608   6.242 -2.2313 -0.3469  0.9606
  168MOL   H20937283   1.426   0.488   6.555 -0.9236  1.2175 -0.9312
  168MOL   H21037284   1.481   0.644   6.516 -1.3115  0.4262 -1.1350
  168MOL   C21137285   1.631   0.479   6.482 -0.9470  0.6284 -0.2142
  168MOL   C21237286   1.627   0.337   6.443 -0.0598  0.3578 -0.5901
  168MOL   O21337287   1.546   0.260   6.491  0.1249  0.2684 -0.3561
  168MOL   C21437288   1.757   0.287   6.373  0.4776  0.0410 -0.3853
  168MOL   C21537289   1.694   0.509   6.617 -0.0934 -0.1353  0.1622
  168MOL   H21637290   1.693   0.537   6.413 -0.2744  0.5518  0.3127
  168MOL   H21737291   1.846   0.300   6.435  0.8118 -0.8421 -0.6736
  168MOL   H21837292   1.748   0.179   6.359 -1.9088  0.2345 -0.5971
  168MOL   H21937293   1.770   0.341   6.280 -0.7811 -0.4732 -0.8730
  168MOL   H22037294   1.622   0.485   6.696  0.4509 -0.7426  0.4827
  168MOL   H22137295   1.716   0.616   6.621 -1.2738  0.0509  2.7835
  168MOL   H22237296   1.785   0.453   6.635 -0.3109 -0.6044 -0.1734
  169MOL     C137297   6.964   4.732   7.525  0.1042  0.3693  0.7070
  169MOL     C237298   6.869   4.744   7.405 -0.2359 -0.3068 -0.5863
  169MOL     O337299   6.862   4.850   7.346  0.2673 -0.1474  0.0953
  169MOL     C437300   6.788   4.623   7.346  0.2529 -0.5592  0.4400
  169MOL     C537301   7.083   4.828   7.520 -0.2586 -0.2202  0.8579
  169MOL     H637302   6.900   4.755   7.610 -1.0249  0.7972 -0.2430
  169MOL     H737303   6.844   4.560   7.277  1.1210 -1.7574  2.1806
  169MOL     H837304   6.758   4.555   7.426 -1.5778  0.8211  0.9590
  169MOL     H937305   6.695   4.655   7.300  0.2256 -0.3455  0.6436
  169MOL    H1037306   7.136   4.843   7.614  1.2079 -0.1059  0.0326
  169MOL    H1137307   7.038   4.922   7.490 -3.0600 -2.6018 -2.8018
  169MOL    H1237308   6.989   4.627   7.545  0.2633  0.5794  1.6481
  169MOL    C1337309   7.194   4.782   7.417 -0.1808  0.1697 -0.0467
  169MOL    C1437310   7.262   4.652   7.450  0.0991  0.6827  0.5438
  169MOL    O1537311   7.362   4.641   7.519 -0.3773  0.2011 -0.0888
  169MOL    C1637312   7.208   4.533   7.380 -0.7143  0.0439 -0.0246
  169MOL    C1737313   7.296   4.893   7.401  1.2104  0.2982 -0.0651
  169MOL    H1837314   7.142   4.772   7.322  0.2726  2.1466 -0.5150
  169MOL    H1937315   7.112   4.502   7.421  0.3024 -1.3218  1.3669
  169MOL    H2037316   7.220   4.539   7.271  1.4338  0.4957  0.2079
  169MOL    H2137317   7.265   4.444   7.407  0.0222  0.0420 -1.5130
  169MOL    H2237318   7.352   4.902   7.494 -0.8486  2.1335  1.0073
  169MOL    H2337319   7.243   4.988   7.393  1.9885  0.8921  1.6252
  169MOL    C2437320   7.401   4.884   7.288  0.4582  0.3348  0.4278
  169MOL    C2537321   7.486   5.013   7.298 -0.2233 -0.0476 -0.5708
  169MOL    O2637322   7.448   5.115   7.236 -0.5699 -0.8546 -0.6128
  169MOL    C2737323   7.618   5.012   7.364 -0.1793 -0.0646 -0.5606
  169MOL    C2837324   7.336   4.873   7.148  0.8898 -0.2490  0.3965
  169MOL    H2937325   7.465   4.795   7.288  2.4518  1.7301 -0.1212
  169MOL    H3037326   7.643   5.103   7.418  0.5534 -1.7437  2.0156
  169MOL    H3137327   7.641   4.934   7.436 -2.0699 -0.4420 -0.3460
  169MOL    H3237328   7.693   4.992   7.287  0.3513 -2.6456  0.5748
  169MOL    H3337329   7.269   4.958   7.132 -0.2281 -1.6975 -2.9200
  169MOL    H3437330   7.257   4.798   7.144  0.9664 -0.3149  0.0849
  169MOL    C3537331   7.426   4.834   7.032 -0.4985 -0.0300 -0.5243
  169MOL    C3637332   7.383   4.893   6.895 -0.1594  0.3287  0.9395
  169MOL    O3737333   7.287   4.963   6.878 -0.3278  0.3321 -0.4653
  169MOL    C3837334   7.477   4.861   6.778  0.1149 -0.5443  0.1418
  169MOL    C3937335   7.455   4.678   7.021 -0.6673  0.3455 -0.5459
  169MOL    H4037336   7.523   4.880   7.048 -0.7244  0.3499 -0.2276
  169MOL    H4137337   7.436   4.913   6.692  0.9806 -0.8529 -0.4677
  169MOL    H4237338   7.581   4.892   6.793 -0.1781 -0.4839  2.1570
  169MOL    H4337339   7.471   4.756   6.752 -0.7164 -0.4654 -0.0030
  169MOL    H4437340   7.537   4.661   6.950  0.0382  0.6860  0.1804
  169MOL    H4537341   7.364   4.636   6.979  0.1793  0.6563 -2.7880
  169MOL    C4637342   7.501   4.581   7.135  0.3181  0.4134 -0.3640
  169MOL    C4737343   7.630   4.622   7.209  0.4450 -0.1983  0.6998
  169MOL    O4837344   7.689   4.724   7.174  0.5730 -0.4867  0.0843
  169MOL    C4937345   7.676   4.546   7.333 -0.6624 -0.2234  0.5964
  169MOL    C5037346   7.496   4.432   7.093  0.0512  0.9966 -0.5075
  169MOL    H5137347   7.418   4.592   7.206  1.3887  0.4535  0.8975
  169MOL    H5237348   7.751   4.606   7.384 -0.8697  1.2214 -0.7795
  169MOL    H5337349   7.591   4.527   7.399 -2.4309  2.2669 -0.9007
  169MOL    H5437350   7.709   4.448   7.299  0.8639  0.9505 -1.3499
  169MOL    H5537351   7.401   4.379   7.094  1.6423 -2.0056 -1.5995
  169MOL    H5637352   7.539   4.381   7.180  2.7444 -0.8574 -2.8489
  169MOL    C5737353   7.579   4.390   6.968  0.2418 -0.0165  0.2921
  169MOL    C5837354   7.493   4.402   6.836 -0.0296 -0.2508 -0.0709
  169MOL    O5937355   7.378   4.427   6.836  0.2176 -0.7167 -0.0668
  169MOL    C6037356   7.561   4.393   6.700  0.0295  0.3088 -0.1567
  169MOL    C6137357   7.622   4.244   6.976 -0.2328  0.0552 -0.1112
  169MOL    H6237358   7.670   4.446   6.951  0.5328 -1.0800 -1.7787
  169MOL    H6337359   7.524   4.306   6.645  0.0873 -0.6873  1.3734
  169MOL    H6437360   7.551   4.484   6.639 -0.4492  1.4116  1.5400
  169MOL    H6537361   7.668   4.381   6.718 -0.4176  0.9625  3.1402
  169MOL    H6637362   7.646   4.202   6.878 -0.2377 -2.7060  1.0409
  169MOL    H6737363   7.538   4.184   7.008 -0.0798 -1.6381 -2.7267
  169MOL    C6837364   7.743   4.223   7.069 -0.4984 -0.1293 -0.4414
  169MOL    C6937365   0.035   4.254   7.005  0.0669  0.3618 -0.2366
  169MOL    O7037366   0.055   4.257   6.886 -0.6899 -0.3857 -0.1341
  169MOL    C7137367   0.142   4.273   7.102  0.1804  0.0002  0.2500
  169MOL    C7237368   7.736   4.073   7.120  0.6485  0.6009  0.0341
  169MOL    H7337369   7.722   4.285   7.156  1.0836  0.7042 -0.6426
  169MOL    H7437370   0.174   4.375   7.121  2.1267 -0.4928 -0.2966
  169MOL    H7537371   0.124   4.230   7.201 -0.6688 -0.1375  0.0459
  169MOL    H7637372   0.227   4.221   7.058  1.1126  0.2949  1.6719
  169MOL    H7737373   7.827   4.046   7.174  0.6227  1.0389  0.2996
  169MOL    H7837374   7.746   4.011   7.031  2.2989  2.1938 -0.9346
  169MOL    C7937375   7.610   4.021   7.190  0.4115 -0.4083 -0.4136
  169MOL    C8037376   7.632   4.034   7.346 -0.1064 -0.7472  0.2664
  169MOL    O8137377   7.714   3.963   7.413  0.1623  0.0048 -0.0188
  169MOL    C8237378   7.568   4.161   7.402  0.1213  1.0331 -0.0398
  169MOL    C8337379   7.572   3.883   7.146  0.4828 -0.1932  0.3832
  169MOL    H8437380   7.522   4.083   7.178 -0.0808 -1.2748 -1.3201
  169MOL    H8537381   7.559   4.243   7.331  2.4793  0.2807 -1.2543
  169MOL    H8637382   7.469   4.123   7.429  0.8270 -1.0542 -0.3079
  169MOL    H8737383   7.605   4.206   7.494 -1.6787  0.4874  0.9779
  169MOL    H8837384   7.660   3.819   7.158 -0.6585 -1.8589  0.0755
  169MOL    H8937385   7.555   3.895   7.039 -1.6621  0.0466  0.7174
  169MOL    C9037386   7.435   3.825   7.208 -0.0904  0.0505  0.1406
  169MOL    C9137387   7.467   3.674   7.240 -0.1974 -0.2727 -0.0583
  169MOL    O9237388   7.487   3.589   7.157  0.2471 -0.1867 -0.7369
  169MOL    C9337389   7.478   3.636   7.386  0.3343 -0.1200  0.0628
  169MOL    C9437390   7.318   3.843   7.108 -0.3640  0.0859 -0.9094
  169MOL    H9537391   7.409   3.866   7.305 -3.1973 -0.8690 -0.2266
  169MOL    H9637392   7.380   3.594   7.410  0.1330  0.2558 -0.0958
  169MOL    H9737393   7.547   3.553   7.401 -0.4011 -0.5414  1.1756
  169MOL    H9837394   7.505   3.715   7.456 -2.3465  1.7559 -0.9300
  169MOL    H9937395   7.224   3.817   7.156 -0.6676  0.9094 -1.0505
  169MOL   H10037396   7.340   3.778   7.024 -2.2540 -1.9700  0.1464
  169MOL   C10137397   7.293   3.984   7.062  0.2201  0.6608  0.1263
  169MOL   C10237398   7.239   4.071   7.172  0.6734  0.0902  0.0196
  169MOL   O10337399   7.299   4.171   7.215  0.2315  0.0572 -0.6955
  169MOL   C10437400   7.103   4.035   7.232  0.7994 -0.1859  0.3525
  169MOL   C10537401   7.207   3.984   6.933 -0.0793 -0.7787 -0.0825
  169MOL   H10637402   7.385   4.031   7.027  2.0629 -2.9055 -0.0244
  169MOL   H10737403   7.107   4.052   7.339 -0.3594 -0.2474  0.4158
  169MOL   H10837404   7.033   4.103   7.182 -0.2677  0.6102  2.8694
  169MOL   H10937405   7.061   3.939   7.203  0.5285 -0.8412  2.8454
  169MOL   H11037406   7.118   3.928   6.961  0.8883 -2.6018 -0.6045
  169MOL   H11137407   7.252   3.915   6.862 -0.0775  0.6414 -1.5036
  169MOL   C11237408   7.185   4.114   6.844  0.1554 -0.2446 -0.7617
  169MOL   C11337409   7.075   4.210   6.898 -0.2530 -0.1750  0.8838
  169MOL   O11437410   6.975   4.154   6.951  0.1691 -0.1224 -0.2980
  169MOL   C11537411   7.077   4.355   6.856 -0.1605 -0.2553 -0.3995
  169MOL   C11637412   7.154   4.085   6.693 -0.1215  0.3613 -0.6574
  169MOL   H11737413   7.279   4.169   6.843  0.3501 -0.5789 -0.7659
  169MOL   H11837414   7.135   4.419   6.924 -1.5686 -0.7310  1.2877
  169MOL   H11937415   7.128   4.361   6.760  2.3705 -1.1314  0.8414
  169MOL   H12037416   6.977   4.396   6.842 -0.3659  0.3873  2.4994
  169MOL   H12137417   7.221   4.001   6.674  0.8232  0.4849  1.8806
  169MOL   H12237418   7.187   4.161   6.622  1.0158  1.0132  0.5394
  169MOL   C12337419   7.012   4.043   6.653  0.1953  0.7301  0.2236
  169MOL   C12437420   7.021   3.906   6.573  0.7722 -0.3047 -0.3232
  169MOL   O12537421   7.040   3.908   6.452  0.7441 -0.5524  0.7801
  169MOL   C12637422   7.013   3.772   6.651  0.2724  0.2803  0.3328
  169MOL   C12737423   6.949   4.150   6.567 -1.0183 -0.3351 -0.3339
  169MOL   H12837424   6.945   4.036   6.738 -0.9711 -0.8523 -0.7987
  169MOL   H12937425   7.077   3.777   6.738 -1.5918  1.0231  1.6871
  169MOL   H13037426   6.907   3.759   6.674 -0.0013 -1.9250 -1.9184
  169MOL   H13137427   7.034   3.696   6.576 -1.8732  2.3984 -2.5465
  169MOL   H13237428   7.024   4.176   6.492  1.8927 -1.6446  2.0221
  169MOL   H13337429   6.941   4.244   6.622 -1.3071 -0.0859 -0.7978
  169MOL   C13437430   6.807   4.129   6.510 -0.3272  0.7471  0.4247
  169MOL   C13537431   6.809   4.117   6.358  0.0416 -0.0190 -0.3316
  169MOL   O13637432   6.775   4.019   6.295  0.0491  0.0391 -0.2969
  169MOL   C13737433   6.860   4.240   6.290 -0.4970  0.0449  0.2555
  169MOL   C13837434   6.701   4.231   6.557  0.2394 -0.1317 -0.8508
  169MOL   H13937435   6.781   4.031   6.550  2.0919  0.3950  1.2225
  169MOL   H14037436   6.967   4.231   6.268 -0.3986 -0.9108  1.0841
  169MOL   H14137437   6.817   4.259   6.192 -0.6933 -0.0323  0.3267
  169MOL   H14237438   6.845   4.332   6.347  1.8500  0.9008 -0.4440
  169MOL   H14337439   6.641   4.266   6.472 -1.6325 -0.4040  0.3152
  169MOL   H14437440   6.735   4.328   6.593  0.8782 -0.3885 -0.7681
  169MOL   C14537441   6.600   4.176   6.663 -0.2963  0.4606  0.3382
  169MOL   C14637442   6.449   4.224   6.636  0.0454  0.3996 -0.4618
  169MOL   O14737443   6.382   4.290   6.716 -0.1973  0.6316 -0.1438
  169MOL   C14837444   6.393   4.187   6.494 -0.1585 -0.2626 -0.1621
  169MOL   C14937445   6.641   4.195   6.809  0.6499  0.3249 -0.2932
  169MOL   H15037446   6.596   4.068   6.648  3.3919  0.3997 -0.4681
  169MOL   H15137447   6.430   4.260   6.422  1.0303 -2.2794 -1.6351
  169MOL   H15237448   6.407   4.082   6.470 -1.3271 -0.4741  0.0390
  169MOL   H15337449   6.284   4.195   6.497 -0.0763  1.3206 -0.8341
  169MOL   H15437450   6.591   4.286   6.842  0.2883  0.8419 -2.2232
  169MOL   H15537451   6.746   4.222   6.824 -0.2816  2.8016  2.2142
  169MOL   C15637452   6.610   4.081   6.913 -0.4209  0.3628 -0.3507
  169MOL   C15737453   6.689   3.951   6.887 -0.1450  0.4355 -0.3107
  169MOL   O15837454   6.712   3.917   6.771 -0.0551  0.1178  0.3848
  169MOL   C15937455   6.759   3.890   7.004 -0.7667 -0.6552 -0.1021
  169MOL   C16037456   6.458   4.049   6.932 -0.1916  0.2661 -0.2045
  169MOL   H16137457   6.652   4.119   7.007  0.1307  0.1041 -0.4938
  169MOL   H16237458   6.767   3.781   6.996 -0.8290 -0.7665  1.1929
  169MOL   H16337459   6.859   3.926   7.028 -1.2488 -0.1690  1.2314
  169MOL   H16437460   6.698   3.905   7.093 -3.1353 -2.0094 -1.4478
  169MOL   H16537461   6.438   3.953   6.980  0.1688  0.8045  1.0312
  169MOL   H16637462   6.414   4.037   6.832  0.5167 -0.8524 -0.4034
  169MOL   C16737463   6.373   4.152   7.000  0.8258  0.2676  0.5391
  169MOL   C16837464   6.434   4.196   7.134 -0.1916  0.0427  0.5879
  169MOL   O16937465   6.490   4.113   7.210  0.1094  0.0020 -0.2688
  169MOL   C17037466   6.438   4.351   7.156 -0.0876  0.9093 -0.3190
  169MOL   C17137467   6.239   4.088   7.035  0.6376 -0.0730 -0.2342
  169MOL   H17237468   6.355   4.241   6.940  0.8769  1.5156  2.3466
  169MOL   H17337469   6.539   4.386   7.181  0.7534 -1.3644 -0.4422
  169MOL   H17437470   6.418   4.401   7.061  1.4316 -1.3530 -1.8662
  169MOL   H17537471   6.361   4.385   7.224 -0.5769 -1.4456  0.3250
  169MOL   H17637472   6.251   4.031   7.127 -0.2235 -0.7988 -0.5658
  169MOL   H17737473   6.227   4.010   6.960  0.8034 -0.9260  0.6052
  169MOL   C17837474   6.110   4.174   7.033  0.0974 -0.6647  0.2363
  169MOL   C17937475   6.006   4.090   7.105  0.8866  0.1957  0.1102
  169MOL   O18037476   5.920   4.032   7.035 -0.2313  0.1567  0.0513
  169MOL   C18137477   6.009   4.066   7.247 -0.0649  0.2288  0.2313
  169MOL   C18237478   6.063   4.230   6.900  0.3691  0.5073 -0.0257
  169MOL   H18337479   6.126   4.260   7.098  0.7975 -2.2129  2.1606
  169MOL   H18437480   6.090   4.000   7.280  1.4404  0.4815 -2.7674
  169MOL   H18537481   6.044   4.165   7.276  0.1620  0.5519 -1.1169
  169MOL   H18637482   5.918   4.053   7.306  0.0380 -1.0500  0.1260
  169MOL   H18737483   5.999   4.163   6.843  1.3745 -0.9643  0.5108
  169MOL   H18837484   6.151   4.248   6.839 -0.8395  1.4505 -1.5249
  169MOL   C18937485   5.996   4.374   6.899 -0.6649 -0.5000  1.0052
  169MOL   C19037486   6.102   4.480   6.913 -0.3411 -0.0676 -0.3033
  169MOL   O19137487   6.139   4.518   7.023  0.2822 -0.3523 -0.5762
  169MOL   C19237488   6.151   4.545   6.785  0.6000 -0.6101 -0.1013
  169MOL   C19337489   5.875   4.387   6.982 -0.1578 -0.2617 -0.7189
  169MOL   H19437490   5.971   4.382   6.793  0.0441 -0.0001  0.8708
  169MOL   H19537491   6.090   4.630   6.754 -2.9786 -2.9058  0.4152
  169MOL   H19637492   6.254   4.581   6.791  0.2882 -0.0053  2.8963
  169MOL   H19737493   6.149   4.480   6.698  0.0835  1.6354 -1.8057
  169MOL   H19837494   5.910   4.382   7.085  1.1044  3.5233 -0.9107
  169MOL   H19937495   5.818   4.294   6.980 -3.7583  1.8410 -0.3201
  169MOL   C20037496   5.791   4.518   6.965 -0.2249  0.4613 -0.5547
  169MOL   C20137497   5.690   4.539   7.078 -0.1152 -0.1212 -0.2153
  169MOL   O20237498   5.670   4.451   7.161 -0.3534 -0.0278 -0.3060
  169MOL   C20337499   5.621   4.677   7.085  0.5719 -0.1533  0.3224
  169MOL   C20437500   5.711   4.517   6.836  0.0093  0.2688  0.1163
  169MOL   H20537501   5.865   4.598   6.960 -1.6919  1.8775 -0.1976
  169MOL   H20637502   5.704   4.747   7.098  1.6935 -1.6162  1.1467
  169MOL   H20737503   5.561   4.707   6.999 -0.1026 -0.8730  0.5349
  169MOL   H20837504   5.552   4.674   7.170  2.0186 -0.8954  1.4769
  169MOL   H20937505   5.783   4.492   6.758 -1.0294  0.1049 -0.8087
  169MOL   H21037506   5.674   4.618   6.815  1.5351  0.7048 -0.5883
  169MOL   C21137507   5.602   4.405   6.820 -0.0353 -0.2084 -0.2941
  169MOL   C21237508   5.651   4.275   6.746  0.2450  0.1430  0.1336
  169MOL   O21337509   5.753   4.272   6.686 -0.2005  0.3989 -0.6384
  169MOL   C21437510   5.558   4.150   6.745  0.9307  0.0128 -0.4035
  169MOL   C21537511   5.470   4.470   6.771 -0.1390  0.1448  0.0635
  169MOL   H21637512   5.573   4.368   6.918  0.8941 -1.4057 -0.4535
  169MOL   H21737513   5.470   4.155   6.810  2.1122  1.5610  1.1168
  169MOL   H21837514   5.516   4.145   6.644 -2.2188 -2.0265  0.9168
  169MOL   H21937515   5.613   4.058   6.760 -0.2359 -0.4775  1.0250
  169MOL   H22037516   5.403   4.395   6.730  1.6699 -1.4244 -0.0564
  169MOL   H22137517   5.487   4.539   6.689 -1.4034 -1.7667 -1.8466
  169MOL   H22237518   5.416   4.520   6.852  0.3481  0.2430  0.3312
  170MOL     C137519   0.115   1.009   5.161 -0.0001  0.2855  0.4094
  170MOL     C237520   0.179   0.887   5.216 -0.2187 -0.2453  0.6767
  170MOL     O337521   0.281   0.892   5.286  0.2424 -0.4484 -0.0003
  170MOL     C437522   0.111   0.757   5.182 -0.3870 -0.2180 -0.0768
  170MOL     C537523   0.022   1.085   5.253 -0.8263  0.5813  0.2176
  170MOL     H637524   0.198   1.069   5.124 -0.4267  0.7411  0.1802
  170MOL     H737525   0.181   0.701   5.120  1.2955  0.4854  1.1505
  170MOL     H837526   0.081   0.695   5.265 -0.1347  0.4008  0.4824
  170MOL     H937527   0.021   0.767   5.120 -1.1126  0.4642  1.0617
  170MOL    H1037528   0.085   1.126   5.332 -0.8382 -0.0161  0.5432
  170MOL    H1137529   7.799   1.011   5.300 -1.5156  1.5010  0.7305
  170MOL    H1237530   0.061   0.977   5.072 -0.0001 -0.3984  0.6553
  170MOL    C1337531   7.759   1.180   5.184 -1.0195 -0.0860 -0.1671
  170MOL    C1437532   7.819   1.319   5.137  0.3657  0.2786 -0.0940
  170MOL    O1537533   0.034   1.389   5.223 -0.0817 -0.2530  0.0406
  170MOL    C1637534   7.793   1.358   4.992  0.6489  0.2785  0.0938
  170MOL    C1737535   7.636   1.208   5.271  1.1604 -0.2681  0.1075
  170MOL    H1837536   7.734   1.126   5.092  1.4447  2.1065 -2.2017
  170MOL    H1937537   7.758   1.461   4.985 -0.4147 -0.2112 -2.2438
  170MOL    H2037538   0.041   1.357   4.930  1.2595  1.4914  0.9307
  170MOL    H2137539   7.705   1.312   4.946  1.7368 -1.1841 -0.5672
  170MOL    H2237540   7.597   1.305   5.244 -0.3151 -0.9232 -0.1543
  170MOL    H2337541   7.658   1.217   5.378  1.5016  0.8678 -0.0573
  170MOL    C2437542   7.527   1.096   5.271 -0.3607  0.1921  0.3972
  170MOL    C2537543   7.464   1.094   5.133 -0.2437 -0.1809 -0.1648
  170MOL    O2637544   7.425   1.200   5.079 -0.2310  0.1020  0.7431
  170MOL    C2737545   7.464   0.956   5.059  0.4979 -0.3467 -0.3705
  170MOL    C2837546   7.424   1.115   5.383  0.4207 -0.4914  0.5556
  170MOL    H2937547   7.579   1.000   5.282  1.9063  1.3781  0.2818
  170MOL    H3037548   7.554   0.946   4.999 -0.1526  2.3294 -1.8810
  170MOL    H3137549   7.455   0.872   5.127  0.4158 -2.0488 -2.4304
  170MOL    H3237550   7.378   0.949   4.992  0.0706  0.2638  0.1064
  170MOL    H3337551   7.346   1.042   5.363 -0.8402  1.0182 -0.1606
  170MOL    H3437552   7.367   1.206   5.361  0.7483  0.1833  2.3917
  170MOL    C3537553   7.467   1.119   5.532  1.0394 -0.0024  0.1213
  170MOL    C3637554   7.526   0.984   5.589 -0.2715 -0.1290 -0.1244
  170MOL    O3737555   7.523   0.876   5.525 -0.0942 -0.7211  0.1786
  170MOL    C3837556   7.604   0.996   5.720  0.2640  0.0341  0.3503
  170MOL    C3937557   7.355   1.185   5.617 -0.0735 -0.3110  0.0009
  170MOL    H4037558   7.555   1.180   5.549  1.6939 -0.3874 -1.8057
  170MOL    H4137559   7.605   1.099   5.755  1.0452 -0.5819  2.2351
  170MOL    H4237560   7.574   0.928   5.800 -1.9522 -0.7364 -1.0880
  170MOL    H4337561   7.704   0.968   5.688 -1.2387 -3.2683 -1.6827
  170MOL    H4437562   7.298   1.264   5.567 -0.6753  0.9260  2.5710
  170MOL    H4537563   7.408   1.243   5.693  1.4417 -1.4498 -0.1678
  170MOL    C4637564   7.243   1.103   5.690  0.0458 -0.4259  0.3494
  170MOL    C4737565   7.135   1.050   5.596  0.3793  0.6175 -0.7036
  170MOL    O4837566   7.136   1.070   5.475 -0.2234  0.2071  0.0709
  170MOL    C4937567   7.025   0.959   5.662  0.5999  0.0569  0.7301
  170MOL    C5037568   7.177   1.184   5.803 -0.2479 -0.8882 -0.4234
  170MOL    H5137569   7.291   1.018   5.739 -0.6189 -0.4112  1.0304
  170MOL    H5237570   6.959   0.916   5.587 -0.3678  1.9864  0.4649
  170MOL    H5337571   7.077   0.874   5.707  1.2948  1.0284  1.7703
  170MOL    H5437572   6.968   1.010   5.739  0.0625  2.3889 -1.1623
  170MOL    H5537573   7.086   1.137   5.841 -1.3755  1.9309  0.5013
  170MOL    H5637574   7.128   1.265   5.749 -0.7050 -0.4460  0.6544
  170MOL    C5737575   7.255   1.222   5.936  0.4153  0.2325  0.0521
  170MOL    C5837576   7.271   1.099   6.029  0.1769  0.0568 -0.2679
  170MOL    O5937577   7.197   1.089   6.126 -0.1267  0.3607  0.8416
  170MOL    C6037578   7.364   0.987   6.000  0.4216  0.6140 -0.1064
  170MOL    C6137579   7.194   1.342   6.016  0.5380 -0.3146  0.1613
  170MOL    H6237580   7.352   1.250   5.895 -0.0214  0.4239 -0.8675
  170MOL    H6337581   7.462   1.021   5.966  0.6758 -0.6863 -0.7141
  170MOL    H6437582   7.379   0.910   6.077  0.6414 -0.1895 -0.9460
  170MOL    H6537583   7.316   0.927   5.923  0.2253 -1.2384  1.4057
  170MOL    H6637584   7.091   1.329   6.049 -0.3698  3.2257 -1.0260
  170MOL    H6737585   7.190   1.422   5.942  1.7362 -0.6429 -0.2658
  170MOL    C6837586   7.283   1.393   6.126 -0.2984 -1.1667 -0.3367
  170MOL    C6937587   7.189   1.431   6.246  0.4731  0.6579 -0.2200
  170MOL    O7037588   7.087   1.496   6.232  0.2627 -0.1226 -0.3186
  170MOL    C7137589   7.245   1.404   6.384 -0.4321  0.4218 -0.6272
  170MOL    C7237590   7.370   1.519   6.090  0.2533 -0.1186 -0.1909
  170MOL    H7337591   7.351   1.322   6.173  1.9234 -0.4996 -2.4235
  170MOL    H7437592   7.333   1.468   6.393 -0.0383 -0.1399 -0.4858
  170MOL    H7537593   7.176   1.422   6.466  1.7460 -0.5686  1.5008
  170MOL    H7637594   7.283   1.305   6.408 -1.4435  0.1573 -0.0901
  170MOL    H7737595   7.412   1.570   6.177 -0.8977  1.7861 -0.7203
  170MOL    H7837596   7.307   1.596   6.045  1.8727  0.3539 -1.7277
  170MOL    C7937597   7.484   1.494   5.981  0.4568  0.2962  0.2265
  170MOL    C8037598   7.589   1.382   6.007 -0.1784  0.0722 -0.5597
  170MOL    O8137599   7.619   1.307   5.915  0.4075  0.3296 -0.1928
  170MOL    C8237600   7.646   1.371   6.146  0.7050  0.1831 -0.7396
  170MOL    C8337601   7.555   1.630   5.959 -0.5223 -0.4476  0.3326
  170MOL    H8437602   7.438   1.482   5.883 -1.5126  2.4531  0.8378
  170MOL    H8537603   7.565   1.366   6.218 -1.0656 -2.6587 -2.8480
  170MOL    H8637604   7.718   1.289   6.142  0.7395  0.2197 -0.8893
  170MOL    H8737605   7.692   1.465   6.176 -1.3271  0.7279  0.7998
  170MOL    H8837606   7.603   1.659   6.052  0.7297  2.7520 -1.2350
  170MOL    H8937607   7.489   1.713   5.932 -0.7968 -0.6992  0.2248
  170MOL    C9037608   7.663   1.634   5.851  0.6070 -0.3543  0.7371
  170MOL    C9137609   7.728   1.774   5.837  0.1818  0.2756  0.3539
  170MOL    O9237610   7.698   1.860   5.757 -0.6343 -0.7244  0.1049
  170MOL    C9337611   0.012   1.794   5.924 -0.1572 -0.9883 -0.5637
  170MOL    C9437612   7.608   1.593   5.709 -0.8133  0.3516  0.4887
  170MOL    H9537613   7.749   1.573   5.881 -0.0069 -1.0244  1.1522
  170MOL    H9637614   7.819   1.789   6.027  1.5090 -1.1562  0.0086
  170MOL    H9737615   0.070   1.704   5.905  0.0128 -0.8381 -0.7565
  170MOL    H9837616   0.069   1.884   5.899  0.0173  0.1932  3.8036
  170MOL    H9937617   7.518   1.647   5.681 -0.7891  0.1456  0.0110
  170MOL   H10037618   7.553   1.500   5.716  2.9747 -2.1269 -0.8162
  170MOL   C10137619   7.704   1.589   5.591 -0.3130 -0.1772 -0.6115
  170MOL   C10237620   7.638   1.654   5.466 -0.1580 -0.3350 -0.2569
  170MOL   O10337621   7.552   1.595   5.401  0.8154 -0.5122 -0.4521
  170MOL   C10437622   7.702   1.784   5.418 -1.1410  0.0322 -0.6661
  170MOL   C10537623   7.764   1.448   5.568  0.0979  0.2297  0.9606
  170MOL   H10637624   7.793   1.650   5.608 -0.6525  0.6218 -1.6598
  170MOL   H10737625   7.662   1.830   5.327 -1.9510  0.3974 -0.1344
  170MOL   H10837626   7.699   1.865   5.491  1.0254  0.0614 -0.5730
  170MOL   H10937627   7.805   1.756   5.397 -1.2038 -0.0083 -0.9221
  170MOL   H11037628   7.804   1.450   5.467 -1.6259  1.4046  0.2742
  170MOL   H11137629   7.684   1.375   5.555 -0.3092  0.9397 -0.6429
  170MOL   C11237630   0.026   1.393   5.664  0.2187 -0.5903  0.0172
  170MOL   C11337631   0.159   1.475   5.654  0.2411  0.9104  0.7651
  170MOL   O11437632   0.197   1.545   5.751  0.1672  0.1480 -0.3652
  170MOL   C11537633   0.236   1.472   5.522  0.1756  0.0330 -0.1305
  170MOL   C11637634   0.050   1.240   5.633 -0.0206  0.4610 -0.2622
  170MOL   H11737635   7.826   1.406   5.764 -1.0385  3.8193 -0.9674
  170MOL   H11837636   0.179   1.473   5.429 -1.8726 -0.3897  1.0900
  170MOL   H11937637   0.286   1.569   5.523 -1.5969  0.9587 -0.3892
  170MOL   H12037638   0.313   1.395   5.532 -1.3173 -1.6641 -1.3222
  170MOL   H12137639   0.077   1.234   5.527  1.4681 -1.4608  0.1889
  170MOL   H12237640   7.796   1.189   5.629  1.1160 -1.8234  0.7069
  170MOL   C12337641   0.139   1.167   5.735 -0.1681  0.6491  0.7969
  170MOL   C12437642   0.171   1.023   5.682 -0.1498  0.1511 -0.2114
  170MOL   O12537643   0.095   0.926   5.689  0.5453 -0.3546 -0.1142
  170MOL   C12637644   0.297   1.016   5.597 -0.2007  0.3074 -0.1541
  170MOL   C12737645   0.078   1.160   5.878  0.1663  0.4013  0.0271
  170MOL   H12837646   0.230   1.227   5.735  0.6071 -0.4584 -1.6636
  170MOL   H12937647   0.375   1.010   5.673 -0.5320  3.3757  0.4864
  170MOL   H13037648   0.300   0.938   5.521  1.5839 -1.2517  1.4758
  170MOL   H13137649   0.312   1.110   5.544  0.9369 -1.4529 -3.0763
  170MOL   H13237650   7.839   1.088   5.882  0.7179 -0.2814 -0.9506
  170MOL   H13337651   0.030   1.254   5.904  0.5187  0.6874 -0.3346
  170MOL   C13437652   0.178   1.148   5.991  0.2272  0.1801 -0.1490
  170MOL   C13537653   0.193   0.999   6.028 -0.5957  0.0865  0.1389
  170MOL   O13637654   0.303   0.955   6.036  0.4203 -0.1452 -0.1322
  170MOL   C13737655   0.070   0.924   6.071  0.0096  0.6885  0.0000
  170MOL   C13837656   0.147   1.225   6.122 -0.0886  0.0817  0.7014
  170MOL   H13937657   0.274   1.188   5.957 -0.2688  1.2523 -0.3060
  170MOL   H14037658   0.086   0.863   6.159  0.7326 -0.3562 -0.8398
  170MOL   H14137659   7.821   0.983   6.085  0.0207  0.5229  0.7761
  170MOL   H14237660   0.063   0.846   5.995  0.1577  1.0816 -0.4197
  170MOL   H14337661   0.062   1.177   6.171 -1.8982  0.5430 -1.8795
  170MOL   H14437662   0.123   1.328   6.096  1.5959  0.5625  1.0171
  170MOL   C14537663   0.262   1.248   6.229 -0.5514  0.4727 -0.3134
  170MOL   C14637664   0.378   1.328   6.175  0.0279  0.6706  0.0602
  170MOL   O14737665   0.474   1.273   6.131  0.3466 -0.1765 -0.1798
  170MOL   C14837666   0.361   1.481   6.191 -0.1320 -0.0804  0.0933
  170MOL   C14937667   0.313   1.135   6.323  0.2303 -0.1831 -0.0177
  170MOL   H15037668   0.207   1.310   6.300 -0.3851  2.0792 -1.5583
  170MOL   H15137669   0.389   1.515   6.291 -2.5898 -1.4474  1.3203
  170MOL   H15237670   0.413   1.528   6.108  0.5008 -0.0080  0.5247
  170MOL   H15337671   0.254   1.499   6.182  0.2642  1.5887 -1.3947
  170MOL   H15437672   0.382   1.079   6.260  3.3024  0.6111  2.5139
  170MOL   H15537673   0.224   1.078   6.349 -0.1488  0.0578 -0.7590
  170MOL   C15637674   0.391   1.163   6.452 -0.1717  0.4331 -0.2027
  170MOL   C15737675   0.459   1.037   6.507  0.1728 -0.5039  0.0227
  170MOL   O15837676   0.429   0.986   6.614 -0.3799  0.0155 -0.1818
  170MOL   C15937677   0.580   0.986   6.434  0.0987 -0.3183 -0.1294
  170MOL   C16037678   0.300   1.232   6.554  0.3388 -0.2247  0.2035
  170MOL   H16137679   0.474   1.225   6.419  0.1863 -0.5764 -1.2654
  170MOL   H16237680   0.598   0.895   6.491 -0.5230 -0.5596 -0.3051
  170MOL   H16337681   0.536   0.961   6.337  1.4463  2.0577 -1.3826
  170MOL   H16437682   0.655   1.064   6.432 -1.5676  1.3128 -0.8477
  170MOL   H16537683   0.307   1.192   6.655 -1.2713 -0.2078  0.3387
  170MOL   H16637684   0.193   1.226   6.534  0.1690  2.7549  0.0668
  170MOL   C16737685   0.319   1.389   6.561 -0.2025 -0.0709 -0.0794
  170MOL   C16837686   0.469   1.413   6.596  0.8918 -0.1680  1.1750
  170MOL   O16937687   0.511   1.391   6.710 -0.5752  0.8563  0.1429
  170MOL   C17037688   0.565   1.476   6.494 -0.8050 -0.5892  0.5252
  170MOL   C17137689   0.217   1.452   6.664  0.3276  0.2219  0.3037
  170MOL   H17237690   0.297   1.432   6.464 -0.1238  0.6213  0.2085
  170MOL   H17337691   0.598   1.400   6.423 -0.2797  1.8544 -1.9377
  170MOL   H17437692   0.516   1.567   6.457 -0.6587 -0.1373  1.4332
  170MOL   H17537693   0.650   1.511   6.552  0.2462  0.6560 -1.6835
  170MOL   H17637694   0.221   1.407   6.763 -3.3540 -1.6257 -0.3094
  170MOL   H17737695   0.115   1.433   6.631  0.9946  0.7624 -2.2236
  170MOL   C17837696   0.230   1.604   6.681  0.0304 -0.6417 -0.6994
  170MOL   C17937697   0.211   1.657   6.827  0.9354 -0.0309 -0.1915
  170MOL   O18037698   0.113   1.725   6.861 -0.0711 -0.3711 -0.5105
  170MOL   C18137699   0.307   1.614   6.931  0.0397 -0.7533 -0.3577
  170MOL   C18237700   0.145   1.684   6.575 -0.2646 -0.0061 -0.0661
  170MOL   H18337701   0.335   1.622   6.656  0.3092 -0.2738  0.6599
  170MOL   H18437702   0.277   1.520   6.977  0.0722 -0.1249  0.9640
  170MOL   H18537703   0.411   1.608   6.898 -0.2370 -2.9773 -0.8532
  170MOL   H18637704   0.313   1.689   7.010  1.6085 -1.0431 -0.1796
  170MOL   H18737705   0.038   1.663   6.584  0.2881 -2.3064  1.8383
  170MOL   H18837706   0.161   1.635   6.479  0.5226 -0.0005  0.0633
  170MOL   C18937707   0.184   1.836   6.550  0.3155 -0.2986 -0.9088
  170MOL   C19037708   0.069   1.928   6.596 -0.4694 -0.4876  0.0739
  170MOL   O19137709   7.800   1.937   6.547 -0.7366 -0.7714 -0.0147
  170MOL   C19237710   0.110   2.008   6.717  0.0047  0.0171 -0.5360
  170MOL   C19337711   0.220   1.853   6.399  0.1846  0.5421 -0.1039
  170MOL   H19437712   0.280   1.864   6.593 -0.3836 -0.5099  0.8268
  170MOL   H19537713   0.128   1.944   6.804  1.8360  0.5774 -0.4839
  170MOL   H19637714   0.192   2.071   6.684 -0.1573  0.1879 -0.6145
  170MOL   H19737715   0.028   2.073   6.746 -1.1803 -1.1463 -1.1882
  170MOL   H19837716   0.140   1.825   6.330 -0.0037 -1.1203  0.7409
  170MOL   H19937717   0.300   1.783   6.372 -0.3562  0.7938 -2.4654
  170MOL   C20037718   0.276   1.995   6.360  0.1033 -0.0996 -0.0813
  170MOL   C20137719   0.264   2.010   6.207  0.3347  0.6845  0.1301
  170MOL   O20237720   0.349   1.959   6.137  0.3440 -0.3341 -0.0036
  170MOL   C20337721   0.127   2.051   6.162  0.1758  0.3607 -0.2200
  170MOL   C20437722   0.418   2.023   6.419 -0.1384 -0.1513  0.2434
  170MOL   H20537723   0.198   2.058   6.405  2.1387  0.9561  2.0945
  170MOL   H20637724   0.098   1.997   6.071  0.1168 -0.5918  0.3530
  170MOL   H20737725   0.047   2.023   6.230 -2.1041  1.1038 -2.5234
  170MOL   H20837726   0.121   2.160   6.158  2.9153  0.6124  1.6365
  170MOL   H20937727   0.492   1.950   6.387 -0.9913 -0.6994 -0.4985
  170MOL   H21037728   0.413   2.023   6.528  2.1345 -0.6368  0.3682
  170MOL   C21137729   0.470   2.164   6.374  0.5791  0.0415  0.3193
  170MOL   C21237730   0.610   2.191   6.434 -0.2848 -0.1995 -0.0155
  170MOL   O21337731   0.663   2.127   6.527  0.1358  0.1953  0.4500
  170MOL   C21437732   0.684   2.319   6.385 -0.0594 -0.1349 -0.1748
  170MOL   C21537733   0.380   2.280   6.432  0.1585 -0.0894  0.2544
  170MOL   H21637734   0.475   2.167   6.265  0.6635  1.7638  0.3450
  170MOL   H21737735   0.792   2.306   6.387 -0.0906 -0.9698 -2.4286
  170MOL   H21837736   0.639   2.310   6.286  1.8068 -1.5236 -0.9245
  170MOL   H21937737   0.649   2.400   6.449 -0.3981 -2.2253  2.3416
  170MOL   H22037738   0.423   2.380   6.423 -0.2623 -0.0880 -2.0347
  170MOL   H22137739   0.363   2.263   6.538 -1.4820  1.2425  0.2211
  170MOL   H22237740   0.286   2.296   6.380 -0.2468  2.6811  1.7040
  171MOL     C137741   5.025   2.956   1.053  0.5441  0.3809 -0.3584
  171MOL     C237742   4.895   2.975   1.128 -0.6613  0.7104 -0.1903
  171MOL     O337743   4.857   3.086   1.159 -0.0033 -0.1332  0.0857
  171MOL     C437744   4.808   2.852   1.162  0.0696 -0.1646  0.6555
  171MOL     C537745   5.080   3.093   0.982 -0.5305 -0.1375 -0.2794
  171MOL     H637746   5.097   2.912   1.122  0.8405  1.1422 -0.1858
  171MOL     H737747   4.747   2.870   1.250 -0.2542 -2.0827  0.8341
  171MOL     H837748   4.728   2.861   1.089  0.9289  0.1637 -0.2548
  171MOL     H937749   4.856   2.754   1.154  1.1319  0.3745  0.1887
  171MOL    H1037750   5.072   3.181   1.046 -1.3707  1.0266 -1.9241
  171MOL    H1137751   5.011   3.125   0.903 -0.3529 -0.1012 -0.4195
  171MOL    H1237752   5.007   2.892   0.967  0.6968 -0.0920 -0.0451
  171MOL    C1337753   5.216   3.091   0.911 -0.8060 -0.4910  0.0305
  171MOL    C1437754   5.240   2.990   0.796 -0.0575 -0.0952 -0.0448
  171MOL    O1537755   5.158   2.900   0.778  0.6366 -0.3141 -0.9134
  171MOL    C1637756   5.350   2.993   0.701 -0.0354 -0.0866  0.2028
  171MOL    C1737757   5.332   3.073   1.015  0.3111  0.6934  0.4056
  171MOL    H1837758   5.234   3.191   0.871  0.4512 -0.8333 -0.3027
  171MOL    H1937759   5.309   2.983   0.601 -2.3068 -0.6534  1.1496
  171MOL    H2037760   5.401   3.089   0.699  0.4341 -0.3270  0.4876
  171MOL    H2137761   5.431   2.925   0.729  0.5897  1.0017  1.0801
  171MOL    H2237762   5.428   3.048   0.969  0.7931 -1.7987  2.6026
  171MOL    H2337763   5.299   2.997   1.086 -3.0358 -0.2615 -2.0749
  171MOL    C2437764   5.356   3.202   1.103  0.0190  0.3472  0.7968
  171MOL    C2537765   5.388   3.322   1.018  0.1387  0.0234 -0.1690
  171MOL    O2637766   5.500   3.327   0.955  0.2056  0.0609 -0.0659
  171MOL    C2737767   5.275   3.422   1.013 -0.1744  0.4071 -0.5176
  171MOL    C2837768   5.476   3.169   1.200 -0.5676 -0.7454  0.3771
  171MOL    H2937769   5.265   3.217   1.161 -0.6724 -0.4802 -0.0527
  171MOL    H3037770   5.179   3.374   0.995 -0.9299  1.5466  0.3753
  171MOL    H3137771   5.279   3.470   1.111 -1.3185  0.1326 -0.3261
  171MOL    H3237772   5.288   3.499   0.937 -4.4863  1.1521 -0.6437
  171MOL    H3337773   5.569   3.166   1.142 -0.3199 -0.2108  0.7454
  171MOL    H3437774   5.457   3.069   1.239 -0.2311 -1.2641 -0.7479
  171MOL    C3537775   5.489   3.270   1.317 -0.3698  0.3438 -0.3771
  171MOL    C3637776   5.589   3.378   1.279 -0.2412  0.2959  0.6685
  171MOL    O3737777   5.560   3.493   1.300  0.2926  0.3986 -0.0831
  171MOL    C3837778   5.734   3.342   1.252 -0.0509  0.4342 -0.0758
  171MOL    C3937779   5.516   3.212   1.460  0.2959  0.6318 -0.0498
  171MOL    H4037780   5.393   3.319   1.331 -0.4103  0.1430  0.0892
  171MOL    H4137781   5.795   3.432   1.260  1.0003 -0.2587 -0.1908
  171MOL    H4237782   5.762   3.261   1.319  3.1546  0.1747 -1.6577
  171MOL    H4337783   5.756   3.308   1.151 -1.6450 -0.1765 -0.2431
  171MOL    H4437784   5.617   3.170   1.469  0.0260  0.1770  0.8773
  171MOL    H4537785   5.458   3.122   1.477 -1.1140  1.7753  1.2862
  171MOL    C4637786   5.484   3.298   1.580  0.1179  0.5462  0.6087
  171MOL    C4737787   5.532   3.220   1.699 -0.2009  0.4222  0.6223
  171MOL    O4837788   5.453   3.173   1.781  0.1015  0.4858  1.1132
  171MOL    C4937789   5.682   3.190   1.712 -0.3787  0.3833  0.9584
  171MOL    C5037790   5.338   3.332   1.597 -0.5449 -0.3790  0.0572
  171MOL    H5137791   5.543   3.389   1.574 -1.3013  1.3825 -1.2810
  171MOL    H5237792   5.703   3.163   1.815 -0.5257 -1.1327  0.6008
  171MOL    H5337793   5.701   3.094   1.664 -1.1218  1.7141 -2.1254
  171MOL    H5437794   5.746   3.262   1.660 -0.0812 -0.0958  0.6632
  171MOL    H5537795   5.326   3.409   1.520  0.0424 -0.3126  0.0290
  171MOL    H5637796   5.325   3.379   1.695 -2.0438  2.0444 -1.2303
  171MOL    C5737797   5.233   3.215   1.594 -0.0803 -0.3026 -0.2262
  171MOL    C5837798   5.187   3.209   1.455 -0.4497 -0.8024  0.8262
  171MOL    O5937799   5.228   3.119   1.379 -0.1837  0.1487  0.8149
  171MOL    C6037800   5.097   3.315   1.389 -0.0097  0.4237 -0.1747
  171MOL    C6137801   5.117   3.224   1.694  0.6006 -0.3590 -0.2059
  171MOL    H6237802   5.282   3.120   1.612 -0.6728 -0.5259  0.2246
  171MOL    H6337803   4.993   3.311   1.423 -0.3126 -0.0958 -1.1537
  171MOL    H6437804   5.141   3.413   1.409 -1.2018  0.5871  1.8660
  171MOL    H6537805   5.091   3.287   1.284  0.0735  0.5781 -0.2196
  171MOL    H6637806   5.068   3.321   1.694 -0.5564 -0.9116 -1.9232
  171MOL    H6737807   5.168   3.217   1.790  2.0133 -0.3412 -0.9485
  171MOL    C6837808   5.013   3.113   1.683  0.4035 -0.0656 -0.3996
  171MOL    C6937809   4.877   3.155   1.753 -0.4219  0.3469 -0.5136
  171MOL    O7037810   4.882   3.181   1.869 -0.8045  0.0272  0.0831
  171MOL    C7137811   4.741   3.154   1.670  0.8450  0.0560 -0.8669
  171MOL    C7237812   5.072   2.977   1.730 -0.6111  0.3121  0.3209
  171MOL    H7337813   4.994   3.099   1.576  0.3804  1.3690 -0.5933
  171MOL    H7437814   4.741   3.250   1.618  0.8077  1.1824  1.1589
  171MOL    H7537815   4.731   3.091   1.582  0.0935  0.5455 -1.1398
  171MOL    H7637816   4.656   3.157   1.737 -0.2922  0.9643 -2.2994
  171MOL    H7737817   5.088   2.982   1.838  0.2043 -2.1340  0.3294
  171MOL    H7837818   5.172   2.955   1.693 -1.3516 -1.6648 -0.5766
  171MOL    C7937819   4.979   2.851   1.717 -0.2505 -0.0616  0.3284
  171MOL    C8037820   4.925   2.833   1.578  0.5364  0.3305 -0.0355
  171MOL    O8137821   4.801   2.821   1.554 -0.3946  0.1491 -0.3196
  171MOL    C8237822   5.030   2.840   1.463 -0.2431 -0.5817  0.7306
  171MOL    C8337823   4.877   2.839   1.818  0.6421  0.3555 -0.8621
  171MOL    H8437824   5.053   2.772   1.725  0.6626  0.8544  1.0370
  171MOL    H8537825   5.122   2.787   1.488  0.4212  0.0822 -0.2640
  171MOL    H8637826   4.990   2.793   1.373 -2.5768  0.3090  1.2768
  171MOL    H8737827   5.060   2.942   1.442 -2.8697  0.0147 -0.2920
  171MOL    H8837828   4.784   2.890   1.792  0.9524  0.0203 -2.6484
  171MOL    H8937829   4.914   2.901   1.900 -0.9670  0.4224 -0.1694
  171MOL    C9037830   4.841   2.696   1.873  0.6706 -0.1930  0.0828
  171MOL    C9137831   4.697   2.685   1.931 -0.5266 -0.2937 -0.1146
  171MOL    O9237832   4.632   2.784   1.970 -0.2669  0.3323 -0.9043
  171MOL    C9337833   4.640   2.546   1.963 -0.6015 -0.3064  0.1370
  171MOL    C9437834   4.946   2.653   1.979 -0.3511  0.2134 -0.1292
  171MOL    H9537835   4.838   2.615   1.800 -2.0658 -1.3114  1.3869
  171MOL    H9637836   4.659   2.470   1.887  0.0382  0.8783 -0.9118
  171MOL    H9737837   4.689   2.500   2.049  0.9748 -0.9847 -1.1016
  171MOL    H9837838   4.532   2.557   1.974 -0.5751  0.7330 -0.5326
  171MOL    H9937839   4.905   2.584   2.052 -0.8598 -0.2571 -0.8463
  171MOL   H10037840   4.977   2.743   2.032  2.1072 -0.3739 -0.4892
  171MOL   C10137841   5.081   2.592   1.928  0.7078  0.2676  0.2562
  171MOL   C10237842   5.056   2.481   1.830 -0.1949  0.2370  0.4119
  171MOL   O10337843   4.962   2.411   1.856 -0.0387  0.2072 -0.2113
  171MOL   C10437844   5.157   2.435   1.728  0.8563  0.0515  0.0167
  171MOL   C10537845   5.182   2.557   2.036  0.0037  0.2261  0.9986
  171MOL   H10637846   5.130   2.661   1.859  0.7873 -0.4344 -0.3996
  171MOL   H10737847   5.146   2.496   1.638 -0.6192  1.1201  0.8867
  171MOL   H10837848   5.257   2.443   1.772  0.4928 -0.5296  0.9575
  171MOL   H10937849   5.141   2.330   1.705 -0.7519  0.1880  0.5052
  171MOL   H11037850   5.275   2.509   2.004 -0.9693 -1.4981  0.7222
  171MOL   H11137851   5.140   2.472   2.089 -0.3180 -1.5743 -2.0459
  171MOL   C11237852   5.232   2.678   2.120 -0.4782  0.5871  0.7645
  171MOL   C11337853   5.323   2.774   2.042  0.5637 -0.1539  0.5945
  171MOL   O11437854   5.435   2.743   2.003 -0.2246 -0.3524 -0.2630
  171MOL   C11537855   5.277   2.917   2.015 -0.0529  0.1538  0.0876
  171MOL   C11637856   5.310   2.630   2.245  0.1347 -0.5971  0.1756
  171MOL   H11737857   5.146   2.735   2.155  0.3560  1.6352  1.1448
  171MOL   H11837858   5.317   2.989   2.086  0.9103  0.2520 -0.5459
  171MOL   H11937859   5.304   2.950   1.914  1.7428  3.1518  1.4995
  171MOL   H12037860   5.168   2.923   2.015  0.0676  3.0828 -0.0981
  171MOL   H12137861   5.370   2.713   2.284 -0.5842 -0.1236  0.2947
  171MOL   H12237862   5.375   2.553   2.204 -0.4060 -0.7342 -0.4316
  171MOL   C12337863   5.217   2.570   2.349 -0.1309 -0.4610  0.7447
  171MOL   C12437864   5.107   2.665   2.397  0.1668  0.0257 -0.2613
  171MOL   O12537865   5.143   2.778   2.431 -0.0041  0.2648 -0.2438
  171MOL   C12637866   4.963   2.631   2.371 -0.5442 -0.6999 -0.2448
  171MOL   C12737867   5.305   2.526   2.468  0.1679  0.2597 -0.0936
  171MOL   H12837868   5.178   2.484   2.295 -2.8461  1.1899  0.0124
  171MOL   H12937869   4.946   2.666   2.270 -1.0025 -1.0107 -0.2749
  171MOL   H13037870   4.936   2.525   2.370 -0.0019 -0.8346 -1.1921
  171MOL   H13137871   4.903   2.690   2.441  1.0530  0.6780  0.0143
  171MOL   H13237872   5.349   2.617   2.509 -3.0690  1.7026  0.3837
  171MOL   H13337873   5.383   2.456   2.440  1.4721  1.6285  0.0561
  171MOL   C13437874   5.231   2.436   2.572  0.0108 -0.4333 -0.5242
  171MOL   C13537875   5.306   2.437   2.702  1.3552 -0.0174 -0.2877
  171MOL   O13637876   5.252   2.475   2.802  0.0354  0.2236 -0.3119
  171MOL   C13737877   5.448   2.384   2.708 -0.8208  0.5451 -0.2576
  171MOL   C13837878   5.164   2.302   2.536 -0.2162 -0.1004 -0.7586
  171MOL   H13937879   5.147   2.497   2.605 -1.3604 -1.9467 -1.1520
  171MOL   H14037880   5.502   2.456   2.647  2.8129 -0.6504  1.4058
  171MOL   H14137881   5.489   2.388   2.809  0.9603 -0.0846 -0.9276
  171MOL   H14237882   5.471   2.287   2.663 -0.1957  0.9375 -0.7934
  171MOL   H14337883   5.242   2.250   2.480  0.7753  0.8599 -0.2907
  171MOL   H14437884   5.085   2.325   2.465 -0.4369  1.9186  0.0955
  171MOL   C14537885   5.105   2.223   2.656 -0.1507 -0.3908 -0.4113
  171MOL   C14637886   5.203   2.116   2.714  0.7223  0.0803 -0.8110
  171MOL   O14737887   5.295   2.071   2.649 -0.4622 -0.1704 -0.1215
  171MOL   C14837888   5.186   2.076   2.852 -0.5953 -0.8050  0.1961
  171MOL   C14937889   4.959   2.162   2.626 -0.4294  0.4367  0.0994
  171MOL   H15037890   5.072   2.284   2.740  2.0307  0.0348  0.1509
  171MOL   H15137891   5.252   1.994   2.880 -2.1302 -2.3762 -0.6269
  171MOL   H15237892   5.198   2.156   2.925  0.2194 -0.3238 -0.4512
  171MOL   H15337893   5.083   2.042   2.867 -0.7133 -1.1570 -1.3279
  171MOL   H15437894   4.930   2.073   2.682 -0.2056  0.9876  1.1103
  171MOL   H15537895   4.956   2.126   2.523 -1.7404  0.6780  0.0461
  171MOL   C15637896   4.846   2.268   2.631 -0.0448 -0.1774  0.0874
  171MOL   C15737897   4.830   2.340   2.768 -0.1327 -0.0310 -1.0774
  171MOL   O15837898   4.798   2.275   2.865  0.1508  0.0462 -0.1383
  171MOL   C15937899   4.850   2.488   2.778  0.0590  0.1382 -0.6287
  171MOL   C16037900   4.711   2.209   2.582  0.2791  0.2701  0.5778
  171MOL   H16137901   4.873   2.351   2.566  0.1162 -1.1623 -1.1139
  171MOL   H16237902   4.761   2.552   2.784 -1.9604 -2.5257 -1.2708
  171MOL   H16337903   4.914   2.510   2.863 -0.5279 -0.9053  0.0983
  171MOL   H16437904   4.908   2.531   2.697  0.9655 -1.0207 -0.5974
  171MOL   H16537905   4.646   2.195   2.669 -1.2764 -0.6665 -0.6936
  171MOL   H16637906   4.723   2.108   2.543  2.1716  0.4326  0.6935
  171MOL   C16737907   4.633   2.310   2.485 -0.2351 -0.7827  0.0773
  171MOL   C16837908   4.572   2.429   2.561  0.3928 -0.4720 -0.6632
  171MOL   O16937909   4.619   2.540   2.535 -0.2298  0.6235 -0.0881
  171MOL   C17037910   4.453   2.410   2.655  1.1335 -0.0299 -0.2618
  171MOL   C17137911   4.550   2.235   2.381 -0.0642 -0.1695  0.4262
  171MOL   H17237912   4.708   2.360   2.424  0.4149  0.8165  2.1435
  171MOL   H17337913   4.430   2.505   2.702  0.4360 -0.3271  0.0024
  171MOL   H17437914   4.363   2.399   2.595  1.1882  3.4487 -1.0988
  171MOL   H17537915   4.477   2.341   2.736 -0.1757 -0.0659  0.1117
  171MOL   H17637916   4.460   2.297   2.375  0.8990  1.3876  1.5721
  171MOL   H17737917   4.516   2.139   2.420 -3.3343  0.5614 -0.4942
  171MOL   C17837918   4.619   2.211   2.243 -0.0194  0.1135 -0.5926
  171MOL   C17937919   4.509   2.184   2.148  0.8353  0.5917 -0.8574
  171MOL   O18037920   4.461   2.071   2.137 -0.0250  0.0242  0.4222
  171MOL   C18137921   4.440   2.298   2.079  0.3718  0.7868  0.3944
  171MOL   C18237922   4.730   2.101   2.245  0.4607 -0.6451  0.5292
  171MOL   H18337923   4.662   2.309   2.223  0.3372 -0.2523 -1.6472
  171MOL   H18437924   4.331   2.291   2.076  0.3241  2.0893 -1.0849
  171MOL   H18537925   4.459   2.392   2.131  1.3976  0.4606  0.6205
  171MOL   H18637926   4.472   2.316   1.977 -0.1566 -1.3030 -0.1735
  171MOL   H18737927   4.692   2.000   2.238 -0.0083 -0.5151  1.2085
  171MOL   H18837928   4.784   2.091   2.339  3.5486 -1.6840 -1.2871
  171MOL   C18937929   4.832   2.103   2.131  0.2303  0.0647 -0.2655
  171MOL   C19037930   4.928   2.221   2.152  0.0924  0.0858  0.1449
  171MOL   O19137931   4.899   2.334   2.185 -0.0288 -0.1400 -0.0008
  171MOL   C19237932   5.072   2.184   2.134 -0.2066  0.3399  0.3251
  171MOL   C19337933   4.768   2.096   1.994 -0.0628 -0.5337 -0.2805
  171MOL   H19437934   4.891   2.012   2.143  0.6617  0.2943 -0.6432
  171MOL   H19537935   5.127   2.184   2.229 -2.4664 -0.9715  1.6909
  171MOL   H19637936   5.082   2.078   2.109  0.7016  0.9832 -2.1264
  171MOL   H19737937   5.128   2.248   2.067  0.4295  1.0822  1.5451
  171MOL   H19837938   4.720   2.193   1.978  1.1234 -0.4039 -3.3315
  171MOL   H19937939   4.688   2.022   2.002  0.1389 -0.6396  0.7319
  171MOL   C20037940   4.865   2.041   1.875 -0.4304 -0.2496 -0.1837
  171MOL   C20137941   4.853   2.110   1.734  0.5798 -0.3462  0.2642
  171MOL   O20237942   4.750   2.171   1.701 -0.2872  0.1877  0.7791
  171MOL   C20337943   4.973   2.111   1.635 -0.5700 -0.0265  0.3237
  171MOL   C20437944   4.854   1.887   1.862 -1.0468  1.1789 -0.1808
  171MOL   H20537945   4.966   2.063   1.908  0.3152 -1.0726 -1.9109
  171MOL   H20637946   4.971   2.191   1.562  1.4375  1.0957  1.4416
  171MOL   H20737947   5.068   2.127   1.686 -0.1040 -0.2338 -0.4616
  171MOL   H20837948   4.978   2.015   1.582 -1.3066  0.2008 -0.1543
  171MOL   H20937949   4.760   1.865   1.810 -0.5902 -2.1365  0.2668
  171MOL   H21037950   4.838   1.838   1.958 -4.0133 -0.2276 -1.3293
  171MOL   C21137951   4.985   1.813   1.804 -0.5047  0.1488  0.1895
  171MOL   C21237952   4.966   1.665   1.801  0.4650  0.8177  0.5462
  171MOL   O21337953   5.052   1.588   1.842 -0.9682 -0.3416 -0.1768
  171MOL   C21437954   4.836   1.601   1.754  0.0276  0.3316  0.1855
  171MOL   C21537955   5.109   1.860   1.871  0.8930  0.3160  0.7303
  171MOL   H21637956   4.983   1.841   1.698 -0.6319 -1.1021 -0.1486
  171MOL   H21737957   4.750   1.605   1.821 -1.9909 -0.2741 -2.2655
  171MOL   H21837958   4.814   1.653   1.661 -1.5529 -0.6079 -0.0001
  171MOL   H21937959   4.852   1.495   1.737  2.7490  1.0432 -2.0731
  171MOL   H22037960   5.106   1.850   1.979  0.8822  2.3566  0.9263
  171MOL   H22137961   5.135   1.964   1.851 -2.6267  0.8247 -1.7943
  171MOL   H22237962   5.189   1.795   1.835 -0.2940 -0.8101  0.0519
  172MOL     C137963   5.711   2.108   1.964 -0.3119 -0.0760 -0.8618
  172MOL     C237964   5.610   2.209   1.905 -0.5669  0.3146  0.7669
  172MOL     O337965   5.584   2.313   1.966  0.1705 -0.1727 -0.6318
  172MOL     C437966   5.522   2.149   1.789  0.4680  0.0233 -0.4759
  172MOL     C537967   5.762   2.153   2.109  0.3627 -0.5028 -0.0740
  172MOL     H637968   5.676   2.005   1.970  2.2097 -0.8679  1.1518
  172MOL     H737969   5.449   2.082   1.835  0.3381  0.9250  0.6602
  172MOL     H837970   5.454   2.228   1.759 -0.4730 -0.6397 -0.1187
  172MOL     H937971   5.572   2.106   1.703  0.9732 -0.0702 -0.1358
  172MOL    H1037972   5.776   2.260   2.119  3.6116 -0.5109 -3.5573
  172MOL    H1137973   5.859   2.105   2.122 -0.5336 -1.5236  3.3083
  172MOL    H1237974   5.794   2.114   1.895 -0.6952  0.9126 -1.2406
  172MOL    C1337975   5.686   2.071   2.218  0.6964 -0.2525 -0.6399
  172MOL    C1437976   5.538   2.069   2.205 -0.5300  0.2191  0.2621
  172MOL    O1537977   5.483   1.960   2.189 -0.0432  0.1227  0.0899
  172MOL    C1637978   5.461   2.199   2.219 -0.4649  0.4085 -0.3992
  172MOL    C1737979   5.718   2.107   2.367 -0.7824  0.1735  0.2998
  172MOL    H1837980   5.715   1.969   2.195  2.0978 -0.1720  0.7161
  172MOL    H1937981   5.411   2.215   2.315 -1.9435 -0.9261 -0.9305
  172MOL    H2037982   5.518   2.288   2.192 -0.2832 -0.2938 -2.3510
  172MOL    H2137983   5.372   2.192   2.156 -1.6726  2.4409  1.0054
  172MOL    H2237984   5.654   2.190   2.397 -1.9730 -0.6328  0.0130
  172MOL    H2337985   5.823   2.135   2.363 -1.0269  0.8679 -2.7476
  172MOL    C2437986   5.700   1.994   2.468  0.1438  0.2728 -0.0000
  172MOL    C2537987   5.727   2.044   2.616  0.5417  0.3669 -0.2586
  172MOL    O2637988   5.793   2.141   2.638 -0.4496  0.1021  0.2707
  172MOL    C2737989   5.666   1.959   2.733  0.3010  0.2290  0.1526
  172MOL    C2837990   5.795   1.872   2.450  0.3061 -1.1459  0.2225
  172MOL    H2937991   5.598   1.956   2.467 -0.0687  0.8425 -1.9681
  172MOL    H3037992   5.588   2.017   2.781 -0.0175 -2.0785  2.5592
  172MOL    H3137993   5.619   1.869   2.692 -2.6432  1.0227  1.6950
  172MOL    H3237994   5.749   1.935   2.800  0.0438 -0.3146  0.2820
  172MOL    H3337995   5.773   1.806   2.366  0.0495 -0.8530  0.0577
  172MOL    H3437996   5.778   1.801   2.531 -2.8480 -1.2867 -0.4878
  172MOL    C3537997   5.945   1.898   2.456 -0.6497  0.2349 -0.2757
  172MOL    C3637998   6.016   1.904   2.319 -0.4430  0.6550  0.4155
  172MOL    O3737999   6.018   1.812   2.239  0.5629 -0.2320  0.4484
  172MOL    C3838000   6.092   2.033   2.278 -0.2317 -0.0987  0.6209
  172MOL    C3938001   6.016   1.796   2.555  0.7554  0.2204 -0.3734
  172MOL    H4038002   5.956   2.001   2.492 -1.2312 -0.5796  2.3648
  172MOL    H4138003   6.067   2.113   2.347  1.7498  1.5601 -0.5242
  172MOL    H4238004   6.199   2.021   2.298 -0.1786  2.0761  1.7613
  172MOL    H4338005   6.079   2.078   2.179 -0.5977 -2.3526 -0.3963
  172MOL    H4438006   6.001   1.701   2.502 -1.2624  2.2903 -3.6527
  172MOL    H4538007   5.964   1.784   2.650 -0.4448  3.6744 -0.5612
  172MOL    C4638008   6.165   1.828   2.595  0.7111 -0.0698 -0.1839
  172MOL    C4738009   6.202   1.976   2.616 -0.1318  0.1508  0.3067
  172MOL    O4838010   6.286   2.035   2.544  0.5963  0.1358 -0.9555
  172MOL    C4938011   6.139   2.050   2.731 -0.0497  0.2154 -0.6460
  172MOL    C5038012   6.261   1.750   2.505  0.1147 -0.5522 -0.1379
  172MOL    H5138013   6.180   1.772   2.688  0.4341 -1.1928 -0.8050
  172MOL    H5238014   6.166   1.998   2.823 -1.0159  0.4099 -0.2342
  172MOL    H5338015   6.171   2.153   2.718  0.0281  0.4064  0.8975
  172MOL    H5438016   6.031   2.033   2.732  0.1093 -0.8233  0.7309
  172MOL    H5538017   6.269   1.792   2.405  2.5170 -1.7326 -0.4685
  172MOL    H5638018   6.209   1.654   2.503 -1.0984 -0.0262  3.4322
  172MOL    C5738019   6.410   1.712   2.547 -0.4824  0.4453  0.5881
  172MOL    C5838020   6.513   1.793   2.467 -0.5212  0.1792  0.4403
  172MOL    O5938021   6.513   1.801   2.346  0.0900 -0.5621 -0.3558
  172MOL    C6038022   6.598   1.886   2.548 -0.0970 -0.3295  0.5152
  172MOL    C6138023   6.439   1.561   2.537 -0.0549  0.2527 -0.6761
  172MOL    H6238024   6.419   1.751   2.648 -1.5064 -1.2932  1.3677
  172MOL    H6338025   6.660   1.951   2.486 -2.0714  1.9212  0.8048
  172MOL    H6438026   6.531   1.963   2.587 -2.7248 -0.2837 -3.7683
  172MOL    H6538027   6.660   1.836   2.623  0.9428 -0.3544 -0.3579
  172MOL    H6638028   6.378   1.514   2.614  1.7899 -1.4028 -0.1863
  172MOL    H6738029   6.540   1.554   2.577  1.2700  0.8244 -3.7961
  172MOL    C6838030   6.442   1.498   2.391  0.5890 -0.2879 -0.2028
  172MOL    C6938031   6.304   1.441   2.346 -0.4059 -0.2661 -0.0525
  172MOL    O7038032   6.229   1.389   2.431  0.0068  0.2010 -0.1694
  172MOL    C7138033   6.269   1.443   2.201 -0.0670  0.1033  0.5160
  172MOL    C7238034   6.544   1.383   2.392 -0.2113 -0.3771  0.3315
  172MOL    H7338035   6.457   1.575   2.316 -1.6818  0.8501  0.4610
  172MOL    H7438036   6.317   1.359   2.150 -0.0367 -2.4771  4.5419
  172MOL    H7538037   6.163   1.423   2.185  0.4505 -0.7944 -2.0720
  172MOL    H7638038   6.292   1.536   2.150 -0.4196 -0.2679 -0.3424
  172MOL    H7738039   6.503   1.295   2.341 -0.2402 -0.3306  0.2746
  172MOL    H7838040   6.572   1.340   2.488  0.6022 -1.2523 -0.2831
  172MOL    C7938041   6.675   1.433   2.322  0.2028 -0.2510  0.1576
  172MOL    C8038042   6.659   1.455   2.171  0.5474 -0.2251 -0.0677
  172MOL    O8138043   6.653   1.359   2.095 -0.5121  0.2670  0.5550
  172MOL    C8238044   6.655   1.597   2.109 -0.5389 -0.1926  0.3105
  172MOL    C8338045   6.802   1.343   2.361  0.1950 -0.1111  0.6180
  172MOL    H8438046   6.699   1.530   2.367 -2.6105 -0.0411  1.3480
  172MOL    H8538047   6.550   1.602   2.082  0.1263 -1.8820 -2.8133
  172MOL    H8638048   6.688   1.676   2.177 -0.6127 -0.8306  1.0985
  172MOL    H8738049   6.713   1.603   2.016 -0.5260  1.9061  0.4310
  172MOL    H8838050   6.765   1.241   2.372 -1.3823  0.3739 -0.1135
  172MOL    H8938051   6.821   1.366   2.466  1.1190  0.7310  0.2728
  172MOL    C9038052   6.937   1.343   2.275  0.3334 -0.0380  0.3826
  172MOL    C9138053   7.031   1.237   2.331  0.0968 -0.2106 -0.0375
  172MOL    O9238054   7.140   1.273   2.381 -0.0348 -0.3564 -0.7155
  172MOL    C9338055   7.004   1.091   2.305  0.2827  0.4425  0.1810
  172MOL    C9438056   7.010   1.477   2.251 -0.3737  0.2746  0.3357
  172MOL    H9538057   6.903   1.307   2.178 -0.0891 -1.3177  0.9941
  172MOL    H9638058   7.079   1.037   2.248 -0.2978  1.4294 -1.5633
  172MOL    H9738059   7.001   1.054   2.408  0.3895 -1.5097 -0.5074
  172MOL    H9838060   6.906   1.073   2.261  1.4806 -2.4856 -1.3731
  172MOL    H9938061   7.049   1.520   2.344 -2.2981 -0.1521  1.3736
  172MOL   H10038062   6.942   1.554   2.214  0.8131  1.3236  0.3250
  172MOL   C10138063   7.132   1.482   2.149 -0.8923  0.3083  0.5231
  172MOL   C10238064   7.262   1.551   2.197  0.5259  0.1311 -0.6330
  172MOL   O10338065   7.369   1.502   2.169 -0.1815 -0.8207  0.3254
  172MOL   C10438066   7.244   1.676   2.286  0.0369  0.6580 -0.2664
  172MOL   C10538067   7.081   1.547   2.014  0.0341  0.5793  0.3155
  172MOL   H10638068   7.160   1.379   2.129 -3.2739 -0.2368 -0.2337
  172MOL   H10738069   7.271   1.659   2.390  1.6407  1.6208 -0.5177
  172MOL   H10838070   7.299   1.761   2.245  1.8147 -0.6957 -0.7176
  172MOL   H10938071   7.139   1.707   2.285  0.0776  0.9397  1.9397
  172MOL   H11038072   7.072   1.655   2.026  1.8262  0.7771  0.0114
  172MOL   H11138073   6.980   1.517   1.986 -0.2339  1.4813  0.3007
  172MOL   C11238074   7.174   1.528   1.891 -0.1011  0.5140 -0.5282
  172MOL   C11338075   7.137   1.622   1.780 -0.2972  0.3588  0.1512
  172MOL   O11438076   7.021   1.644   1.745  0.2405  0.2573 -0.2915
  172MOL   C11538077   7.258   1.676   1.705  0.0490  0.8331 -0.3543
  172MOL   C11638078   7.192   1.379   1.848 -0.3238  0.6026 -0.1555
  172MOL   H11738079   7.269   1.566   1.929 -0.7737  1.5775  0.0830
  172MOL   H11838080   7.358   1.665   1.748 -0.3278  0.6814  0.4954
  172MOL   H11938081   7.266   1.625   1.609 -3.6326 -0.0249 -0.2905
  172MOL   H12038082   7.247   1.784   1.701  0.7723  0.9728  0.9873
  172MOL   H12138083   7.209   1.309   1.931 -1.1617  0.3086 -0.2312
  172MOL   H12238084   7.282   1.384   1.786 -1.3794 -0.1576 -1.7746
  172MOL   C12338085   7.088   1.308   1.755 -0.3481  0.7796 -0.1585
  172MOL   C12438086   6.964   1.266   1.837  0.8194  0.1719 -0.0865
  172MOL   O12538087   6.972   1.240   1.956 -0.3623  0.0037 -0.4733
  172MOL   C12638088   6.830   1.249   1.767 -0.1144  0.0728  0.5978
  172MOL   C12738089   7.140   1.183   1.693  0.2229  0.2715 -0.4607
  172MOL   H12838090   7.060   1.361   1.664  0.7108 -1.4997 -1.8801
  172MOL   H12938091   6.793   1.349   1.743  0.8737  0.2097 -0.4061
  172MOL   H13038092   6.834   1.181   1.682  1.2680  0.5331  0.2803
  172MOL   H13138093   6.762   1.205   1.840 -0.3659 -3.2760 -1.5459
  172MOL   H13238094   7.208   1.220   1.616  0.4860  0.1893 -0.2701
  172MOL   H13338095   7.063   1.145   1.625  0.7476 -0.7952 -0.4736
  172MOL   C13438096   7.197   1.059   1.769  0.0306  0.8300 -0.0074
  172MOL   C13538097   7.325   1.082   1.835 -0.6031  0.0686 -0.5125
  172MOL   O13638098   7.397   1.169   1.790 -0.1039  0.1734 -0.1337
  172MOL   C13738099   7.354   1.010   1.967  0.2354 -0.1338 -0.6617
  172MOL   C13838100   7.206   0.940   1.670  0.2471  0.1579 -0.5275
  172MOL   H13938101   7.132   1.042   1.855 -0.4308  0.2794 -0.4580
  172MOL   H14038102   7.411   0.917   1.959  0.7786 -0.0883  1.9530
  172MOL   H14138103   7.420   1.072   2.029 -0.0184 -0.8383  0.3280
  172MOL   H14238104   7.268   0.976   2.025  1.4926  0.6556  1.7385
  172MOL   H14338105   7.285   0.870   1.697  0.2378  0.5425  0.5283
  172MOL   H14438106   7.229   0.975   1.569 -2.0077  1.8539 -0.4907
  172MOL   C14538107   7.071   0.862   1.656  0.4226 -0.7112  0.1721
  172MOL   C14638108   7.042   0.772   1.775  0.4517  0.0841 -0.4286
  172MOL   O14738109   7.106   0.668   1.785 -0.1070  0.3956 -0.0241
  172MOL   C14838110   6.939   0.827   1.882 -0.4622 -0.1879  0.4848
  172MOL   C14938111   7.059   0.785   1.520  0.4210 -0.8158 -0.1223
  172MOL   H15038112   6.986   0.931   1.664  2.1608  1.5602 -0.3546
  172MOL   H15138113   6.927   0.762   1.969  0.7768 -0.6629  0.3077
  172MOL   H15238114   6.971   0.918   1.933  2.8228  0.6623 -2.9281
  172MOL   H15338115   6.848   0.859   1.830  0.2458 -1.4260 -1.5687
  172MOL   H15438116   7.153   0.729   1.515 -0.0276 -1.4936 -1.2289
  172MOL   H15538117   7.071   0.861   1.443 -0.0780 -1.2744 -0.6617
  172MOL   C15638118   6.930   0.709   1.492 -0.1987  0.5106  0.2836
  172MOL   C15738119   6.965   0.577   1.417  0.0360  0.0083 -0.1214
  172MOL   O15838120   7.051   0.572   1.336 -0.0744 -0.0763  0.3914
  172MOL   C15938121   6.885   0.458   1.465  0.2981 -0.3371  0.1075
  172MOL   C16038122   6.820   0.786   1.421  0.3977  0.3032  0.5742
  172MOL   H16138123   6.886   0.672   1.584  0.6962  4.3771  2.3862
  172MOL   H16238124   6.902   0.427   1.568  2.8752  0.3576 -0.0641
  172MOL   H16338125   6.782   0.491   1.453  0.6978  0.9052 -0.0182
  172MOL   H16438126   6.894   0.376   1.393  2.9597 -0.2129  0.2243
  172MOL   H16538127   6.762   0.716   1.361  0.9084  1.2424 -1.0457
  172MOL   H16638128   6.879   0.834   1.343 -0.8719 -0.0908 -0.6369
  172MOL   C16738129   6.727   0.869   1.515  0.5481  0.6883  0.7211
  172MOL   C16838130   6.624   0.787   1.592  0.4473  0.3909 -0.1086
  172MOL   O16938131   6.588   0.676   1.555 -0.1080 -0.4638 -0.5276
  172MOL   C17038132   6.567   0.860   1.715 -0.5001 -0.0662 -0.4023
  172MOL   C17138133   6.670   0.996   1.445  0.3230 -0.8478 -0.2659
  172MOL   H17238134   6.796   0.909   1.590 -0.9318  2.2036  1.3171
  172MOL   H17338135   6.645   0.844   1.789 -1.2827 -0.0186  0.4482
  172MOL   H17438136   6.556   0.968   1.702 -0.3683  0.0782  0.6448
  172MOL   H17538137   6.482   0.815   1.767  1.4205 -0.3510  2.6067
  172MOL   H17638138   6.759   1.037   1.397  1.1107  1.1682  2.7554
  172MOL   H17738139   6.631   1.072   1.512  0.3495  0.5349 -1.7865
  172MOL   C17838140   6.562   0.963   1.338  0.2646  0.0976 -0.0649
  172MOL   C17938141   6.578   1.034   1.202  0.2761 -0.1314  0.4847
  172MOL   O18038142   6.615   1.152   1.187  0.1853 -0.0979 -0.3000
  172MOL   C18138143   6.535   0.964   1.073 -0.1749  0.3353  0.7270
  172MOL   C18238144   6.414   0.972   1.379 -0.0629  0.0885 -0.3635
  172MOL   H18338145   6.583   0.860   1.310 -3.6378 -0.8585  0.2508
  172MOL   H18438146   6.615   0.895   1.047 -1.1207 -1.1328  1.7013
  172MOL   H18538147   6.446   0.904   1.091  0.0743 -0.0542  0.6692
  172MOL   H18638148   6.529   1.036   0.991 -1.9720 -2.1078 -1.3540
  172MOL   H18738149   6.404   0.910   1.468  2.1022 -0.1438 -0.2499
  172MOL   H18838150   6.356   0.926   1.299  0.9722  1.4174 -1.9280
  172MOL   C18938151   6.357   1.117   1.402  0.3989 -0.7760 -0.3224
  172MOL   C19038152   6.354   1.156   1.549  0.7180 -0.1215 -0.1615
  172MOL   O19138153   6.441   1.227   1.593 -0.7193  0.1682  0.5962
  172MOL   C19238154   6.255   1.080   1.639 -0.0076  0.0284 -0.1434
  172MOL   C19338155   6.219   1.143   1.329 -0.3164 -0.5118 -0.3743
  172MOL   H19438156   6.427   1.191   1.363 -2.8538  2.6193 -0.0791
  172MOL   H19538157   6.192   1.005   1.593 -2.1196  1.2363  0.7319
  172MOL   H19638158   6.313   1.020   1.709  0.8282 -0.2996 -1.0996
  172MOL   H19738159   6.201   1.164   1.682 -0.4908 -0.3886  0.0656
  172MOL   H19838160   6.163   1.227   1.373  1.0817 -0.5035  1.4338
  172MOL   H19938161   6.156   1.057   1.350  1.4471 -1.3858  1.3798
  172MOL   C20038162   6.237   1.174   1.176 -0.0537 -0.3249  0.0002
  172MOL   C20138163   6.313   1.309   1.151  1.0051  0.3569 -0.2276
  172MOL   O20238164   6.307   1.401   1.232  0.2949  0.1717  0.2331
  172MOL   C20338165   6.384   1.324   1.018  0.1223  0.4594 -0.0120
  172MOL   C20438166   6.105   1.164   1.087 -0.2154 -1.0193  0.0300
  172MOL   H20538167   6.294   1.092   1.133  0.3359  0.0633 -0.2196
  172MOL   H20638168   6.368   1.245   0.944 -1.2072  0.6603  0.0577
  172MOL   H20738169   6.356   1.419   0.975  1.5965  1.0276  0.2429
  172MOL   H20838170   6.491   1.337   1.034  0.0924 -1.4276  2.0941
  172MOL   H20938171   6.059   1.069   1.114 -0.1787 -1.5876 -1.8460
  172MOL   H21038172   6.132   1.161   0.982  0.0789  0.2764  0.0594
  172MOL   C21138173   6.006   1.285   1.090  0.3942 -0.1673  0.2469
  172MOL   C21238174   5.932   1.312   1.222 -0.2624  0.8001 -0.2306
  172MOL   O21338175   5.861   1.224   1.271 -0.0258  0.3439  0.2997
  172MOL   C21438176   5.962   1.443   1.300 -0.4180  0.6597  0.2216
  172MOL   C21538177   5.908   1.270   0.980  0.4504  0.8701  0.1617
  172MOL   H21638178   6.064   1.374   1.066 -0.5932  1.0008  2.0111
  172MOL   H21738179   6.009   1.422   1.396  0.5916 -2.7068 -0.9409
  172MOL   H21838180   6.024   1.506   1.236 -0.1727  0.4253  0.2273
  172MOL   H21938181   5.873   1.505   1.317 -1.0361 -0.1073 -0.2019
  172MOL   H22038182   5.955   1.271   0.881 -1.5387  1.3983 -0.8041
  172MOL   H22138183   5.829   1.346   0.971  1.5588  1.8781 -1.3579
  172MOL   H22238184   5.853   1.176   0.984  1.1573  0.3989 -0.8690
  173MOL     C138185   2.972   1.101   6.326 -0.1573  0.3187  0.0575
  173MOL     C238186   2.909   1.232   6.374 -0.2554 -0.4484  0.0300
  173MOL     O338187   2.858   1.245   6.487 -0.3282  0.1331  0.3699
  173MOL     C438188   2.902   1.352   6.281  0.0057  0.1872  0.7741
  173MOL     C538189   3.123   1.119   6.292 -0.4014  0.5405 -0.6088
  173MOL     H638190   2.941   1.016   6.387  1.7291 -0.0761  0.5072
  173MOL     H738191   3.001   1.376   6.242 -1.3971  0.6389 -2.6991
  173MOL     H838192   2.827   1.329   6.206  1.8002 -0.1960 -0.9514
  173MOL     H938193   2.865   1.439   6.335  0.2614 -0.3252  1.8020
  173MOL    H1038194   3.183   1.122   6.383  1.8641  1.3228 -2.0901
  173MOL    H1138195   3.127   1.213   6.237 -2.1139  1.2929  0.5031
  173MOL    H1238196   2.926   1.082   6.230  2.0006  2.3574 -1.4508
  173MOL    C1338197   3.181   1.008   6.199  0.4578 -0.0901  0.0718
  173MOL    C1438198   3.167   0.873   6.270 -0.3665 -0.5136 -0.4878
  173MOL    O1538199   3.185   0.857   6.394  0.3987  0.2278  0.6281
  173MOL    C1638200   3.121   0.756   6.186  0.0797  0.3370  0.2489
  173MOL    C1738201   3.325   1.054   6.147 -0.0367 -0.1969  0.0513
  173MOL    H1838202   3.116   0.992   6.113 -0.7168 -0.3646  0.9946
  173MOL    H1938203   3.033   0.778   6.125  0.0013 -3.5101 -1.1476
  173MOL    H2038204   3.199   0.720   6.119 -0.2212  0.5033 -0.1904
  173MOL    H2138205   3.091   0.667   6.242 -0.4899 -0.1786 -0.8442
  173MOL    H2238206   3.371   0.969   6.096 -1.0346 -0.6483 -0.0994
  173MOL    H2338207   3.382   1.045   6.239 -1.1986 -1.7916  0.6285
  173MOL    C2438208   3.345   1.181   6.068 -0.3886  0.0320 -0.2751
  173MOL    C2538209   3.265   1.184   5.933  0.6849  0.2770  0.0133
  173MOL    O2638210   3.223   1.083   5.875  0.5003 -0.1900 -0.5075
  173MOL    C2738211   3.224   1.327   5.880 -0.7453  0.0536 -0.3403
  173MOL    C2838212   3.491   1.235   6.044 -0.0302  0.2743 -0.2580
  173MOL    H2938213   3.307   1.258   6.134  0.4903  0.6036 -0.4291
  173MOL    H3038214   3.127   1.358   5.919 -0.7812 -1.5096  0.8663
  173MOL    H3138215   3.304   1.394   5.911  0.9748 -0.5161 -3.3369
  173MOL    H3238216   3.221   1.332   5.771  0.7296  0.8858 -0.3512
  173MOL    H3338217   3.534   1.258   6.141 -0.2327 -1.6770  0.3233
  173MOL    H3438218   3.495   1.327   5.987 -1.4086 -0.2154 -1.1910
  173MOL    C3538219   3.588   1.128   5.983  0.6686 -0.3741 -0.0292
  173MOL    C3638220   3.658   1.041   6.091 -0.2644  0.1867  0.4202
  173MOL    O3738221   3.632   0.926   6.117 -0.0629 -0.3111 -0.4297
  173MOL    C3838222   3.770   1.111   6.175 -0.4059  0.2467  0.1036
  173MOL    C3938223   3.688   1.192   5.881 -0.5180 -0.5723 -1.1852
  173MOL    H4038224   3.529   1.052   5.932  2.2505 -1.7268  0.1289
  173MOL    H4138225   3.868   1.064   6.164 -0.8821 -1.1621  1.6715
  173MOL    H4238226   3.773   1.220   6.180 -0.9376  0.2864 -0.3533
  173MOL    H4338227   3.742   1.076   6.274  0.9496 -0.0834  0.3799
  173MOL    H4438228   3.771   1.235   5.937 -0.5467 -0.4570 -1.2320
  173MOL    H4538229   3.646   1.277   5.828  1.2650  0.9970 -0.1441
  173MOL    C4638230   3.728   1.097   5.764  0.1849 -0.2303  0.1435
  173MOL    C4738231   3.837   1.002   5.811 -0.2257  0.5947 -0.0805
  173MOL    O4838232   3.917   1.032   5.899 -0.3646  0.0716 -0.2443
  173MOL    C4938233   3.850   0.864   5.750  0.2170 -0.2831  0.5242
  173MOL    C5038234   3.764   1.168   5.636 -0.3107 -0.2070  0.8864
  173MOL    H5138235   3.654   1.019   5.746 -0.9692  1.1924 -1.3316
  173MOL    H5238236   3.791   0.799   5.815  2.9748 -1.6505  1.7608
  173MOL    H5338237   3.810   0.875   5.650  0.8569 -1.9119  0.0748
  173MOL    H5438238   3.955   0.837   5.740  0.7099  1.6750  0.2023
  173MOL    H5538239   3.850   1.125   5.586 -1.3318 -0.9009 -0.3226
  173MOL    H5638240   3.788   1.271   5.660 -1.4547  0.2226  0.2484
  173MOL    C5738241   3.650   1.173   5.527 -0.3561 -0.0972 -0.1159
  173MOL    C5838242   3.521   1.237   5.582  0.3425  0.1302  0.3931
  173MOL    O5938243   3.429   1.162   5.621 -0.3632  0.0162  0.6042
  173MOL    C6038244   3.501   1.387   5.592  0.4376  0.0570  0.5860
  173MOL    C6138245   3.632   1.037   5.452 -0.4235  0.9005  0.6942
  173MOL    H6238246   3.683   1.245   5.452  1.9355 -1.2706 -0.2719
  173MOL    H6338247   3.397   1.420   5.585 -0.1851 -2.0074 -0.2761
  173MOL    H6438248   3.541   1.414   5.689  1.3127  0.7904  0.0215
  173MOL    H6538249   3.554   1.432   5.508 -0.5540  0.1441 -0.0096
  173MOL    H6638250   3.541   1.025   5.394  0.6721  1.3748 -1.1462
  173MOL    H6738251   3.622   0.961   5.530 -1.3577  1.3700  1.0518
  173MOL    C6838252   3.751   1.003   5.356  0.1134  0.8657 -0.1107
  173MOL    C6938253   3.756   1.107   5.241 -0.9818  0.0195 -0.4548
  173MOL    O7038254   3.853   1.181   5.224 -0.3461 -0.0347 -0.4176
  173MOL    C7138255   3.641   1.108   5.143 -0.8514 -0.4700  0.1225
  173MOL    C7238256   3.753   0.857   5.296 -0.3790  0.2824  0.3814
  173MOL    H7338257   3.840   1.017   5.416 -1.0559 -1.2027  2.2283
  173MOL    H7438258   3.691   1.071   5.053  0.4006 -0.1320  0.6697
  173MOL    H7538259   3.562   1.045   5.183 -0.6871 -1.8260 -1.6151
  173MOL    H7638260   3.594   1.205   5.130  2.0391  1.0578  0.6410
  173MOL    H7738261   3.667   0.840   5.231  1.0711 -0.2528 -1.4514
  173MOL    H7838262   3.733   0.782   5.372 -0.3590  0.0892  0.1950
  173MOL    C7938263   3.892   0.810   5.252 -0.5116 -0.0380  0.2441
  173MOL    C8038264   3.923   0.873   5.114  0.4193  0.2499  0.5708
  173MOL    O8138265   3.842   0.861   5.019 -0.0771 -0.7099 -0.1226
  173MOL    C8238266   4.052   0.952   5.100 -0.1856 -0.1462  0.2767
  173MOL    C8338267   3.899   0.656   5.250  0.8772 -0.9659  0.0728
  173MOL    H8438268   3.956   0.847   5.332 -0.6681 -1.1594  0.9017
  173MOL    H8538269   4.120   0.933   5.183 -1.0173 -3.3880  0.2677
  173MOL    H8638270   4.104   0.925   5.009  0.2509  0.8073  0.2412
  173MOL    H8738271   4.031   1.058   5.113 -1.7682 -0.4509  0.3892
  173MOL    H8838272   3.997   0.628   5.211  0.7039 -0.0022 -1.0845
  173MOL    H8938273   3.823   0.613   5.184 -0.8121 -0.5594  1.7130
  173MOL    C9038274   3.889   0.583   5.381 -0.4187  0.1952  0.6790
  173MOL    C9138275   4.004   0.622   5.483  0.6532  0.1616 -0.4258
  173MOL    O9238276   4.112   0.668   5.442  0.0911 -0.2573 -0.5875
  173MOL    C9338277   3.991   0.581   5.625 -0.0408 -0.1566  0.1224
  173MOL    C9438278   3.899   0.428   5.349  0.6952 -0.1056 -0.4715
  173MOL    H9538279   3.790   0.591   5.427 -0.9995 -2.7483  0.0169
  173MOL    H9638280   4.047   0.652   5.686  1.8675  0.2152 -2.0146
  173MOL    H9738281   3.890   0.573   5.665 -0.9157 -0.9156 -2.1468
  173MOL    H9838282   4.031   0.482   5.648 -1.8991 -0.9470  0.1083
  173MOL    H9938283   3.915   0.367   5.439  0.3690  0.8581  0.2549
  173MOL   H10038284   3.994   0.407   5.301  0.5584  0.6677 -1.0826
  173MOL   C10138285   3.762   0.365   5.296 -0.6448  0.1686  0.0704
  173MOL   C10238286   3.670   0.358   5.421  0.1918 -0.2177 -0.0980
  173MOL   O10338287   3.671   0.267   5.501 -0.0655 -0.3812 -0.0549
  173MOL   C10438288   3.549   0.450   5.419 -0.7694 -0.4659  0.0033
  173MOL   C10538289   3.793   0.225   5.233 -0.7222 -0.1327  0.0328
  173MOL   H10638290   3.727   0.429   5.215  0.6463  0.1759 -0.5108
  173MOL   H10738291   3.554   0.506   5.513 -3.0601 -1.4272  0.7226
  173MOL   H10838292   3.541   0.516   5.332  3.6629 -1.5058 -1.3218
  173MOL   H10938293   3.463   0.383   5.420 -1.1479 -0.0359 -1.8864
  173MOL   H11038294   3.818   0.145   5.302 -0.2330 -1.4645 -1.6462
  173MOL   H11138295   3.889   0.221   5.182 -0.4634  0.7145  0.4498
  173MOL   C11238296   3.693   0.174   5.127 -0.1734  0.1272 -1.0749
  173MOL   C11338297   3.679   0.245   4.984  0.3035  0.2773  0.6810
  173MOL   O11438298   3.711   0.362   4.967  0.0918  0.1345 -0.0003
  173MOL   C11538299   3.619   0.161   4.873  0.2696  0.2810  0.0975
  173MOL   C11638300   3.548   0.157   5.183  0.3301  0.0280 -0.3152
  173MOL   H11738301   3.721   0.071   5.104  2.4896  1.4633 -4.3136
  173MOL   H11838302   3.668   0.064   4.881 -0.5735 -0.0700  1.2286
  173MOL   H11938303   3.510   0.152   4.878  0.1938  0.2934 -1.3316
  173MOL   H12038304   3.646   0.209   4.779 -2.1029  1.4349 -0.0513
  173MOL   H12138305   3.485   0.128   5.099 -0.9252 -1.6961  1.1794
  173MOL   H12238306   3.506   0.252   5.216  3.4989  1.9458 -1.5383
  173MOL   C12338307   3.534   0.046   5.287  0.1031  0.5941  0.0373
  173MOL   C12438308   3.554   7.754   5.215 -0.5444  0.1461 -0.1436
  173MOL   O12538309   3.485   7.724   5.120  0.1894 -0.0657 -0.2880
  173MOL   C12638310   3.644   7.647   5.283 -0.1920  0.0158  0.5422
  173MOL   C12738311   3.395   0.055   5.349  1.0061  0.7256  0.8092
  173MOL   H12838312   3.593   0.042   5.378 -0.2365  0.2756  0.2476
  173MOL   H12938313   3.743   7.689   5.300 -0.6604  0.4546  2.3327
  173MOL   H13038314   3.609   7.620   5.383  0.9321 -0.0851  0.9110
  173MOL   H13138315   3.647   7.561   5.217 -3.4318 -0.3866  0.8277
  173MOL   H13238316   3.317   0.043   5.274  0.4981  1.2011  1.2469
  173MOL   H13338317   3.382   0.159   5.379  1.4130  1.5398 -1.7320
  173MOL   C13438318   3.360   7.802   5.470 -0.5854 -0.1028  0.0620
  173MOL   C13538319   3.281   7.677   5.431  0.4538 -0.0741 -0.5706
  173MOL   O13638320   3.174   7.682   5.372  0.2169 -0.0222  0.5381
  173MOL   C13738321   3.336   7.537   5.458 -0.4123 -0.4135  0.3311
  173MOL   C13838322   3.290   0.038   5.582  0.3011 -0.2781  0.4998
  173MOL   H13938323   3.456   7.758   5.500  0.2874  1.4431 -0.3888
  173MOL   H14038324   3.413   7.516   5.383 -0.1430 -0.3125  0.5793
  173MOL   H14138325   3.386   7.526   5.554  0.2567 -2.0769 -0.1777
  173MOL   H14238326   3.259   7.462   5.442 -1.5117  0.7262  0.2587
  173MOL   H14338327   3.236   7.821   5.656  1.2513  0.0029  1.4321
  173MOL   H14438328   3.210   0.092   5.532  1.5177  1.8272  0.7900
  173MOL   C14538329   3.366   0.135   5.672 -0.0937 -0.8201  0.7696
  173MOL   C14638330   3.443   0.055   5.771  0.6489  0.5513 -0.1985
  173MOL   O14738331   3.388   7.821   5.850  0.1190  0.1260  0.2618
  173MOL   C14838332   3.592   0.061   5.753 -0.3079  0.3856 -0.3644
  173MOL   C14938333   3.269   0.228   5.752  0.0867 -0.2720  0.0468
  173MOL   H15038334   3.435   0.194   5.613 -0.3464 -0.8137  0.4765
  173MOL   H15138335   3.636   0.140   5.815  0.5554  0.9346 -1.6731
  173MOL   H15238336   3.630   7.809   5.793 -2.5517 -0.3963  0.0459
  173MOL   H15338337   3.618   0.087   5.651  2.3569  1.9133  0.6318
  173MOL   H15438338   3.203   0.167   5.813  0.0072 -0.8900 -0.6622
  173MOL   H15538339   3.200   0.272   5.680 -1.7273  1.0235  2.5104
  173MOL   C15638340   3.329   0.337   5.845 -0.5648 -0.0587 -0.1427
  173MOL   C15738341   3.235   0.368   5.962  0.1991 -0.2637  0.7861
  173MOL   O15838342   3.213   0.486   5.983 -0.4833 -0.2319  0.2207
  173MOL   C15938343   3.196   0.261   6.065 -0.9291 -0.6535  0.1579
  173MOL   C16038344   3.391   0.461   5.774  0.1374 -0.2357 -0.8368
  173MOL   H16138345   3.415   0.290   5.892  0.9041  0.5192 -2.1706
  173MOL   H16238346   3.255   0.247   6.155  0.9817 -3.0770 -1.4036
  173MOL   H16338347   3.091   0.256   6.093 -0.5000 -0.3183  1.8568
  173MOL   H16438348   3.196   0.156   6.036 -0.4510 -0.5057 -0.4015
  173MOL   H16538349   3.313   0.521   5.727 -1.9941 -0.9177  1.7705
  173MOL   H16638350   3.459   0.416   5.702 -1.4835 -1.8008 -1.3973
  173MOL   C16738351   3.485   0.550   5.861  0.2044  0.0492  0.2488
  173MOL   C16838352   3.525   0.678   5.782 -0.0244  0.4596  0.4188
  173MOL   O16938353   3.613   0.676   5.695  0.4767  0.1332  0.3660
  173MOL   C17038354   3.453   0.808   5.812 -0.0731 -0.3463  0.5866
  173MOL   C17138355   3.611   0.482   5.914  0.5241  0.0994 -0.1001
  173MOL   H17238356   3.438   0.586   5.952 -0.9760  2.0252 -1.0905
  173MOL   H17338357   3.345   0.802   5.823  0.0284 -1.4543  1.0170
  173MOL   H17438358   3.486   0.843   5.909 -0.6401  0.3809  0.5212
  173MOL   H17538359   3.470   0.882   5.734  2.0746 -0.3858  0.9922
  173MOL   H17638360   3.676   0.468   5.827  1.2227 -0.4856  0.5080
  173MOL   H17738361   3.598   0.378   5.942  2.7264 -0.0712  0.4095
  173MOL   C17838362   3.689   0.552   6.023  0.3951  0.6450 -0.2095
  173MOL   C17938363   3.840   0.539   6.009 -0.2674 -0.2732  0.1051
  173MOL   O18038364   3.891   0.441   5.956 -0.2796  0.3299  0.1053
  173MOL   C18138365   3.928   0.650   6.065 -0.3424  0.3927  0.6390
  173MOL   C18238366   3.630   0.521   6.170  0.7791  0.7951  0.8512
  173MOL   H18338367   3.679   0.658   6.000  0.8254  0.2329 -2.3939
  173MOL   H18438368   3.902   0.753   6.044 -0.9348  0.7829  3.0615
  173MOL   H18538369   3.936   0.649   6.174  1.2201  0.4601  0.5291
  173MOL   H18638370   4.028   0.630   6.026 -0.2268 -0.0748  1.1654
  173MOL   H18738371   3.546   0.588   6.191 -0.6412 -0.4759 -0.6246
  173MOL   H18838372   3.706   0.547   6.244  1.1972  2.3324 -0.1095
  173MOL   C18938373   3.600   0.374   6.210 -0.8789  0.4879  0.5428
  173MOL   C19038374   3.558   0.367   6.359 -0.8032 -0.6384 -0.1003
  173MOL   O19138375   3.642   0.379   6.451 -0.0587  0.5106 -0.7237
  173MOL   C19238376   3.410   0.356   6.396  0.0175  0.2473  0.5068
  173MOL   C19338377   3.708   0.264   6.176 -0.0934 -0.3827  0.2165
  173MOL   H19438378   3.512   0.341   6.155 -0.9185  1.8057 -0.2071
  173MOL   H19538379   3.346   0.338   6.309 -0.2870  0.3395  0.7096
  173MOL   H19638380   3.394   0.279   6.471  1.8349  0.2460  0.9109
  173MOL   H19738381   3.384   0.450   6.446  1.1334  0.1959  1.1807
  173MOL   H19838382   3.802   0.308   6.209 -0.8868  1.4650  0.0412
  173MOL   H19938383   3.718   0.256   6.068  1.3243  0.0398  0.3063
  173MOL   C20038384   3.686   0.122   6.233 -0.0184 -0.5884 -0.4761
  173MOL   C20138385   3.799   0.023   6.204  0.0101  0.1226  0.3746
  173MOL   O20238386   3.804   7.805   6.100  0.6060  0.2936 -0.3017
  173MOL   C20338387   3.915   0.023   6.304  1.0078 -0.4310 -0.2349
  173MOL   C20438388   3.545   0.070   6.195 -0.0970 -0.1121 -0.0421
  173MOL   H20538389   3.699   0.146   6.338  2.2683 -0.9254 -0.6650
  173MOL   H20638390   3.894   7.789   6.379  0.2002  1.2422  1.2718
  173MOL   H20738391   4.000   0.004   6.239  0.7947  0.5358 -0.8026
  173MOL   H20838392   3.923   0.121   6.352 -0.7084 -0.7908  0.8431
  173MOL   H20938393   3.527   0.076   6.087 -1.6954 -0.1788  0.2013
  173MOL   H21038394   3.466   0.139   6.226 -1.1798 -1.6069  0.5518
  173MOL   C21138395   3.504   7.770   6.241  0.5754 -0.1716 -0.2224
  173MOL   C21238396   3.363   7.735   6.203 -0.1490 -0.1385  0.3840
  173MOL   O21338397   3.292   7.826   6.157  0.1154 -0.6409  0.2247
  173MOL   C21438398   3.318   7.590   6.209 -0.0170 -0.2299  0.0696
  173MOL   C21538399   3.530   7.753   6.390 -0.8207  0.8723 -0.1453
  173MOL   H21638400   3.572   7.703   6.191  2.2072  2.0081 -1.0075
  173MOL   H21738401   3.360   7.547   6.300  2.2157 -0.7841 -1.1694
  173MOL   H21838402   3.209   7.588   6.210 -0.1015  0.4677 -3.2498
  173MOL   H21938403   3.358   7.538   6.122  0.7228 -0.8601  0.7635
  173MOL   H22038404   3.621   7.807   6.418  0.6096 -0.2715 -2.4693
  173MOL   H22138405   3.540   7.647   6.414 -1.3095  0.5484 -1.3759
  173MOL   H22238406   3.446   7.797   6.444 -1.9251 -2.5263  1.0176
  174MOL     C138407   0.004   2.460   7.497  1.2643  0.0422 -0.2439
  174MOL     C238408   0.076   2.581   7.560 -0.2337 -0.3738  0.0963
  174MOL     O338409   0.050   2.609   7.674 -0.1939  0.5072  0.0930
  174MOL     C438410   0.172   2.665   7.467  0.7127  0.4015  0.1691
  174MOL     C538411   7.813   2.345   7.594 -0.2205 -0.0772 -0.8387
  174MOL     H638412   7.743   2.492   7.483  0.9809 -0.1501  1.3786
  174MOL     H738413   0.110   2.705   7.387 -1.3337  0.0356  1.5226
  174MOL     H838414   0.235   2.732   7.526  3.4867 -3.6832  2.0681
  174MOL     H938415   0.254   2.604   7.430  0.1654 -0.5788  0.5422
  174MOL    H1038416   7.740   2.281   7.543 -0.9271  0.2060 -0.1970
  174MOL    H1138417   7.759   2.386   7.679  1.4289  1.6154 -0.5795
  174MOL    H1238418   0.050   2.423   7.405  0.6444 -1.9386  0.2281
  174MOL    C1338419   0.090   2.252   7.653  0.3973 -0.6130 -0.1981
  174MOL    C1438420   0.216   2.245   7.558 -0.5412  0.7674 -0.2283
  174MOL    O1538421   0.221   2.289   7.441  0.0122  0.0189  0.1457
  174MOL    C1638422   0.339   2.174   7.616 -0.1342 -0.1288 -0.1950
  174MOL    C1738423   0.051   2.112   7.711  0.7945 -0.3210 -0.2920
  174MOL    H1838424   0.120   2.312   7.739 -2.7595 -1.0570  1.2944
  174MOL    H1938425   0.429   2.224   7.579 -0.6971 -0.6743 -2.3435
  174MOL    H2038426   0.328   2.175   7.725  1.7277 -0.2859  0.0194
  174MOL    H2138427   0.343   2.067   7.598  2.7009 -0.5977  2.6387
  174MOL    H2238428   0.138   2.060   7.752  0.5946 -0.0127  0.5170
  174MOL    H2338429   0.027   2.055   7.621 -0.7389  1.9147 -1.3504
  174MOL    C2438430   7.772   2.101   7.801  0.1130  0.0484 -0.0347
  174MOL    C2538431   7.761   2.203   0.078  0.3772 -0.5599  0.8284
  174MOL    O2638432   0.007   2.241   0.154 -0.5386 -0.5790 -0.3882
  174MOL    C2738433   7.622   2.261   0.084  0.7025 -0.4159 -0.2490
  174MOL    C2838434   7.758   1.955   0.019  0.2878 -0.3655  0.5088
  174MOL    H2938435   7.693   2.116   7.729 -2.4554 -1.4176  2.3836
  174MOL    H3038436   7.601   2.316   7.835  2.6528 -0.3922 -0.7062
  174MOL    H3138437   7.545   2.187   0.105  2.5087 -2.2485  0.0643
  174MOL    H3238438   7.606   2.324   0.172  1.2000 -0.9724  0.2488
  174MOL    H3338439   7.704   1.959   0.113 -2.4804  0.6832 -1.0693
  174MOL    H3438440   0.010   1.916   0.059  0.1143 -1.2324  0.0900
  174MOL    C3538441   7.700   1.854   7.762  0.3505  0.5278  0.3699
  174MOL    C3638442   7.562   1.892   7.715 -0.1909  0.1848 -0.0561
  174MOL    O3738443   7.469   1.890   7.798 -0.1795 -0.4112  0.4830
  174MOL    C3838444   7.549   1.949   7.577 -0.1924 -0.2325  0.6276
  174MOL    C3938445   7.719   1.709   7.815 -0.0991  0.5863  0.4507
  174MOL    H4038446   7.759   1.875   7.673 -1.4526  0.9205 -0.7552
  174MOL    H4138447   7.622   1.902   7.512  1.1299  2.1451  0.3481
  174MOL    H4238448   7.448   1.933   7.539  0.0159  0.4061 -0.2321
  174MOL    H4338449   7.558   2.058   7.570 -1.8597 -0.2045 -1.5955
  174MOL    H4438450   7.634   1.684   0.037  0.6272 -2.6417  0.2404
  174MOL    H4538451   7.813   1.701   0.028 -0.8998  1.4214  1.9669
  174MOL    C4638452   7.730   1.586   7.723  0.6647 -0.1458  1.1341
  174MOL    C4738453   7.623   1.576   7.610  0.4619 -0.3448  0.0756
  174MOL    O4838454   7.503   1.558   7.633  0.3821 -0.1907 -0.2943
  174MOL    C4938455   7.665   1.606   7.466  0.0334 -0.7269  0.3598
  174MOL    C5038456   7.750   1.455   7.804  0.8636  0.1439 -0.3612
  174MOL    H5138457   7.819   1.594   7.661  1.2897 -0.8973  1.9088
  174MOL    H5238458   7.765   1.646   7.450  0.0096 -1.3906 -1.6340
  174MOL    H5338459   7.661   1.514   7.407  0.0944 -0.6297  0.2049
  174MOL    H5438460   7.595   1.677   7.422  1.2642  0.3494  0.1159
  174MOL    H5538461   7.662   1.445   0.025  1.3946 -2.5872 -0.0100
  174MOL    H5638462   7.813   1.473   0.049  0.4236  1.8822 -0.3679
  174MOL    C5738463   7.794   1.321   7.729  0.2355  0.0531  1.1330
  174MOL    C5838464   7.674   1.251   7.662  0.4392  0.6958 -0.2412
  174MOL    O5938465   7.687   1.188   7.554  0.1383  0.0104 -0.0491
  174MOL    C6038466   7.540   1.229   7.733 -0.1623  0.3101  0.1745
  174MOL    C6138467   0.009   1.229   7.836 -0.2030 -0.3994  0.2815
  174MOL    H6238468   0.022   1.352   7.651 -0.8231 -0.3302  0.0150
  174MOL    H6338469   7.456   1.214   7.665  1.4262  1.0533 -1.9734
  174MOL    H6438470   7.544   1.145   7.803  0.1514  1.7462  1.9067
  174MOL    H6538471   7.521   1.315   7.797  1.6816  2.0341 -1.5609
  174MOL    H6638472   7.770   1.209   0.064  0.0902  0.2474  0.8113
  174MOL    H6738473   0.080   1.284   0.056 -1.7058  0.9606  0.8413
  174MOL    C6838474   0.073   1.101   7.772 -0.0242  0.4832 -0.5988
  174MOL    C6938475   0.037   0.986   0.022 -0.4380 -0.4166 -0.1059
  174MOL    O7038476   0.106   0.961   0.120  0.2450  0.2298  0.1562
  174MOL    C7138477   7.740   0.914   7.836 -0.3615  0.6805  0.0313
  174MOL    C7238478   0.218   1.130   7.730 -0.1656 -0.2917  0.1325
  174MOL    H7338479   0.020   1.078   7.680  4.0455  1.2857 -3.2904
  174MOL    H7438480   7.648   0.970   7.819 -0.5819  0.8047  1.5400
  174MOL    H7538481   7.744   0.852   7.747 -0.0828  0.3242  0.2901
  174MOL    H7638482   7.731   0.857   0.087  1.0470  1.8417  0.9249
  174MOL    H7738483   0.288   1.149   7.812  0.9929  2.5652 -1.4392
  174MOL    H7838484   0.226   1.226   7.679  2.1019 -0.6185 -0.2037
  174MOL    C7938485   0.283   1.014   7.651 -0.5156  0.2991  0.1145
  174MOL    C8038486   0.436   1.047   7.635  0.1401  0.5643 -1.2621
  174MOL    O8138487   0.466   1.143   7.566 -0.2292 -0.3679  0.9302
  174MOL    C8238488   0.543   0.969   7.714  0.0589 -0.4678  0.6860
  174MOL    C8338489   0.220   1.006   7.509 -0.3628 -1.0563  0.5864
  174MOL    H8438490   0.281   0.920   7.706 -0.4489  0.2310  0.0019
  174MOL    H8538491   0.634   1.026   7.731  1.3136 -2.5674  1.2005
  174MOL    H8638492   0.493   0.952   7.809 -0.8077  2.0587  0.7247
  174MOL    H8738493   0.573   0.875   7.667 -1.1159 -0.4702 -0.0856
  174MOL    H8838494   0.298   1.008   7.433  0.1917 -0.5290  1.1584
  174MOL    H8938495   0.173   1.103   7.491  0.6264 -0.6997 -0.1354
  174MOL    C9038496   0.128   0.881   7.490  0.1843 -0.5578  0.3803
  174MOL    C9138497   0.207   0.756   7.441  0.3406 -0.6952 -0.1894
  174MOL    O9238498   0.261   0.750   7.329  0.3875  0.1205 -0.2828
  174MOL    C9338499   0.222   0.643   7.537 -0.4337  0.2477 -0.2682
  174MOL    C9438500   0.015   0.929   7.398 -0.3803  0.2276 -0.3796
  174MOL    H9538501   0.080   0.859   7.585 -0.6988  1.1847  0.3452
  174MOL    H9638502   0.124   0.603   7.562  0.0051 -0.0134  1.0506
  174MOL    H9738503   0.280   0.569   7.482  0.1054  1.3768 -1.2568
  174MOL    H9838504   0.281   0.674   7.624 -0.1845  0.4697 -0.5148
  174MOL    H9938505   0.071   0.963   7.311  0.6350 -1.0650 -0.2471
  174MOL   H10038506   7.806   1.008   7.453 -0.1429 -0.8918  1.4691
  174MOL   C10138507   7.753   0.818   7.361  0.2710 -0.1956 -0.5063
  174MOL   C10238508   7.644   0.882   7.273 -0.2510 -0.3964 -0.5325
  174MOL   O10338509   7.609   0.840   7.162 -0.1705  0.6073 -0.2767
  174MOL   C10438510   7.569   1.004   7.337 -0.4169  0.0672 -0.6318
  174MOL   C10538511   7.683   0.758   7.489 -0.1938  0.1079  0.0259
  174MOL   H10638512   7.807   0.744   7.302 -1.5046 -1.9699  0.0258
  174MOL   H10738513   7.533   1.009   7.440 -0.3389  3.1083 -0.6942
  174MOL   H10838514   7.627   1.092   7.308  0.5500 -0.5795 -0.7032
  174MOL   H10938515   7.475   1.015   7.283 -1.8318 -0.5254  1.6535
  174MOL   H11038516   7.638   0.839   7.546  0.4108 -0.6554  1.6376
  174MOL   H11138517   7.749   0.706   7.559 -1.1127 -1.8234 -0.4820
  174MOL   C11238518   7.560   0.659   7.466 -0.1120 -0.9238  0.0288
  174MOL   C11338519   7.486   0.646   7.596 -0.0887  0.4990 -0.2542
  174MOL   O11438520   7.554   0.614   7.698 -0.5359 -0.2376  0.0040
  174MOL   C11538521   7.329   0.654   7.599 -0.1527  0.2131  0.0886
  174MOL   C11638522   7.603   0.528   7.420 -0.2437  0.0511  0.5309
  174MOL   H11738523   7.492   0.701   7.392  1.0280 -1.0177 -1.1041
  174MOL   H11838524   7.287   0.673   7.698  0.3238  0.0577  0.3231
  174MOL   H11938525   7.294   0.721   7.520  0.7455 -0.3113 -0.7637
  174MOL   H12038526   7.306   0.555   7.560  1.4135 -0.5451  1.0032
  174MOL   H12138527   7.647   0.471   7.503  1.5354 -0.7173 -0.9147
  174MOL   H12238528   7.692   0.540   7.358 -1.6108 -0.5046 -1.5548
  174MOL   C12338529   7.498   0.433   7.351  0.1332 -0.3721 -0.3551
  174MOL   C12438530   7.555   0.290   7.318  0.3734  0.5354  0.5233
  174MOL   O12538531   7.661   0.282   7.250 -0.0860  0.0212  0.5112
  174MOL   C12638532   7.479   0.172   7.373 -0.1947 -0.3789 -0.2078
  174MOL   C12738533   7.441   0.496   7.224  0.1791  0.1567 -0.9027
  174MOL   H12838534   7.425   0.411   7.429  0.5917  0.1505  0.2312
  174MOL   H12938535   7.373   0.195   7.373  0.0168  0.6452  0.4509
  174MOL   H13038536   7.486   0.080   7.316  2.4736 -0.3469 -0.0139
  174MOL   H13138537   7.500   0.148   7.478  0.1685 -0.7467 -0.3660
  174MOL   H13238538   7.476   0.436   7.140  0.8936 -1.4259  0.4597
  174MOL   H13338539   7.471   0.600   7.220  0.2558  0.4085  3.5435
  174MOL   C13438540   7.292   0.516   7.228 -0.1751 -0.8359 -0.9385
  174MOL   C13538541   7.205   0.391   7.253  0.8271  0.0257 -0.0198
  174MOL   O13638542   7.146   0.368   7.358  0.0162 -0.0099  0.0149
  174MOL   C13738543   7.209   0.275   7.149 -0.8086  0.1625  0.2423
  174MOL   C13838544   7.251   0.585   7.095 -0.6656 -0.1512  0.0119
  174MOL   H13938545   7.276   0.576   7.318 -1.2774  1.4113 -2.5889
  174MOL   H14038546   7.153   0.305   7.061  0.9775 -0.6435 -1.1840
  174MOL   H14138547   7.305   0.236   7.117 -1.5212 -0.2651 -1.4137
  174MOL   H14238548   7.162   0.183   7.185 -1.2070  1.2124  2.5074
  174MOL   H14338549   7.218   0.510   7.023  1.1206 -0.3659 -0.5940
  174MOL   H14438550   7.340   0.616   7.040  1.2168  1.1639  3.6107
  174MOL   C14538551   7.146   0.703   7.110 -0.0474 -0.0324  0.4384
  174MOL   C14638552   7.224   0.818   7.173 -0.4492  0.4515 -0.0255
  174MOL   O14738553   7.242   0.820   7.295 -0.2934 -0.4884  0.1850
  174MOL   C14838554   7.290   0.913   7.075  0.4913  0.6348 -0.5314
  174MOL   C14938555   7.011   0.671   7.186  0.5913 -0.6249 -0.0169
  174MOL   H15038556   7.122   0.737   7.010 -1.6455  1.4116  1.2986
  174MOL   H15138557   7.302   0.874   6.974  2.8002  0.7895 -0.3281
  174MOL   H15238558   7.239   1.009   7.073 -2.3888 -0.8207 -2.2442
  174MOL   H15338559   7.391   0.935   7.109  1.4003 -1.5652 -1.6549
  174MOL   H15438560   6.999   0.732   7.275 -1.2424 -0.4170 -0.3967
  174MOL   H15538561   7.009   0.566   7.217 -1.0112 -0.2395  1.2479
  174MOL   C15638562   6.885   0.680   7.098 -0.5728  0.0257  0.2864
  174MOL   C15738563   6.858   0.827   7.037 -0.2251  0.0716 -0.5403
  174MOL   O15838564   6.928   0.929   7.068 -0.4115 -0.1148 -0.5868
  174MOL   C15938565   6.750   0.835   6.938  0.8332 -0.7728 -0.1260
  174MOL   C16038566   6.750   0.636   7.167 -0.4801  0.1250 -0.2555
  174MOL   H16138567   6.895   0.617   7.009 -3.0808  0.1731 -0.1338
  174MOL   H16238568   6.660   0.864   6.993  0.0470 -2.2953 -0.5927
  174MOL   H16338569   6.785   0.905   6.863 -0.5640  1.1472  0.9651
  174MOL   H16438570   6.729   0.739   6.891  1.1029 -1.0238  0.2569
  174MOL   H16538571   6.665   0.680   7.115 -0.1912  1.6107  0.4994
  174MOL   H16638572   6.741   0.694   7.259 -1.0100  0.8896 -0.7874
  174MOL   C16738573   6.729   0.481   7.201 -0.6894 -0.2333 -0.1157
  174MOL   C16838574   6.719   0.406   7.070  0.5227  0.1502  1.2879
  174MOL   O16938575   6.635   0.438   6.987  0.2719 -0.2619  0.4883
  174MOL   C17038576   6.823   0.290   7.044  0.0709 -0.2363  0.2582
  174MOL   C17138577   6.611   0.439   7.289  0.0004  0.4559  1.1063
  174MOL   H17238578   6.826   0.456   7.244 -0.4709  2.6400  1.1990
  174MOL   H17338579   6.858   0.267   7.145 -0.7528 -1.2431  0.3100
  174MOL   H17438580   6.787   0.201   6.994  0.8486  0.1142 -0.9409
  174MOL   H17538581   6.907   0.337   6.992 -1.0706  0.6815 -0.7619
  174MOL   H17638582   6.522   0.450   7.227  0.2237 -2.6842  0.1490
  174MOL   H17738583   6.612   0.517   7.365 -0.4695 -0.3198  1.9094
  174MOL   C17838584   6.630   0.300   7.349 -0.0039  0.2974  0.6150
  174MOL   C17938585   6.494   0.238   7.401  0.9299 -0.4144  0.0503
  174MOL   O18038586   6.476   0.224   7.523  0.3988 -0.0113 -0.1358
  174MOL   C18138587   6.379   0.228   7.307  0.5276 -0.1330  0.6765
  174MOL   C18238588   6.739   0.312   7.462  0.7674  0.5028  0.4507
  174MOL   H18338589   6.662   0.227   7.275 -0.5356  0.1695  0.5100
  174MOL   H18438590   6.363   0.335   7.291  2.2690 -0.0229 -0.5705
  174MOL   H18538591   6.387   0.177   7.211 -0.1727 -1.6105  1.3958
  174MOL   H18638592   6.291   0.192   7.359 -0.1561 -2.2099 -1.8151
  174MOL   H18738593   6.704   0.385   7.535  0.2078  1.6475 -0.9298
  174MOL   H18838594   6.831   0.357   7.424  0.0423 -0.3295 -2.4069
  174MOL   C18938595   6.790   0.179   7.525  0.0335 -0.8092 -0.6846
  174MOL   C19038596   6.813   0.209   7.682 -0.2006 -0.1285 -0.0312
  174MOL   O19138597   6.900   0.290   7.722  0.6230  0.9400  0.0560
  174MOL   C19238598   6.717   0.145   7.782  0.2233  0.0355  0.2015
  174MOL   C19338599   6.913   0.119   7.455 -1.3167  0.3605  0.0512
  174MOL   H19438600   6.714   0.101   7.530  0.5556 -1.3324 -0.8447
  174MOL   H19538601   6.760   0.136   0.039 -0.6052  1.1704  0.6809
  174MOL   H19638602   6.620   0.194   7.783  0.1050 -0.2116  3.3119
  174MOL   H19738603   6.706   0.040   7.755  0.6929  0.3804 -1.4034
  174MOL   H19838604   6.988   0.193   7.426  1.9613 -2.4432  0.9413
  174MOL   H19938605   6.884   0.090   7.354 -1.1866 -1.6379  0.5612
  174MOL   C20038606   6.965   7.829   7.522  0.1376 -0.1603 -0.4681
  174MOL   C20138607   7.109   7.804   7.467  1.2044  0.3697 -0.4131
  174MOL   O20238608   7.137   7.819   7.350  0.1474  0.7979  0.2137
  174MOL   C20338609   7.209   7.743   7.564 -0.2587  0.0448 -0.2949
  174MOL   C20438610   6.871   7.704   7.511  0.2471  0.3069 -0.2569
  174MOL   H20538611   6.971   0.006   7.629 -3.2396 -1.4643  0.0264
  174MOL   H20638612   7.177   7.741   7.668  1.5112  1.4475  0.2919
  174MOL   H20738613   7.232   7.643   7.526 -1.9338 -0.8304  0.9135
  174MOL   H20838614   7.296   7.808   7.562 -0.6465  0.5517 -2.0694
  174MOL   H20938615   6.881   7.668   7.409  0.5370  0.4885 -0.2931
  174MOL   H21038616   6.772   7.744   7.535  0.2828 -1.9394  4.0691
  174MOL   C21138617   6.889   7.586   7.614  0.0373 -0.4437 -0.2788
  174MOL   C21238618   6.825   7.460   7.565 -0.3201 -0.1601  0.2528
  174MOL   O21338619   6.714   7.450   7.525  0.4066 -0.4630 -0.0430
  174MOL   C21438620   6.907   7.335   7.586 -0.3548  0.9826  0.1343
  174MOL   C21538621   6.840   7.618   7.756  0.0993  0.3749  0.1929
  174MOL   H21638622   6.996   7.567   7.626  0.0976 -0.1561 -0.3443
  174MOL   H21738623   7.009   7.364   7.611  1.0086 -2.2365 -1.3663
  174MOL   H21838624   6.858   7.277   7.664 -0.8307  1.2462  0.0318
  174MOL   H21938625   6.920   7.281   7.491  1.2479  1.6091 -0.0247
  174MOL   H22038626   6.762   7.694   7.757 -2.0902 -1.8303  0.5757
  174MOL   H22138627   6.921   7.646   7.823 -1.6848  0.6174  2.2698
  174MOL   H22238628   6.796   7.534   7.810  0.0430 -0.1642 -0.6706
  175MOL     C138629   2.682   1.631   7.586 -0.0024 -0.6282  0.2799
  175MOL     C238630   2.643   1.505   7.652 -0.3899 -0.4453 -0.3964
  175MOL     O338631   2.637   1.398   7.596 -0.0820 -0.0934  0.1234
  175MOL     C438632   2.603   1.521   7.796  0.4099 -0.1959 -0.8718
  175MOL     C538633   2.709   1.629   7.432 -0.7295  0.1558  0.2818
  175MOL     H638634   2.603   1.700   7.613  0.0014 -1.2633  1.9242
  175MOL     H738635   2.615   1.420   7.836 -3.6455  0.3667  2.1232
  175MOL     H838636   2.663   1.579   0.025 -0.3134 -1.6900  0.9917
  175MOL     H938637   2.500   1.556   7.801  0.6376  0.4152 -0.2962
  175MOL    H1038638   2.614   1.594   7.391 -2.5048  0.8491  3.6013
  175MOL    H1138639   2.790   1.561   7.405  0.1581  1.2687  0.1028
  175MOL    H1238640   2.777   1.673   7.619 -1.5417  1.6155  1.9716
  175MOL    C1338641   2.737   1.758   7.351  0.3395  0.4882  0.3908
  175MOL    C1438642   2.754   1.716   7.203 -0.2018  0.3377 -0.3566
  175MOL    O1538643   2.658   1.724   7.122 -0.3264  0.3044 -0.8557
  175MOL    C1638644   2.886   1.671   7.162  0.0630 -0.9014 -0.6012
  175MOL    C1738645   2.854   1.837   7.411 -0.3091  0.3054  0.1559
  175MOL    H1838646   2.652   1.827   7.353  0.8584  1.1487  0.0871
  175MOL    H1938647   2.875   1.597   7.083  1.7398 -1.1151 -0.6443
  175MOL    H2038648   2.950   1.754   7.130 -1.2737  0.1010 -0.7327
  175MOL    H2138649   2.926   1.630   7.254 -0.2419 -0.0537 -0.0813
  175MOL    H2238650   2.942   1.773   7.419  0.3914  1.1279 -0.8109
  175MOL    H2338651   2.823   1.861   7.513 -2.7549 -0.1622 -0.4374
  175MOL    C2438652   2.900   1.966   7.330 -0.6084  0.5991  0.2270
  175MOL    C2538653   3.029   2.033   7.393  1.0096  0.8411 -0.4165
  175MOL    O2638654   3.045   2.048   7.514 -0.1218  0.2547  0.6993
  175MOL    C2738655   3.133   2.093   7.291  0.6392  0.2130 -0.1006
  175MOL    C2838656   2.785   2.064   7.306  0.5103 -0.1645  0.6053
  175MOL    H2938657   2.943   1.935   7.235 -0.8684 -1.6440  0.8123
  175MOL    H3038658   3.168   2.019   7.219 -1.4716 -1.0395  0.1180
  175MOL    H3138659   3.093   2.175   7.232  0.5172 -0.1753 -0.5642
  175MOL    H3238660   3.216   2.139   7.344 -0.2504  2.9666 -1.0383
  175MOL    H3338661   2.698   2.022   7.256  2.2529 -1.9766 -0.9634
  175MOL    H3438662   2.827   2.126   7.228 -0.7487 -1.6431 -1.3013
  175MOL    C3538663   2.730   2.142   7.423  0.6668 -0.2598 -0.2751
  175MOL    C3638664   2.640   2.062   7.523 -0.0278 -0.2816  0.2605
  175MOL    O3738665   2.542   2.004   7.475  0.1442  0.1326  0.0518
  175MOL    C3838666   2.672   2.070   7.674 -0.9427 -0.0189  0.9170
  175MOL    C3938667   2.647   2.266   7.376 -0.0638  0.0846  0.1982
  175MOL    H4038668   2.813   2.184   7.480 -0.5267  0.9114  0.6271
  175MOL    H4138669   2.593   2.023   7.733 -1.0729  1.6348  2.1017
  175MOL    H4238670   2.762   2.017   7.707 -2.1064 -2.5915  0.0967
  175MOL    H4338671   2.683   2.172   7.710 -1.2529  0.9089 -1.5428
  175MOL    H4438672   2.589   2.303   7.460  1.0412  1.9745  0.1646
  175MOL    H4538673   2.568   2.235   7.307 -0.1891 -1.9968  1.2286
  175MOL    C4638674   2.731   2.384   7.325 -0.1221 -0.2312 -1.1599
  175MOL    C4738675   2.832   2.428   7.430  0.1882  0.5471  0.3046
  175MOL    O4838676   2.799   2.468   7.539 -0.1104 -0.1225 -0.4244
  175MOL    C4938677   2.974   2.404   7.398 -0.1525 -0.0657  0.2755
  175MOL    C5038678   2.659   2.511   7.270 -0.3184  0.2618  0.7235
  175MOL    H5138679   2.798   2.350   7.246 -0.8829  1.8029 -2.7229
  175MOL    H5238680   3.041   2.471   7.453 -1.1394  0.0430  1.3744
  175MOL    H5338681   2.997   2.299   7.416  2.1587  0.2406 -0.6612
  175MOL    H5438682   2.995   2.410   7.292  0.8589  2.1985  0.5608
  175MOL    H5538683   2.724   2.599   7.270 -1.0169  0.8036 -1.0410
  175MOL    H5638684   2.586   2.545   7.343  0.2315  2.8437  0.1182
  175MOL    C5738685   2.577   2.504   7.138  0.3673  0.6907  0.1912
  175MOL    C5838686   2.657   2.431   7.026  0.2363 -0.7996  0.3693
  175MOL    O5938687   2.749   2.484   6.961 -0.1422  0.5661  0.0547
  175MOL    C6038688   2.608   2.291   7.001 -0.3466  0.0828  0.5706
  175MOL    C6138689   2.534   2.652   7.091 -0.0338  0.8901  0.1252
  175MOL    H6238690   2.487   2.445   7.150  0.1113  1.0095 -0.1335
  175MOL    H6338691   2.662   2.247   6.918 -0.3771 -0.0246  0.6074
  175MOL    H6438692   2.621   2.236   7.095  2.0531  1.7944  1.2755
  175MOL    H6538693   2.500   2.299   6.987 -0.3467 -2.6581 -1.2145
  175MOL    H6638694   2.504   2.656   6.987 -0.7667 -0.9799  0.2421
  175MOL    H6738695   2.624   2.714   7.092  1.4044 -1.0514  3.3839
  175MOL    C6838696   2.421   2.713   7.176 -0.0177  1.0062  0.5596
  175MOL    C6938697   2.284   2.650   7.149 -0.3364 -0.7902 -0.0798
  175MOL    O7038698   2.258   2.601   7.040 -0.3132  0.5422  0.4087
  175MOL    C7138699   2.183   2.668   7.255 -0.2109  0.2068 -0.0612
  175MOL    C7238700   2.414   2.868   7.168 -0.2658 -0.9890  0.7597
  175MOL    H7338701   2.440   2.699   7.283  0.9558  1.0890  0.3958
  175MOL    H7438702   2.131   2.764   7.254 -0.5564  0.0242  0.2011
  175MOL    H7538703   2.109   2.587   7.258  1.3914 -1.3717 -1.8767
  175MOL    H7638704   2.233   2.668   7.352  0.3992  2.3300 -0.3619
  175MOL    H7738705   2.513   2.901   7.199  0.5238 -0.5882 -2.0335
  175MOL    H7838706   2.351   2.906   7.248  0.3364 -1.1617  1.3215
  175MOL    C7938707   2.374   2.944   7.037 -0.8206 -0.7251  0.0462
  175MOL    C8038708   2.504   2.965   6.954  1.0811 -0.2207 -1.0648
  175MOL    O8138709   2.597   3.028   7.002 -0.0646  0.0322  0.0194
  175MOL    C8238710   2.514   2.905   6.814  0.6360  0.0938 -0.1835
  175MOL    C8338711   2.294   3.068   7.066  0.2775 -0.0409  0.4490
  175MOL    H8438712   2.310   2.870   6.990 -1.6410  0.5252 -0.8355
  175MOL    H8538713   2.562   2.808   6.826  0.7441  0.1174 -0.4112
  175MOL    H8638714   2.420   2.889   6.763  0.5490  0.8589 -0.2701
  175MOL    H8738715   2.585   2.958   6.750  1.1140 -1.6601 -1.1396
  175MOL    H8838716   2.354   3.154   7.094 -0.0695  0.3827 -0.1019
  175MOL    H8938717   2.234   3.064   7.158  0.4955  0.8003  0.6270
  175MOL    C9038718   2.191   3.109   6.953  0.0695 -0.2182 -0.0558
  175MOL    C9138719   2.137   3.251   6.990 -0.2307 -0.4350  0.2046
  175MOL    O9238720   2.126   3.297   7.103 -0.0537 -0.1662 -0.5047
  175MOL    C9338721   2.101   3.335   6.875  0.0154 -0.3431 -0.4351
  175MOL    C9438722   2.075   3.002   6.938 -0.6402 -0.2256  0.3731
  175MOL    H9538723   2.253   3.117   6.864 -2.5231  2.1796 -1.7775
  175MOL    H9638724   2.173   3.340   6.794  2.4245  0.9012  1.7055
  175MOL    H9738725   2.009   3.308   6.823  0.8785 -0.6275 -1.8362
  175MOL    H9838726   2.084   3.437   6.909  1.1277 -0.2584 -0.0857
  175MOL    H9938727   1.977   3.050   6.942  0.0422  1.0322  3.3655
  175MOL   H10038728   2.083   2.939   7.027 -0.6542 -0.8656 -0.0825
  175MOL   C10138729   2.089   2.920   6.806  0.5623 -0.2195  0.1558
  175MOL   C10238730   2.047   2.993   6.687 -0.2041  0.1182  0.1004
  175MOL   O10338731   1.958   3.078   6.693  0.3849 -0.2509 -0.1381
  175MOL   C10438732   2.117   2.965   6.552 -0.1006  1.1691 -0.3938
  175MOL   C10538733   2.017   2.782   6.799 -0.2750  0.1498  0.2016
  175MOL   H10638734   2.197   2.903   6.804  0.6657  0.3212  1.1467
  175MOL   H10738735   2.208   2.909   6.574 -2.0295 -1.3003  1.6553
  175MOL   H10838736   2.062   2.896   6.488 -2.1168  1.3546  1.0868
  175MOL   H10938737   2.147   3.053   6.496  1.4433  0.5128 -0.6103
  175MOL   H11038738   2.071   2.713   6.864 -1.9213 -1.4434 -0.0828
  175MOL   H11138739   2.041   2.756   6.696  0.3466 -1.0607  0.6462
  175MOL   C11238740   1.859   2.773   6.819  0.3524 -0.9213 -1.3030
  175MOL   C11338741   1.816   2.790   6.963 -0.4162 -0.5250  0.1121
  175MOL   O11438742   1.771   2.897   7.011  0.3643 -0.3052  0.1481
  175MOL   C11538743   1.848   2.670   7.057 -0.0940 -0.0322 -0.0408
  175MOL   C11638744   1.802   2.646   6.760 -0.4786  0.1101 -0.5555
  175MOL   H11738745   1.818   2.859   6.767  0.5674  0.6082  0.9513
  175MOL   H11838746   1.865   2.707   7.158 -0.2021 -3.3249  1.2532
  175MOL   H11938747   1.759   2.608   7.052 -0.2465  0.2829 -1.3344
  175MOL   H12038748   1.933   2.616   7.015 -0.8866  0.6068 -2.5807
  175MOL   H12138749   1.705   2.620   6.804  0.5212 -2.3853  0.2935
  175MOL   H12238750   1.877   2.568   6.771 -0.7775 -0.0896  0.0983
  175MOL   C12338751   1.776   2.659   6.608 -0.7027  0.6830 -0.2485
  175MOL   C12438752   1.681   2.775   6.576 -0.0986  0.0729  0.3911
  175MOL   O12538753   1.560   2.777   6.612  0.2909  0.2668  0.3252
  175MOL   C12638754   1.750   2.896   6.505 -0.2735 -0.1987 -0.6878
  175MOL   C12738755   1.729   2.526   6.542 -0.0733 -0.1083  0.1411
  175MOL   H12838756   1.872   2.690   6.566 -1.5595 -0.8945 -3.5929
  175MOL   H12938757   1.858   2.885   6.495 -0.4192  0.1034 -2.7191
  175MOL   H13038758   1.701   2.903   6.408  1.2990  1.5975 -1.3926
  175MOL   H13138759   1.722   2.985   6.562  3.1735  1.4301 -1.4124
  175MOL   H13238760   1.635   2.549   6.492 -0.5976  4.9270  3.1277
  175MOL   H13338761   1.698   2.455   6.619  1.4545 -0.2583  0.6404
  175MOL   C13438762   1.827   2.470   6.437  0.2454 -0.0840  0.5501
  175MOL   C13538763   1.767   2.449   6.298  0.0586  0.0797 -0.0345
  175MOL   O13638764   1.650   2.471   6.280  0.4080 -0.0335 -0.1276
  175MOL   C13738765   1.842   2.376   6.190  0.4840 -0.0736 -0.2287
  175MOL   C13838766   1.899   2.342   6.492 -0.2731  0.2333  0.7676
  175MOL   H13938767   1.897   2.551   6.416  0.7729 -0.7040 -0.0854
  175MOL   H14038768   1.854   2.271   6.217 -2.4028 -0.4837 -0.4158
  175MOL   H14138769   1.781   2.380   6.099  1.7815  0.6847 -1.0873
  175MOL   H14238770   1.938   2.422   6.165 -0.5417  0.6497 -3.0975
  175MOL   H14338771   1.850   2.261   6.437 -1.5424  2.9557 -2.2554
  175MOL   H14438772   1.895   2.332   6.600  0.0999  1.8403  0.9399
  175MOL   C14538773   2.051   2.338   6.474  0.3329  0.4300  0.5686
  175MOL   C14638774   2.106   2.193   6.503 -0.7408 -0.7695  0.6971
  175MOL   O14738775   2.159   2.160   6.613  0.0499  0.5265 -0.3064
  175MOL   C14838776   2.081   2.083   6.400  0.0568  0.4930 -0.3163
  175MOL   C14938777   2.122   2.446   6.563  0.2608  0.3847 -0.2218
  175MOL   H15038778   2.077   2.361   6.371 -1.0106  1.4888  0.4453
  175MOL   H15138779   1.982   2.039   6.413 -0.0065  0.8515  0.3955
  175MOL   H15238780   2.091   2.103   6.293 -1.0789  0.1005 -0.5021
  175MOL   H15338781   2.158   2.007   6.416 -1.3583 -0.5831  1.5497
  175MOL   H15438782   2.137   2.407   6.663 -1.3186 -2.2283 -0.9677
  175MOL   H15538783   2.073   2.543   6.566  1.4646  1.0008 -0.3347
  175MOL   C15638784   2.266   2.475   6.523  0.8162 -0.2297 -0.0734
  175MOL   C15738785   2.350   2.524   6.645 -0.2001  0.7460 -0.3089
  175MOL   O15838786   2.349   2.635   6.687 -0.5077  1.0466 -0.8734
  175MOL   C15938787   2.416   2.409   6.715  0.3830 -0.1766 -0.2204
  175MOL   C16038788   2.251   2.591   6.421 -0.2958 -0.2404 -0.3280
  175MOL   H16138789   2.322   2.393   6.477 -0.5482 -0.8453 -0.6676
  175MOL   H16238790   2.364   2.316   6.692  1.8466 -0.4609 -2.5758
  175MOL   H16338791   2.517   2.386   6.682  0.4727 -0.1813  0.0557
  175MOL   H16438792   2.424   2.437   6.820 -3.3798 -0.2654  0.1685
  175MOL   H16538793   2.219   2.688   6.460 -2.4607 -0.8982 -0.3917
  175MOL   H16638794   2.170   2.566   6.352 -1.7833  2.8775  0.1917
  175MOL   C16738795   2.385   2.628   6.345  0.1214 -0.7416  0.3075
  175MOL   C16838796   2.438   2.767   6.386 -0.2964  0.2604 -0.9087
  175MOL   O16938797   2.387   2.871   6.346  0.0170  0.1207 -0.0241
  175MOL   C17038798   2.556   2.775   6.484  0.0261  0.3154  0.1806
  175MOL   C17138799   2.365   2.621   6.196 -0.0092  0.4243 -0.1392
  175MOL   H17238800   2.462   2.556   6.373 -0.6896 -1.4803  0.6756
  175MOL   H17338801   2.618   2.685   6.482  0.9282  0.9430 -0.2672
  175MOL   H17438802   2.628   2.848   6.448 -0.3181  0.0182 -1.1388
  175MOL   H17538803   2.524   2.793   6.587  1.8680 -1.3239  1.0722
  175MOL   H17638804   2.460   2.647   6.149 -0.5657  1.3132 -0.7922
  175MOL   H17738805   2.286   2.689   6.166 -1.4621 -0.7796  0.9112
  175MOL   C17838806   2.324   2.475   6.141  0.6620 -0.6743  0.4343
  175MOL   C17938807   2.382   2.350   6.201  0.0997 -0.0091  0.6397
  175MOL   O18038808   2.313   2.287   6.283 -0.2109 -0.0502  0.3483
  175MOL   C18138809   2.530   2.318   6.180 -0.0039  0.6132  0.0424
  175MOL   C18238810   2.336   2.482   5.986 -0.7974  0.0820 -0.5187
  175MOL   H18338811   2.215   2.470   6.150  0.2280  2.2197 -2.2448
  175MOL   H18438812   2.563   2.229   6.234 -1.3885 -0.7059 -1.2213
  175MOL   H18538813   2.559   2.319   6.075  1.5423 -1.1107  0.4242
  175MOL   H18638814   2.594   2.395   6.224 -0.8714  2.0105 -1.1228
  175MOL   H18738815   2.439   2.502   5.957 -1.1552  1.3571 -0.9282
  175MOL   H18838816   2.282   2.564   5.939  0.5705  1.1896 -0.1715
  175MOL   C18938817   2.294   2.355   5.908 -0.3127  0.0006  0.0481
  175MOL   C19038818   2.327   2.362   5.757  0.0357  0.1357  0.3157
  175MOL   O19138819   2.240   2.382   5.671 -0.0525  0.6162  0.0674
  175MOL   C19238820   2.471   2.352   5.721 -0.4073  0.6029 -0.3413
  175MOL   C19338821   2.150   2.293   5.935 -0.7265  0.0975 -0.1080
  175MOL   H19438822   2.370   2.283   5.939  1.9986  1.7997 -1.2904
  175MOL   H19538823   2.481   2.263   5.658 -0.1746  1.1221 -1.0474
  175MOL   H19638824   2.513   2.443   5.678  1.3350 -0.1499 -0.2937
  175MOL   H19738825   2.535   2.322   5.804 -0.9556  1.0633  0.2481
  175MOL   H19838826   2.079   2.354   5.880 -3.6964 -3.1539 -0.0425
  175MOL   H19938827   2.119   2.313   6.038  1.3173 -0.7361  0.7038
  175MOL   C20038828   2.135   2.146   5.883 -0.0877  0.3307 -0.7414
  175MOL   C20138829   2.008   2.134   5.801 -0.4354  0.9195 -0.1920
  175MOL   O20238830   1.903   2.104   5.858 -0.2965 -0.2630 -0.3572
  175MOL   C20338831   2.009   2.149   5.649 -0.0504  0.0298  0.2459
  175MOL   C20438832   2.147   2.031   5.985  0.0849 -0.2380 -0.6276
  175MOL   H20538833   2.217   2.126   5.814  0.3431  0.2518 -0.2115
  175MOL   H20638834   2.105   2.108   5.618  1.4723  4.1056 -0.7159
  175MOL   H20738835   1.928   2.098   5.596 -0.1385 -2.6549  2.7940
  175MOL   H20838836   2.014   2.256   5.630  1.1953 -0.0931 -0.1293
  175MOL   H20938837   2.122   1.933   5.944  0.7818  0.0120 -1.6757
  175MOL   H21038838   2.076   2.036   6.068 -0.3192  0.1588 -0.9976
  175MOL   C21138839   2.289   2.012   6.055 -0.0061 -0.1106  0.3642
  175MOL   C21238840   2.399   2.013   5.947 -0.4007  0.1241 -0.2495
  175MOL   O21338841   2.496   2.091   5.954  0.0443  0.7346 -0.0727
  175MOL   C21438842   2.395   1.915   5.829  0.1564  0.6788  0.2097
  175MOL   C21538843   2.288   1.891   6.152 -0.6905  1.0157  0.0453
  175MOL   H21638844   2.301   2.105   6.110 -0.5688  1.8908 -2.7501
  175MOL   H21738845   2.483   1.928   5.767 -0.0987 -2.2827 -0.8581
  175MOL   H21838846   2.392   1.811   5.860 -3.4414  0.7788  0.4598
  175MOL   H21938847   2.303   1.942   5.777  0.4215  0.9132 -0.1439
  175MOL   H22038848   2.387   1.849   6.134 -1.8737 -1.5508 -0.7625
  175MOL   H22138849   2.217   1.814   6.122 -1.4079  2.0400 -0.9451
  175MOL   H22238850   2.267   1.920   6.255 -0.2117  1.8913 -0.0938
  176MOL     C138851   4.908   3.436   2.150 -0.1191  0.6573  0.0761
  176MOL     C238852   4.827   3.540   2.072 -0.3589  0.5310 -0.4913
  176MOL     O338853   4.811   3.651   2.119 -0.3439 -0.2792 -0.7325
  176MOL     C438854   4.771   3.508   1.938  0.4154  0.4645 -0.0024
  176MOL     C538855   5.027   3.504   2.221 -0.0152 -0.9599 -0.1343
  176MOL     H638856   4.837   3.400   2.223  0.1175  0.5618  0.2582
  176MOL     H738857   4.816   3.568   1.859  0.5341 -0.4323 -0.6161
  176MOL     H838858   4.769   3.402   1.913 -1.9099  0.2692  0.9203
  176MOL     H938859   4.667   3.540   1.948 -0.0465 -1.0066 -0.0606
  176MOL    H1038860   5.050   3.442   2.308  0.0648  1.2508  1.4575
  176MOL    H1138861   4.992   3.591   2.276  0.1205  1.0843 -3.1386
  176MOL    H1238862   4.931   3.349   2.089 -1.4066  0.0229  0.4766
  176MOL    C1338863   5.152   3.532   2.136  0.1001 -0.7014  0.5507
  176MOL    C1438864   5.179   3.423   2.030 -0.3191 -0.7434 -0.0403
  176MOL    O1538865   5.168   3.443   1.907 -0.6160  0.9847  0.3821
  176MOL    C1638866   5.205   3.275   2.076 -0.0822  0.2509 -0.0381
  176MOL    C1738867   5.283   3.558   2.224  0.1152 -0.4005 -0.1583
  176MOL    H1838868   5.130   3.622   2.079 -0.0614 -1.1286 -0.0695
  176MOL    H1938869   5.299   3.229   2.044 -0.5881 -1.4759  0.8940
  176MOL    H2038870   5.206   3.275   2.185  0.8168  0.1296 -0.0429
  176MOL    H2138871   5.130   3.208   2.034 -0.4050  1.6295 -1.7494
  176MOL    H2238872   5.365   3.559   2.152 -0.1517 -1.6472 -0.4845
  176MOL    H2338873   5.300   3.474   2.291 -1.0458  1.0095  1.9450
  176MOL    C2438874   5.277   3.693   2.302  0.2704 -0.1430 -0.4867
  176MOL    C2538875   5.307   3.815   2.213  0.2942  0.0994  0.2469
  176MOL    O2638876   5.402   3.813   2.141  0.2185  0.4642 -0.0861
  176MOL    C2738877   5.192   3.913   2.196 -0.2183  0.4938  0.0972
  176MOL    C2838878   5.365   3.691   2.424 -0.3756 -0.2625  0.2182
  176MOL    H2938879   5.171   3.708   2.324 -0.2731  0.7228 -3.4423
  176MOL    H3038880   5.218   4.010   2.238 -0.5267 -0.1376  1.7797
  176MOL    H3138881   5.188   3.932   2.088  0.6487 -0.7478 -0.1594
  176MOL    H3238882   5.096   3.864   2.214 -0.1184  0.5062  0.6484
  176MOL    H3338883   5.398   3.792   2.446  0.1857 -0.3245 -0.3298
  176MOL    H3438884   5.457   3.647   2.387 -0.7036 -1.3093  0.6341
  176MOL    C3538885   5.310   3.630   2.555 -0.1662  0.3951 -0.0241
  176MOL    C3638886   5.173   3.684   2.604 -0.1722 -0.8357 -0.3709
  176MOL    O3738887   5.133   3.801   2.595 -0.6789 -0.1215  0.0927
  176MOL    C3838888   5.071   3.585   2.648  0.1759 -0.3165  0.1100
  176MOL    C3938889   5.414   3.655   2.669  0.0972  0.5361  0.3948
  176MOL    H4038890   5.298   3.523   2.537  1.8028  0.2880 -0.8282
  176MOL    H4138891   4.970   3.615   2.620  0.6095  0.3277 -0.7551
  176MOL    H4238892   5.074   3.486   2.603 -0.0815 -1.6357  2.8527
  176MOL    H4338893   5.087   3.565   2.754 -2.5956 -2.6918  0.1379
  176MOL    H4438894   5.369   3.701   2.756 -0.2903  1.0378 -0.0703
  176MOL    H4538895   5.490   3.730   2.644  0.5421 -0.0250  0.0350
  176MOL    C4638896   5.485   3.523   2.717 -0.2979 -0.5056  0.9025
  176MOL    C4738897   5.399   3.430   2.794 -0.4574  0.8364 -0.3066
  176MOL    O4838898   5.283   3.454   2.827 -0.3589  0.1647 -1.1881
  176MOL    C4938899   5.459   3.296   2.845  0.3546  0.1531 -0.4938
  176MOL    C5038900   5.616   3.566   2.789 -0.4600 -0.1051 -0.8646
  176MOL    H5138901   5.509   3.469   2.626 -0.6611  0.7344  0.0582
  176MOL    H5238902   5.497   3.230   2.767  0.5976 -0.0418 -0.2112
  176MOL    H5338903   5.528   3.316   2.927 -2.5209  1.3230  1.7359
  176MOL    H5438904   5.379   3.238   2.892 -0.4603  0.5618 -1.3770
  176MOL    H5538905   5.670   3.606   2.703  0.3209 -1.3044 -0.9435
  176MOL    H5638906   5.684   3.483   2.810  0.3823  0.8169  0.1023
  176MOL    C5738907   5.603   3.654   2.918 -0.7673 -0.5496  0.1918
  176MOL    C5838908   5.742   3.726   2.934  0.5787 -0.0072  0.0832
  176MOL    O5938909   5.842   3.652   2.950 -0.7457 -0.0183 -0.6841
  176MOL    C6038910   5.750   3.872   2.910  0.2266 -0.1943 -0.2557
  176MOL    C6138911   5.574   3.569   3.041 -0.1785 -0.5544 -0.4026
  176MOL    H6238912   5.526   3.727   2.895 -1.8237 -1.6636  0.1675
  176MOL    H6338913   5.742   3.891   2.803  2.1683 -1.9751 -0.7569
  176MOL    H6438914   5.663   3.921   2.954 -1.4168 -2.2366 -1.1509
  176MOL    H6538915   5.846   3.916   2.937  0.5401 -1.5900  0.9534
  176MOL    H6638916   5.652   3.493   3.044  0.3388 -0.0023  0.3154
  176MOL    H6738917   5.479   3.515   3.045  0.6270 -1.9241  0.8885
  176MOL    C6838918   5.567   3.646   3.174 -0.4079 -0.1530 -0.6375
  176MOL    C6938919   5.596   3.558   3.288  0.0951  0.0748 -0.3081
  176MOL    O7038920   5.523   3.463   3.327  0.6747  0.4360  0.5389
  176MOL    C7138921   5.743   3.567   3.335  0.2411 -0.6494 -0.0396
  176MOL    C7238922   5.434   3.718   3.188 -0.1496 -0.5376  0.7039
  176MOL    H7338923   5.647   3.719   3.173 -0.5510  0.0304  1.0416
  176MOL    H7438924   5.794   3.498   3.268 -0.8366 -0.8010 -0.7101
  176MOL    H7538925   5.772   3.671   3.320  0.5913 -0.8692 -0.8690
  176MOL    H7638926   5.753   3.542   3.441 -0.1547  0.1857  0.2063
  176MOL    H7738927   5.352   3.646   3.179  0.9100 -1.7566  0.7068
  176MOL    H7838928   5.427   3.781   3.100  1.7858  1.4690  1.9419
  176MOL    C7938929   5.409   3.813   3.306  0.0965  0.0902  0.2754
  176MOL    C8038930   5.265   3.862   3.301  0.1212  0.5473 -0.4271
  176MOL    O8138931   5.237   3.980   3.279 -0.0891  0.4625 -0.5950
  176MOL    C8238932   5.154   3.764   3.336 -0.4447  0.2676 -0.2739
  176MOL    C8338933   5.518   3.927   3.313  0.0939 -0.8037  0.2167
  176MOL    H8438934   5.417   3.763   3.403  0.2062 -1.8661 -0.7175
  176MOL    H8538935   5.071   3.783   3.267  0.4641  1.7284 -1.0025
  176MOL    H8638936   5.187   3.661   3.333 -0.7896  0.1350  0.4525
  176MOL    H8738937   5.119   3.776   3.438 -0.9066  0.0199 -0.3994
  176MOL    H8838938   5.508   3.996   3.229 -0.7204  1.4438  2.1208
  176MOL    H8938939   5.618   3.887   3.292  0.9277  0.9455  0.7678
  176MOL    C9038940   5.524   3.999   3.451  0.0820  0.0950 -0.2376
  176MOL    C9138941   5.552   4.153   3.431  0.1809  0.0335  0.8254
  176MOL    O9238942   5.649   4.205   3.485 -0.4881 -0.3602  0.3570
  176MOL    C9338943   5.448   4.243   3.356 -0.5229  0.0129  0.1574
  176MOL    C9438944   5.625   3.924   3.548  0.9098 -0.5272  0.4928
  176MOL    H9538945   5.425   4.018   3.491  0.1330  3.2560 -1.4658
  176MOL    H9638946   5.483   4.346   3.351 -1.3601  0.2895 -0.0691
  176MOL    H9738947   5.421   4.205   3.257 -0.9063  0.3291  0.1419
  176MOL    H9838948   5.353   4.243   3.411 -1.1888  1.1948 -0.9811
  176MOL    H9938949   5.720   3.935   3.497  0.6305  0.4636  0.1780
  176MOL   H10038950   5.621   3.815   3.557  0.7623 -0.3522  2.7733
  176MOL   C10138951   5.630   3.983   3.684  0.9980 -0.3801 -0.3158
  176MOL   C10238952   5.778   3.992   3.714 -0.9726  1.2283  0.2286
  176MOL   O10338953   5.829   3.905   3.786  0.2417 -0.6425 -0.0463
  176MOL   C10438954   5.861   4.116   3.680 -0.2275  0.0765 -0.2861
  176MOL   C10538955   5.555   3.898   3.784  0.4495  0.0981 -0.8355
  176MOL   H10638956   5.596   4.086   3.684  2.7645  0.2341 -1.6211
  176MOL   H10738957   5.850   4.204   3.743  0.6502 -0.6017  0.8397
  176MOL   H10838958   5.965   4.097   3.708 -0.8261 -0.4396  1.6994
  176MOL   H10938959   5.855   4.146   3.575 -1.2992 -1.8207 -0.7978
  176MOL   H11038960   5.589   3.921   3.885 -0.6485  1.2140 -0.7092
  176MOL   H11138961   5.572   3.792   3.765 -3.9164 -0.8701 -0.0859
  176MOL   C11238962   5.402   3.911   3.792 -0.0761  0.2085 -0.5902
  176MOL   C11338963   5.346   4.057   3.808  0.6965 -1.1959 -0.1779
  176MOL   O11438964   5.275   4.103   3.717 -0.4518  0.1393 -0.2581
  176MOL   C11538965   5.401   4.139   3.922  0.3220 -0.8389  0.9162
  176MOL   C11638966   5.347   3.827   3.909  0.0349 -0.1872 -0.3287
  176MOL   H11738967   5.370   3.864   3.699  0.1759 -2.4322  0.6215
  176MOL   H11838968   5.414   4.092   4.019 -1.3578 -2.6745  0.2876
  176MOL   H11938969   5.501   4.178   3.901 -0.2680  1.0409  1.4371
  176MOL   H12038970   5.342   4.230   3.936  0.3834 -0.9831  2.1695
  176MOL   H12138971   5.245   3.859   3.930  0.4826  0.2879  1.1390
  176MOL   H12238972   5.404   3.841   4.000  0.5787 -2.7343 -0.2424
  176MOL   C12338973   5.356   3.669   3.894  0.6310 -0.1231  0.1228
  176MOL   C12438974   5.256   3.630   3.781  0.0461  0.2602  0.1650
  176MOL   O12538975   5.136   3.621   3.808 -0.7970  0.3990 -0.7203
  176MOL   C12638976   5.304   3.606   3.636 -0.3137 -0.1531  0.0437
  176MOL   C12738977   5.298   3.595   4.022  0.9002  0.6394 -0.4302
  176MOL   H12838978   5.459   3.645   3.866  0.6042  0.9110 -0.9338
  176MOL   H12938979   5.412   3.621   3.628 -0.4261 -0.6115 -2.7365
  176MOL   H13038980   5.288   3.503   3.604  1.0674 -0.8268  1.4607
  176MOL   H13138981   5.253   3.661   3.557  1.1870  0.9993 -0.1459
  176MOL   H13238982   5.194   3.617   4.048  0.6013 -0.2477 -0.8381
  176MOL   H13338983   5.347   3.643   4.107  1.4581  0.1548 -0.4749
  176MOL   C13438984   5.308   3.432   4.022  0.2676  0.4652  0.1310
  176MOL   C13538985   5.184   3.370   4.082 -0.8572 -0.6666  0.6915
  176MOL   O13638986   5.100   3.314   4.011 -0.1742 -0.3469  0.2678
  176MOL   C13738987   5.163   3.408   4.229  0.3507  0.3477  0.3276
  176MOL   C13838988   5.431   3.382   4.097 -0.7508  0.7987  0.1524
  176MOL   H13938989   5.300   3.399   3.918  0.7083  0.5459  0.0708
  176MOL   H14038990   5.244   3.466   4.274  1.3140 -0.9967  0.3629
  176MOL   H14138991   5.073   3.468   4.240 -0.3445 -0.3708 -1.2867
  176MOL   H14238992   5.161   3.324   4.299  3.3346 -0.0125  0.0612
  176MOL   H14338993   5.433   3.408   4.203 -2.5407 -1.9404  0.9065
  176MOL   H14438994   5.512   3.443   4.056 -0.9043  0.5412 -0.5493
  176MOL   C14538995   5.472   3.234   4.076  0.2029 -0.4584  0.4305
  176MOL   C14638996   5.381   3.130   4.142  0.9400 -0.0765  0.9188
  176MOL   O14738997   5.364   3.125   4.261 -0.2967  0.0034  0.3424
  176MOL   C14838998   5.309   3.029   4.045  0.2995  0.1655 -0.8341
  176MOL   C14938999   5.619   3.198   4.105  0.0627  0.4898 -0.3117
  176MOL   H15039000   5.467   3.212   3.969 -1.3462 -1.1903  0.6290
  176MOL   H15139001   5.384   2.979   3.984  1.1112 -0.0887  0.3426
  176MOL   H15239002   5.249   2.954   4.099  2.1722 -1.2583 -0.6801
  176MOL   H15339003   5.245   3.095   3.987  0.5229  2.1402  1.1118
  176MOL   H15439004   5.628   3.177   4.212 -0.8682 -0.6429 -0.4525
  176MOL   H15539005   5.687   3.282   4.092 -2.2763  2.1189 -2.4336
  176MOL   C15639006   5.679   3.083   4.015  0.6726 -0.0517 -0.3527
  176MOL   C15739007   5.758   2.983   4.104  0.0857  0.3128  0.5481
  176MOL   O15839008   5.864   3.016   4.158 -0.3795 -0.7570  0.5097
  176MOL   C15939009   5.700   2.843   4.125 -0.3860  0.0160  0.3338
  176MOL   C16039010   5.774   3.133   3.907  0.7692  0.6129  0.2741
  176MOL   H16139011   5.605   3.017   3.969  1.8098 -1.3910 -0.2837
  176MOL   H16239012   5.592   2.839   4.139 -0.4809  0.5073 -0.2515
  176MOL   H16339013   5.725   2.772   4.046  0.4640  0.9779 -0.2736
  176MOL   H16439014   5.751   2.801   4.212  0.4788 -0.1963 -0.2664
  176MOL   H16539015   5.807   3.055   3.839  2.4621 -0.0760  1.8539
  176MOL   H16639016   5.858   3.169   3.966  0.6908  1.7756 -0.3132
  176MOL   C16739017   5.719   3.246   3.808 -0.9798 -0.4881 -0.4301
  176MOL   C16839018   5.621   3.203   3.699 -0.2995 -0.1021  0.2912
  176MOL   O16939019   5.577   3.092   3.712  0.3826 -0.1880 -0.5692
  176MOL   C17039020   5.600   3.295   3.584 -0.5472  0.0735  0.0268
  176MOL   C17139021   5.843   3.328   3.753 -1.1315 -0.6465  0.6945
  176MOL   H17239022   5.664   3.322   3.865  0.5575  0.8532 -0.6748
  176MOL   H17339023   5.495   3.313   3.559 -0.8308  1.4443  2.1064
  176MOL   H17439024   5.631   3.399   3.595  1.1500 -0.5255  1.0577
  176MOL   H17539025   5.662   3.259   3.502 -0.0739  2.0468 -0.5247
  176MOL   H17639026   5.827   3.355   3.648  0.7450  0.3945  0.6528
  176MOL   H17739027   5.928   3.260   3.748 -1.3780 -0.9785  1.0134
  176MOL   C17839028   5.878   3.460   3.839 -0.3079 -0.1268  0.0957
  176MOL   C17939029   5.760   3.561   3.835  0.3553  0.0660  0.1879
  176MOL   O18039030   5.692   3.579   3.733  0.1026 -0.5311 -0.0362
  176MOL   C18139031   5.728   3.647   3.961 -0.2730  0.1220 -0.1224
  176MOL   C18239032   6.004   3.524   3.779  0.2133 -1.0846  0.5577
  176MOL   H18339033   5.893   3.434   3.944 -0.6397  1.4976  0.5625
  176MOL   H18439034   5.628   3.627   3.998 -1.3138  2.3750 -1.6064
  176MOL   H18539035   5.803   3.636   4.040  0.7778  0.0099 -1.1294
  176MOL   H18639036   5.722   3.753   3.936  0.2590  0.7667  2.3505
  176MOL   H18739037   5.967   3.556   3.681 -1.3443  2.3925  2.1678
  176MOL   H18839038   6.087   3.456   3.762  2.0259  1.4278 -1.1263
  176MOL   C18939039   6.052   3.650   3.862 -0.0836 -0.4584  0.5580
  176MOL   C19039040   6.139   3.732   3.766  0.9313  1.3748 -0.0687
  176MOL   O19139041   6.258   3.744   3.792  0.1392  0.5832  0.1528
  176MOL   C19239042   6.083   3.802   3.650 -0.3046  0.0905 -0.2055
  176MOL   C19339043   6.106   3.612   4.000  0.5393  0.0667 -0.7420
  176MOL   H19439044   5.973   3.723   3.876  1.3770  1.5676 -1.3733
  176MOL   H19539045   5.976   3.786   3.636  0.2292 -2.0777 -2.1627
  176MOL   H19639046   6.099   3.909   3.664  1.0926 -0.2080  0.5823
  176MOL   H19739047   6.120   3.766   3.554 -2.6508  0.1216 -1.1529
  176MOL   H19839048   6.167   3.523   3.982 -0.8418 -0.9438 -0.4946
  176MOL   H19939049   6.026   3.579   4.066  0.5513 -0.4865 -1.0065
  176MOL   C20039050   6.165   3.733   4.073  0.1951  0.5006 -0.4945
  176MOL   C20139051   6.233   3.664   4.194 -0.4514 -0.1329 -0.1254
  176MOL   O20239052   6.166   3.630   4.296 -0.4141  0.2847 -0.2037
  176MOL   C20339053   6.375   3.606   4.177 -0.0404 -0.3952  0.4658
  176MOL   C20439054   6.064   3.842   4.119 -0.0783  0.4712 -0.0742
  176MOL   H20539055   6.248   3.783   4.023  0.9217 -0.1196  0.0890
  176MOL   H20639056   6.417   3.642   4.271  3.1412 -0.2090 -0.9684
  176MOL   H20739057   6.374   3.498   4.181  2.7125 -0.6449 -2.7409
  176MOL   H20839058   6.430   3.651   4.094 -0.6097  2.3634  1.5081
  176MOL   H20939059   6.089   3.880   4.217  2.6658 -0.9132 -0.1999
  176MOL   H21039060   5.960   3.812   4.131 -0.6764  3.1341  1.8504
  176MOL   C21139061   6.056   3.972   4.030 -0.5631  0.4266  0.2146
  176MOL   C21239062   6.187   4.050   4.029 -0.3222 -0.0757  0.4648
  176MOL   O21339063   6.239   4.086   4.133 -0.2527  0.1782 -0.3542
  176MOL   C21439064   6.261   4.071   3.894 -0.8807  0.4982  0.4482
  176MOL   C21539065   5.932   4.063   4.079  0.5559  0.2558  0.0910
  176MOL   H21639066   6.037   3.929   3.931 -1.4420 -0.6134  0.8230
  176MOL   H21739067   6.296   3.980   3.846 -2.4947  0.5073 -0.8067
  176MOL   H21839068   6.182   4.097   3.824  0.0838 -0.3739 -0.9952
  176MOL   H21939069   6.348   4.135   3.882 -1.5689  1.5339  0.9028
  176MOL   H22039070   5.943   4.080   4.186  1.3897 -1.1086  0.2360
  176MOL   H22139071   5.830   4.027   4.064  0.7170 -0.0487 -0.2998
  176MOL   H22239072   5.946   4.161   4.034  1.3391  0.2765  0.3712
  177MOL     C139073   5.875   5.857   6.624 -0.5098  0.4520  0.4645
  177MOL     C239074   5.959   5.791   6.738  0.3207 -0.3419  0.8197
  177MOL     O339075   5.991   5.853   6.841  0.1563 -0.3406  0.7191
  177MOL     C439076   6.014   5.655   6.710  0.3271  0.3657 -0.5690
  177MOL     C539077   5.748   5.931   6.674  0.1095 -0.2996 -0.6965
  177MOL     H639078   5.931   5.926   6.561 -2.0897  1.4035  0.0867
  177MOL     H739079   6.054   5.615   6.804 -1.3111 -1.1099 -0.4839
  177MOL     H839080   5.936   5.584   6.684  1.3292 -1.0393  0.1619
  177MOL     H939081   6.092   5.665   6.634  2.1023  1.6427  1.3473
  177MOL    H1039082   5.712   5.987   6.588  0.1286 -1.3083 -1.3731
  177MOL    H1139083   5.788   6.007   6.740 -0.2426 -0.8868  0.2021
  177MOL    H1239084   5.858   5.776   6.553 -1.5290  0.7893  0.3224
  177MOL    C1339085   5.646   5.849   6.741 -0.2510 -0.3638 -0.9819
  177MOL    C1439086   5.550   5.798   6.632 -0.1736 -0.2216 -0.7156
  177MOL    O1539087   5.482   5.885   6.575 -0.3221  0.5633 -0.2511
  177MOL    C1639088   5.543   5.648   6.619 -0.6711  0.0189  0.0112
  177MOL    C1739089   5.575   5.909   6.861 -0.4746  0.1398 -0.8291
  177MOL    H1839090   5.701   5.761   6.774  0.1567 -0.4886 -1.9765
  177MOL    H1939091   5.590   5.599   6.705  1.0590  0.6584 -0.5543
  177MOL    H2039092   5.439   5.629   6.592 -0.4599 -1.0054 -0.0937
  177MOL    H2139093   5.607   5.623   6.534 -1.1909 -0.8329 -0.1391
  177MOL    H2239094   5.482   5.866   6.899 -0.1499  1.9900  2.2287
  177MOL    H2339095   5.540   6.010   6.842 -3.5554 -0.8355 -0.5847
  177MOL    C2439096   5.674   5.908   6.985  0.1490  0.1838 -0.4187
  177MOL    C2539097   5.695   5.766   7.046 -0.6995  0.9131  0.7697
  177MOL    O2639098   5.594   5.701   7.065  0.4753 -0.8366 -0.2847
  177MOL    C2739099   5.832   5.712   7.068 -0.4134  0.3671 -1.1068
  177MOL    C2839100   5.620   6.003   7.099  0.3008  0.1012 -0.2565
  177MOL    H2939101   5.772   5.945   6.954 -0.0949  2.3443  1.2643
  177MOL    H3039102   5.879   5.656   6.987  1.3479  0.7065 -0.3493
  177MOL    H3139103   5.901   5.790   7.099 -0.4928  0.4039 -1.0248
  177MOL    H3239104   5.820   5.642   7.151  2.6009 -1.9762 -2.5325
  177MOL    H3339105   5.524   5.963   7.131  0.7509 -0.4089  0.4861
  177MOL    H3439106   5.587   6.096   7.052  0.9329  0.3034 -0.3066
  177MOL    C3539107   5.717   6.026   7.226  0.4812  0.2931  0.5674
  177MOL    C3639108   5.648   6.122   7.322 -0.8860 -0.0648 -0.5082
  177MOL    O3739109   5.690   6.236   7.345 -0.6336  0.1290  0.0636
  177MOL    C3839110   5.522   6.065   7.377 -0.6205  0.7918 -0.1802
  177MOL    C3939111   5.861   6.070   7.190 -0.2276 -0.7384 -0.5839
  177MOL    H4039112   5.711   5.926   7.270  0.4134 -0.2200 -0.5772
  177MOL    H4139113   5.442   6.130   7.342 -0.0070  0.7683 -1.6520
  177MOL    H4239114   5.505   5.968   7.331 -2.3608  0.6787  0.6819
  177MOL    H4339115   5.520   6.059   7.486 -0.3928  1.7445 -0.1193
  177MOL    H4439116   5.851   6.166   7.138  2.2222  0.3512  0.8575
  177MOL    H4539117   5.906   6.003   7.116  2.0532 -0.0490  0.1258
  177MOL    C4639118   5.967   6.095   7.297  0.1015 -0.1174  0.2377
  177MOL    C4739119   6.099   6.148   7.230  0.1074  0.1174 -0.9758
  177MOL    O4839120   6.181   6.073   7.192 -0.3698 -0.3007  0.4848
  177MOL    C4939121   6.116   6.301   7.211 -0.2930 -0.4106 -0.1224
  177MOL    C5039122   5.995   5.977   7.396 -0.4323  0.5272  0.8807
  177MOL    H5139123   5.943   6.176   7.366  2.0072 -1.3320  2.3981
  177MOL    H5239124   6.044   6.337   7.137  0.8799 -0.1686 -1.1636
  177MOL    H5339125   6.107   6.354   7.305  1.5965  0.4723 -0.4149
  177MOL    H5439126   6.214   6.331   7.175  0.3780  1.1849  2.9213
  177MOL    H5539127   6.028   5.887   7.344  0.9887  1.8235 -0.5378
  177MOL    H5639128   5.898   5.948   7.436 -0.6730 -0.5327 -0.4170
  177MOL    C5739129   6.082   6.012   7.515  0.3609 -0.0586  0.4954
  177MOL    C5839130   6.156   5.889   7.573  0.4942 -0.0759  0.2156
  177MOL    O5939131   6.114   5.841   7.678 -0.0456 -0.2137  0.4303
  177MOL    C6039132   6.263   5.820   7.480  0.5504  0.4815 -0.8739
  177MOL    C6139133   5.994   6.086   7.626  0.1310  0.2406  0.1489
  177MOL    H6239134   6.170   6.074   7.498  0.8862 -1.4884 -2.2076
  177MOL    H6339135   6.244   5.843   7.375  0.3724  0.0073 -0.9472
  177MOL    H6439136   6.365   5.855   7.495  1.1418 -1.0005 -1.3408
  177MOL    H6539137   6.256   5.713   7.500 -1.3082  1.1247  2.4269
  177MOL    H6639138   5.915   6.020   7.662  2.2092 -2.1381  0.4823
  177MOL    H6739139   5.938   6.167   7.579  2.8091  1.3756 -1.2025
  177MOL    C6839140   6.076   6.166   7.734 -0.2249  0.4286  0.0788
  177MOL    C6939141   6.005   6.147   0.026 -1.0633 -0.2177  0.5735
  177MOL    O7039142   5.949   6.241   0.085  0.0466  0.1937  0.4880
  177MOL    C7139143   6.004   6.015   0.092 -0.0837  0.2161 -0.5113
  177MOL    C7239144   6.097   6.320   7.700  0.0410 -0.1287  0.0654
  177MOL    H7339145   6.173   6.118   7.744  0.6466  2.1693  0.1131
  177MOL    H7439146   5.960   5.937   0.030 -0.6378  0.0105  0.1253
  177MOL    H7539147   6.105   5.981   0.112  0.3811  1.7514 -0.1848
  177MOL    H7639148   5.950   6.018   0.187  2.0977  1.1100  0.7411
  177MOL    H7739149   6.005   6.376   7.716 -1.0264 -2.0224  0.7005
  177MOL    H7839150   6.113   6.331   7.592  0.5629  0.8310  0.2308
  177MOL    C7939151   6.214   6.397   7.774 -0.0102  0.5949  0.1578
  177MOL    C8039152   6.353   6.339   7.754 -0.8208 -0.1825  0.2019
  177MOL    O8139153   6.375   6.219   7.720 -0.3424 -0.3701 -0.3116
  177MOL    C8239154   6.468   6.441   7.777 -0.1280  0.2252  0.0780
  177MOL    C8339155   6.193   6.450   0.079  0.3875  0.9174  0.5060
  177MOL    H8439156   6.225   6.488   7.714 -0.3894  0.2281 -0.4836
  177MOL    H8539157   6.426   6.529   7.826 -1.4596 -0.5277  0.3157
  177MOL    H8639158   6.532   6.388   0.005 -2.0224 -0.9247  1.0073
  177MOL    H8739159   6.530   6.460   7.689  0.4047 -0.0250  0.3968
  177MOL    H8839160   6.288   6.474   0.126  1.4993 -1.2674 -0.5429
  177MOL    H8939161   6.167   6.357   0.129  1.6498  0.3379  0.1112
  177MOL    C9039162   6.083   6.560   0.099 -0.1359  0.4378  0.3324
  177MOL    C9139163   6.118   6.674   0.010  0.9180 -0.2577 -0.1542
  177MOL    O9239164   6.230   6.716   7.841 -0.1126  0.6118  0.3780
  177MOL    C9339165   6.010   6.751   7.769 -0.6929  0.0795 -0.2403
  177MOL    C9439166   6.077   6.601   0.245  0.5413 -0.6408  0.1020
  177MOL    H9539167   5.983   6.523   0.073 -1.1958  1.1693  3.1461
  177MOL    H9639168   6.043   6.854   7.758  0.2926  0.0517  2.1401
  177MOL    H9739169   5.991   6.708   7.671  0.5406 -0.4010 -0.2722
  177MOL    H9839170   5.912   6.747   7.817 -0.8648  1.6733 -0.4421
  177MOL    H9939171   6.021   6.694   0.255  1.3890 -0.1458  0.3352
  177MOL   H10039172   6.177   6.633   0.276  0.1583  0.7327 -0.0651
  177MOL   C10139173   6.023   6.491   0.334 -0.1186 -0.5496 -0.8900
  177MOL   C10239174   5.881   6.521   0.370  0.4051  0.5515 -0.4890
  177MOL   O10339175   5.847   6.580   0.473 -0.1373  0.4127  0.6863
  177MOL   C10439176   5.767   6.472   0.283 -0.6940 -0.6423 -0.2136
  177MOL   C10539177   6.117   6.483   0.464  0.0190 -0.8006 -0.1150
  177MOL   H10639178   6.015   6.394   0.285 -1.2936 -1.0914  0.3344
  177MOL   H10739179   5.704   6.553   0.245 -3.3610 -0.8757  3.3517
  177MOL   H10839180   5.816   6.423   0.200 -1.0719 -0.6128 -0.4545
  177MOL   H10939181   5.705   6.394   0.327  0.6369 -1.7739 -0.3310
  177MOL   H11039182   6.074   6.415   0.538 -0.5784 -1.9004 -1.4453
  177MOL   H11139183   6.131   6.585   0.499 -1.2944 -0.7350  0.2398
  177MOL   C11239184   6.259   6.426   0.440  0.3811 -0.5777 -0.3952
  177MOL   C11339185   6.255   6.285   0.383 -0.5889 -0.4354 -0.8686
  177MOL   O11439186   6.319   6.255   0.284  0.0581  0.4879  0.0531
  177MOL   C11539187   6.204   6.170   0.469  0.5470 -0.1922 -0.2051
  177MOL   C11639188   6.350   6.446   0.563  0.2649  0.4454  0.0596
  177MOL   H11739189   6.300   6.489   0.362 -1.0652  1.2514  0.2732
  177MOL   H11839190   6.275   6.089   0.449  1.8828  0.7785  0.4642
  177MOL   H11939191   6.197   6.188   0.576  0.0465  3.8007 -0.8377
  177MOL   H12039192   6.105   6.135   0.442  1.4589 -3.5274  0.5536
  177MOL   H12139193   6.306   6.390   0.646 -2.0749  2.1222 -0.0061
  177MOL   H12239194   6.346   6.547   0.604 -2.3243  0.3013  0.2496
  177MOL   C12339195   6.501   6.410   0.541  0.0901  0.5373  0.4009
  177MOL   C12439196   6.574   6.390   0.670  0.3001  0.4107  0.7173
  177MOL   O12539197   6.586   6.471   0.759 -0.1137  0.0682 -0.4903
  177MOL   C12639198   6.641   6.254   0.681 -0.3634  0.0217 -0.2887
  177MOL   C12739199   6.576   6.518   0.450 -0.2954  0.0412  0.1702
  177MOL   H12839200   6.511   6.313   0.491  2.6474  0.5391  0.8827
  177MOL   H12939201   6.600   6.175   0.619 -1.3988  0.4088 -0.0953
  177MOL   H13039202   6.738   6.268   0.632 -0.8364 -0.4485 -1.3732
  177MOL   H13139203   6.656   6.217   0.783 -0.1318 -0.3432 -0.4550
  177MOL   H13239204   6.568   6.621   0.483  2.6527  0.9175 -1.6498
  177MOL   H13339205   6.525   6.546   0.358 -0.2857  3.2300  1.0743
  177MOL   C13439206   6.723   6.486   0.408  0.3334 -0.0659  0.4393
  177MOL   C13539207   6.731   6.342   0.346 -0.4315 -0.2706  0.0797
  177MOL   O13639208   6.804   6.253   0.387  0.1944 -0.4951 -0.0392
  177MOL   C13739209   6.635   6.322   0.231  0.5357 -0.0574 -0.9514
  177MOL   C13839210   6.828   6.523   0.523  0.5844  0.0711 -0.1177
  177MOL   H13939211   6.748   6.557   0.329  0.4862 -0.1447  0.4168
  177MOL   H14039212   6.680   6.253   0.160  1.4904 -1.0684  0.5913
  177MOL   H14139213   6.546   6.264   0.257  1.6776 -0.7544  1.5921
  177MOL   H14239214   6.605   6.418   0.190 -0.1420  0.2634  0.2423
  177MOL   H14339215   6.928   6.505   0.484  0.4240  1.8851 -1.3869
  177MOL   H14439216   6.814   6.448   0.601 -0.3831 -0.1842 -0.5274
  177MOL   C14539217   6.833   6.662   0.588  0.0553  0.0477  0.9871
  177MOL   C14639218   6.850   6.778   0.484 -0.2423  0.2787 -0.2362
  177MOL   O14739219   6.895   6.763   0.369 -0.0729 -0.1154 -0.3614
  177MOL   C14839220   6.819   6.912   0.538  0.4747  0.5727 -0.5102
  177MOL   C14939221   6.944   6.663   0.701  0.0504  0.5281 -0.3202
  177MOL   H15039222   6.740   6.681   0.642 -0.6289 -1.2873  0.2860
  177MOL   H15139223   6.876   6.990   0.487  0.2148  0.6926 -0.6204
  177MOL   H15239224   6.714   6.936   0.524  0.2921  0.5104  0.6928
  177MOL   H15339225   6.845   6.917   0.644 -0.6447 -1.8440 -0.0928
  177MOL   H15439226   6.978   6.764   0.725  0.2186 -0.5991  4.7335
  177MOL   H15539227   7.030   6.612   0.658  0.3420  1.8568 -1.3607
  177MOL   C15639228   6.888   6.606   0.837 -0.8262  0.6179  0.6930
  177MOL   C15739229   6.797   6.701   0.914  0.4558  0.0907 -0.1615
  177MOL   O15839230   6.793   6.821   0.886  0.0034 -0.7719  0.2083
  177MOL   C15939231   6.701   6.647   1.022  0.0250  0.6437  0.3570
  177MOL   C16039232   6.997   6.558   0.940 -0.1360  0.1483 -0.1667
  177MOL   H16139233   6.822   6.526   0.806 -2.1862  2.2004 -0.5631
  177MOL   H16239234   6.685   6.541   1.000 -0.5571  0.3707  2.0589
  177MOL   H16339235   6.747   6.640   1.120 -0.1988 -0.2256  0.4048
  177MOL   H16439236   6.600   6.689   1.032  0.4234  1.3525  1.4188
  177MOL   H16539237   6.947   6.500   1.018  0.3145  0.0754  0.0700
  177MOL   H16639238   7.042   6.645   0.987  1.0610 -0.3146 -0.4309
  177MOL   C16739239   7.107   6.468   0.884 -0.0414  0.3703 -0.3912
  177MOL   C16839240   7.041   6.344   0.814 -0.4710  0.6694  0.3598
  177MOL   O16939241   7.017   6.349   0.695 -0.1183 -0.3324  0.5347
  177MOL   C17039242   6.973   6.237   0.907  0.6270  0.0091  0.1745
  177MOL   C17139243   7.212   6.442   0.991 -0.5219  0.1602 -0.3485
  177MOL   H17239244   7.159   6.539   0.820  0.8765 -1.2068 -1.4231
  177MOL   H17339245   6.952   6.283   1.003  0.6333  0.1545  0.1060
  177MOL   H17439246   6.877   6.207   0.863 -0.1379  1.7841  0.5976
  177MOL   H17539247   7.037   6.149   0.907  1.4854  0.6233 -0.3673
  177MOL   H17639248   7.178   6.411   1.090  1.2699  0.9610  0.5542
  177MOL   H17739249   7.251   6.543   1.006 -1.6541  0.5736 -0.1400
  177MOL   C17839250   7.322   6.340   0.934  0.1620  0.6380  0.1032
  177MOL   C17939251   7.391   6.282   1.060 -0.2538  0.5214  0.3132
  177MOL   O18039252   7.501   6.312   1.094  0.2314  0.9353 -0.4322
  177MOL   C18139253   7.330   6.155   1.127  0.4597  0.2691  0.4117
  177MOL   C18239254   7.421   6.410   0.835 -0.1837 -0.5385 -0.2490
  177MOL   H18339255   7.261   6.259   0.893  1.3234 -0.5185  0.6369
  177MOL   H18439256   7.251   6.185   1.196  2.0182  0.9778  1.9564
  177MOL   H18539257   7.291   6.100   1.042 -0.8346  1.9179 -0.0731
  177MOL   H18639258   7.411   6.099   1.176  0.5338 -1.0143 -1.1576
  177MOL   H18739259   7.495   6.470   0.889 -0.9716  0.7777 -0.5937
  177MOL   H18839260   7.369   6.495   0.791  1.7203  0.0562 -1.4154
  177MOL   C18939261   7.492   6.315   0.734 -0.4301 -0.0563 -0.4576
  177MOL   C19039262   7.376   6.243   0.656 -0.2559 -0.6680  0.3416
  177MOL   O19139263   7.332   6.128   0.680 -0.3850  0.0784  0.8478
  177MOL   C19239264   7.307   6.325   0.551  0.3314 -0.1064 -0.3914
  177MOL   C19339265   7.594   6.222   0.797  0.5615 -1.2732  0.2905
  177MOL   H19439266   7.542   6.370   0.654  0.4059  0.2675  0.2879
  177MOL   H19539267   7.374   6.371   0.479 -0.5054 -0.4975 -1.4241
  177MOL   H19639268   7.240   6.256   0.499  0.7865  0.1524 -1.3272
  177MOL   H19739269   7.242   6.385   0.614 -0.1748 -2.5001  1.4629
  177MOL   H19839270   7.551   6.147   0.864 -3.4860  1.4673  0.9051
  177MOL   H19939271   7.644   6.287   0.870  1.3831 -1.7297  0.1359
  177MOL   C20039272   7.704   6.157   0.709  0.5607  0.2970 -0.6388
  177MOL   C20139273   7.789   6.258   0.637 -0.5589 -0.6480 -0.8263
  177MOL   O20239274   7.764   6.327   0.536 -0.3302  0.3254 -0.5486
  177MOL   C20339275   0.084   6.280   0.700  0.1166 -1.0986 -0.0402
  177MOL   C20439276   7.628   6.054   0.622 -0.3132 -0.2386 -0.4848
  177MOL   H20539277   7.776   6.116   0.780  0.4024  1.8548  0.4610
  177MOL   H20639278   0.138   6.362   0.652 -1.6116  0.3069  0.3578
  177MOL   H20739279   0.076   6.309   0.805 -0.6237  0.8219 -0.5855
  177MOL   H20839280   0.139   6.186   0.701 -1.3501 -1.9751 -0.1222
  177MOL   H20939281   7.573   6.106   0.544 -0.3123  0.9802  0.3201
  177MOL   H21039282   7.562   6.007   0.695  0.6534 -0.2575  0.3966
  177MOL   C21139283   7.717   5.949   0.550  0.0229  0.3128  0.3748
  177MOL   C21239284   7.637   5.838   0.478  0.4611  0.1499  0.3127
  177MOL   O21339285   7.684   5.733   0.429 -0.6769 -0.3779 -0.3149
  177MOL   C21439286   7.498   5.860   0.440  0.4627  0.5716 -0.0213
  177MOL   C21539287   7.811   5.873   0.641  0.2599  0.2720 -0.1553
  177MOL   H21639288   7.780   6.004   0.480 -0.6027 -0.3411 -0.7201
  177MOL   H21739289   7.499   5.919   0.349 -0.3715  0.0673 -0.3673
  177MOL   H21839290   7.437   5.771   0.423  0.1759  0.9377 -0.9291
  177MOL   H21939291   7.442   5.931   0.501 -0.2790  0.3551 -0.4344
  177MOL   H22039292   0.040   5.822   0.576  0.2313 -0.1395  0.1343
  177MOL   H22139293   7.759   5.802   0.706  0.1194  1.9946  1.6365
  177MOL   H22239294   0.039   5.931   0.700  2.6646 -2.6758  0.0271
  178MOL     C139295   6.495   1.981   0.858 -0.0370 -0.2999 -0.5506
  178MOL     C239296   6.566   2.113   0.851 -0.2488 -0.1966 -0.0717
  178MOL     O339297   6.501   2.219   0.871  0.3770  0.4906 -0.3474
  178MOL     C439298   6.717   2.116   0.811  0.6082 -0.0666 -0.1370
  178MOL     C539299   6.358   1.986   0.928  0.6361 -0.1041  0.7434
  178MOL     H639300   6.485   1.932   0.761 -1.7979 -0.4600 -0.3078
  178MOL     H739301   6.774   2.206   0.836  1.4206  0.0703 -2.3563
  178MOL     H839302   6.774   2.045   0.870  0.1784  0.5833  1.0890
  178MOL     H939303   6.720   2.090   0.706  0.8256 -1.4133  0.1996
  178MOL    H1039304   6.304   2.058   0.867  0.9203  1.2939  2.1429
  178MOL    H1139305   6.365   2.015   1.032 -3.1026  0.7599  0.8161
  178MOL    H1239306   6.559   1.910   0.910 -0.4853 -0.8225 -0.7094
  178MOL    C1339307   6.283   1.850   0.915 -0.2618  0.2375  0.2378
  178MOL    C1439308   6.361   1.734   0.972 -0.1809  0.3341 -0.2598
  178MOL    O1539309   6.399   1.647   0.897 -0.2093 -0.1862 -0.1017
  178MOL    C1639310   6.368   1.713   1.120  0.0642  0.6046 -0.3291
  178MOL    C1739311   6.232   1.820   0.778 -0.3599  0.5815 -0.2835
  178MOL    H1839312   6.204   1.870   0.987 -0.4580 -0.7410  0.2978
  178MOL    H1939313   6.365   1.608   1.146 -0.7119  0.4645 -0.9789
  178MOL    H2039314   6.458   1.769   1.148 -0.7829  2.3993 -1.0993
  178MOL    H2139315   6.290   1.766   1.174 -2.3475 -0.4878 -2.6509
  178MOL    H2239316   6.201   1.716   0.768 -1.6875  0.6754  2.3559
  178MOL    H2339317   6.312   1.842   0.707  0.4897 -0.0118  0.4873
  178MOL    C2439318   6.108   1.899   0.752  0.8732 -1.0201 -0.1485
  178MOL    C2539319   5.989   1.838   0.827  0.9678 -0.8317 -0.2107
  178MOL    O2639320   5.977   1.719   0.858  0.5068 -0.1373  0.4599
  178MOL    C2739321   5.884   1.938   0.872  0.1186  0.7241  0.3890
  178MOL    C2839322   6.078   1.915   0.603  0.1253  0.1023 -0.7651
  178MOL    H2939323   6.136   1.993   0.800  3.2348 -1.6248 -0.2789
  178MOL    H3039324   5.833   1.898   0.959 -0.9266 -1.4071 -1.1561
  178MOL    H3139325   5.940   2.020   0.916  0.1837  0.7956  0.1719
  178MOL    H3239326   5.819   1.975   0.793  0.1879  0.9452  0.4361
  178MOL    H3339327   5.977   1.953   0.592  0.0597 -0.6022 -2.7517
  178MOL    H3439328   6.063   1.814   0.567 -1.4434  0.4302 -1.0659
  178MOL    C3539329   6.171   2.004   0.524  1.4139 -0.1063 -0.1707
  178MOL    C3639330   6.201   2.143   0.575 -0.2821 -0.0734  0.1660
  178MOL    O3739331   6.117   2.211   0.636  0.5807  0.4331  0.1217
  178MOL    C3839332   6.344   2.185   0.567 -0.2035  0.0621  0.7016
  178MOL    C3939333   6.124   2.019   0.380 -0.0944 -0.4863 -0.1818
  178MOL    H4039334   6.268   1.955   0.513  1.8378  0.5674  0.5506
  178MOL    H4139335   6.382   2.217   0.665  1.5352 -1.0422  0.4215
  178MOL    H4239336   6.415   2.106   0.542  1.7246  1.8435  0.3429
  178MOL    H4339337   6.364   2.264   0.495 -0.2558 -1.6722 -1.2448
  178MOL    H4439338   6.194   2.084   0.326 -1.0400  1.8038  1.3214
  178MOL    H4539339   6.035   2.080   0.368 -1.1825 -2.2350 -1.3521
  178MOL    C4639340   6.126   1.891   0.294 -0.0064 -0.1671  0.5807
  178MOL    C4739341   6.270   1.840   0.265  0.2682 -0.3689 -0.0562
  178MOL    O4839342   6.362   1.916   0.234 -0.1039  0.0342  0.7474
  178MOL    C4939343   6.289   1.690   0.275 -0.6886 -0.5393  0.6493
  178MOL    C5039344   6.054   1.929   0.164  0.4281  0.4301  0.6678
  178MOL    H5139345   6.070   1.814   0.348  0.1807 -0.1489  0.8048
  178MOL    H5239346   6.204   1.633   0.312 -3.0010  0.9249 -2.1794
  178MOL    H5339347   6.310   1.639   0.181  1.4735 -0.9667  1.3369
  178MOL    H5439348   6.384   1.675   0.326 -0.1463 -1.7536 -0.6923
  178MOL    H5539349   6.102   2.016   0.118 -0.8542 -0.1747 -1.9039
  178MOL    H5639350   5.950   1.956   0.183 -0.4472 -1.8272 -0.6352
  178MOL    C5739351   6.040   1.822   0.051  0.5944 -0.3376 -0.1475
  178MOL    C5839352   6.019   1.900   7.758  1.0053 -0.4879  0.2204
  178MOL    O5939353   5.907   1.895   7.704  0.1505 -0.1750 -0.2287
  178MOL    C6039354   6.126   1.983   7.698 -0.6097 -0.2174  0.3789
  178MOL    C6139355   5.936   1.716   0.089  0.0622 -0.3809 -0.3579
  178MOL    H6239356   6.131   1.765   0.035  0.5797  0.0937 -1.8814
  178MOL    H6339357   6.152   2.070   7.758  1.2484 -0.8980  0.6070
  178MOL    H6439358   6.224   1.938   7.680 -0.2897  1.3906 -2.1813
  178MOL    H6539359   6.081   2.034   7.613 -0.1814  0.4571  0.5482
  178MOL    H6639360   5.842   1.770   0.091  0.0659 -0.2318 -2.5268
  178MOL    H6739361   5.960   1.704   0.195 -1.6203  1.7622  0.3021
  178MOL    C6839362   5.900   1.594   0.007 -0.9926  0.6672 -0.0256
  178MOL    C6939363   5.768   1.617   7.768  0.9903 -0.1919 -0.6300
  178MOL    O7039364   5.664   1.629   7.832  0.8424  0.2824  0.5450
  178MOL    C7139365   5.776   1.624   7.616 -0.1869  0.7347  0.4621
  178MOL    C7239366   5.886   1.470   0.102  0.4537 -1.5070  1.0009
  178MOL    H7339367   5.970   1.578   7.767 -0.5082 -0.1970  0.5462
  178MOL    H7439368   5.825   1.715   7.581  0.9291 -0.3356 -0.7657
  178MOL    H7539369   5.830   1.538   7.579  2.2289  2.2268  0.4406
  178MOL    H7639370   5.676   1.645   7.577 -0.5679  4.4310  3.0709
  178MOL    H7739371   5.813   1.397   0.068  0.8942 -0.7365 -1.7583
  178MOL    H7839372   5.829   1.511   0.185  1.5630  0.5661  0.7942
  178MOL    C7939373   6.021   1.414   0.140  0.3951  0.2494 -0.2867
  178MOL    C8039374   6.105   1.349   0.033  0.3509  0.9055  0.6292
  178MOL    O8139375   6.063   1.308   7.764  0.1585 -0.4850 -0.0226
  178MOL    C8239376   6.256   1.354   0.046 -0.5217 -0.2388 -0.2176
  178MOL    C8339377   6.006   1.308   0.255  0.5552 -0.3616 -0.6520
  178MOL    H8439378   6.085   1.496   0.172 -1.5449  1.8715 -0.4286
  178MOL    H8539379   6.301   1.275   7.829  0.0376 -0.7532  0.9094
  178MOL    H8639380   6.307   1.448   0.024 -1.4773  0.8213  1.8891
  178MOL    H8739381   6.280   1.339   0.151  1.5259 -1.8182 -0.8839
  178MOL    H8839382   6.097   1.250   0.271  0.3380 -0.4303  0.3546
  178MOL    H8939383   5.943   1.235   0.206 -1.5661  0.8934  0.1446
  178MOL    C9039384   5.959   1.364   0.391 -0.5392 -0.0383  0.1954
  178MOL    C9139385   6.061   1.428   0.487 -0.1431 -0.8133 -0.3827
  178MOL    O9239386   6.182   1.414   0.465  0.0961 -0.6956 -0.1960
  178MOL    C9339387   6.010   1.519   0.599 -0.4639  0.2358  0.2800
  178MOL    C9439388   5.881   1.254   0.476  0.0017  0.0015  0.0791
  178MOL    H9539389   5.892   1.449   0.375  0.4132  0.9512  1.4103
  178MOL    H9639390   5.917   1.573   0.578 -1.2925 -0.6451  1.6191
  178MOL    H9739391   5.994   1.458   0.688 -0.8071  1.3547  0.9967
  178MOL    H9839392   6.090   1.592   0.607  1.0599 -1.1967 -1.5184
  178MOL    H9939393   5.862   1.279   0.580 -1.2167 -1.9089  0.3344
  178MOL   H10039394   5.941   1.164   0.487 -0.4651 -0.3373 -0.1046
  178MOL   C10139395   5.749   1.195   0.416 -0.3251  0.2145  1.0290
  178MOL   C10239396   5.651   1.305   0.400 -0.6854  0.2449 -0.0062
  178MOL   O10339397   5.638   1.382   0.490  0.5197 -0.1274 -0.5560
  178MOL   C10439398   5.598   1.329   0.258 -0.0492 -0.3533  0.4671
  178MOL   C10539399   5.699   1.077   0.501  0.2775 -0.3637  0.3119
  178MOL   H10639400   5.771   1.157   0.316 -1.7941  4.0424 -0.8768
  178MOL   H10739401   5.522   1.255   0.231 -1.8984  1.1711  1.3907
  178MOL   H10839402   5.558   1.430   0.244  2.3569  0.3812 -1.3595
  178MOL   H10939403   5.669   1.303   0.180 -0.0838 -1.2176  0.7219
  178MOL   H11039404   5.590   1.077   0.502  0.2147 -0.3878 -2.8787
  178MOL   H11139405   5.722   1.104   0.604 -3.9068  2.6088  0.5653
  178MOL   C11239406   5.756   0.942   0.460  0.3429 -0.2818  0.4902
  178MOL   C11339407   5.705   0.901   0.312  0.6726  0.2256 -0.6451
  178MOL   O11439408   5.604   0.949   0.263 -0.1152 -0.3724 -0.4568
  178MOL   C11539409   5.782   0.792   0.248 -0.2758  0.3605  0.5699
  178MOL   C11639410   5.709   0.827   0.562 -0.6430 -0.2804  0.2473
  178MOL   H11739411   5.864   0.959   0.455  0.4101 -0.5261  1.0712
  178MOL   H11839412   5.779   0.790   0.140 -0.4258 -1.7102  0.5840
  178MOL   H11939413   5.886   0.800   0.280  0.9196 -1.8575 -2.5218
  178MOL   H12039414   5.751   0.694   0.284 -0.9387 -0.8376 -3.0620
  178MOL   H12139415   5.752   0.730   0.538  0.5417  0.5880 -1.2862
  178MOL   H12239416   5.603   0.806   0.548 -1.0601  1.5778  0.3883
  178MOL   C12339417   5.738   0.859   0.709  0.5044 -0.4777 -0.1727
  178MOL   C12439418   5.885   0.872   0.734  0.3148  0.3869  0.1262
  178MOL   O12539419   5.930   0.988   0.757 -1.1101 -0.6010 -0.6275
  178MOL   C12639420   5.984   0.755   0.706  0.3604 -0.2792  0.2682
  178MOL   C12739421   5.674   0.763   0.805  0.0055  0.7652  0.6797
  178MOL   H12839422   5.688   0.952   0.734  0.3619 -0.8809  1.1124
  178MOL   H12939423   6.068   0.752   0.775  0.0680 -1.3782  0.5987
  178MOL   H13039424   5.927   0.661   0.704 -1.2633  0.7136 -1.7529
  178MOL   H13139425   6.019   0.772   0.604 -1.6474  0.1844 -0.3683
  178MOL   H13239426   5.736   0.674   0.816  2.0021  2.0009 -0.2819
  178MOL   H13339427   5.588   0.714   0.759  0.7020 -2.2706  2.5335
  178MOL   C13439428   5.626   0.824   0.934  0.8925  0.0121 -0.0937
  178MOL   C13539429   5.535   0.947   0.923  0.4975  0.0705  0.3589
  178MOL   O13639430   5.554   1.056   0.976 -0.0573  0.0649 -0.2169
  178MOL   C13739431   5.416   0.938   0.842  0.5081 -0.6185  0.1402
  178MOL   C13839432   5.734   0.842   1.038 -0.6449  0.5799 -0.5471
  178MOL   H13939433   5.555   0.755   0.978 -1.5351  0.9897 -2.3327
  178MOL   H14039434   5.378   1.034   0.809  1.3335  0.1407  1.3699
  178MOL   H14139435   5.442   0.891   0.747  0.6499  1.6817 -0.9763
  178MOL   H14239436   5.340   0.876   0.890  0.1799 -1.0636 -0.9305
  178MOL   H14339437   5.773   0.943   1.033  3.1839 -0.5918  2.8726
  178MOL   H14439438   5.818   0.775   1.018 -0.7770  0.1926  0.1655
  178MOL   C14539439   5.697   0.813   1.186  0.2770  0.4340 -0.2350
  178MOL   C14639440   5.808   0.870   1.275  0.1235  0.1017  0.4424
  178MOL   O14739441   5.926   0.864   1.242  0.1218  0.2818  0.2245
  178MOL   C14839442   5.771   0.925   1.411  0.4766  0.3411 -0.3728
  178MOL   C14939443   5.652   0.672   1.222 -0.0964  0.0969  0.0266
  178MOL   H15039444   5.616   0.883   1.205 -1.2029 -1.0222 -0.9515
  178MOL   H15139445   5.662   0.917   1.419  0.6363  0.1963  1.8266
  178MOL   H15239446   5.826   0.886   1.496 -0.3417 -1.3974 -0.6146
  178MOL   H15339447   5.783   1.033   1.406 -2.0203  0.6792  0.2832
  178MOL   H15439448   5.563   0.638   1.170 -1.2135  1.5338  0.9752
  178MOL   H15539449   5.609   0.687   1.321  1.1672 -1.3508  0.8151
  178MOL   C15639450   5.760   0.567   1.245 -0.1217 -0.5183 -0.1236
  178MOL   C15739451   5.809   0.512   1.106 -0.0061  0.9041  0.4780
  178MOL   O15839452   5.732   0.452   1.028 -0.6108 -0.2155  0.2498
  178MOL   C15939453   5.958   0.547   1.066  0.0729  0.4905  0.2629
  178MOL   C16039454   5.703   0.444   1.330 -0.1747 -0.1066 -0.3740
  178MOL   H16139455   5.849   0.607   1.295  1.1480 -1.7904 -1.3167
  178MOL   H16239456   6.000   0.631   1.120  2.0424  0.0313 -0.5254
  178MOL   H16339457   6.024   0.460   1.073  1.6616  1.2964 -3.3976
  178MOL   H16439458   5.966   0.589   0.965 -1.0726  2.2343  0.8788
  178MOL   H16539459   5.624   0.393   1.275 -0.2310 -0.0018 -0.3902
  178MOL   H16639460   5.643   0.487   1.410 -1.0046  2.8906 -2.5117
  178MOL   C16739461   5.799   0.338   1.388 -0.0653 -0.1661  0.2568
  178MOL   C16839462   5.860   0.387   1.523  0.1073  0.3847  0.0532
  178MOL   O16939463   5.874   0.512   1.546 -0.1547  0.0271 -0.3799
  178MOL   C17039464   5.899   0.295   1.634 -0.5157  0.5454 -0.0673
  178MOL   C17139465   5.913   0.279   1.303 -0.0042 -0.6659  0.6353
  178MOL   H17239466   5.734   0.253   1.410 -0.5078  0.1827  0.3095
  178MOL   H17339467   6.003   0.311   1.664 -0.1270  2.6061 -2.4128
  178MOL   H17439468   5.840   0.310   1.724  1.5695 -1.3431  1.6936
  178MOL   H17539469   5.884   0.190   1.607 -1.8251  0.8965 -0.7469
  178MOL   H17639470   5.973   0.212   1.364  0.7852  0.0166  0.6145
  178MOL   H17739471   5.988   0.353   1.274  1.6136 -2.0525  1.1999
  178MOL   C17839472   5.868   0.194   1.187 -0.1986  0.0468  0.8139
  178MOL   C17939473   5.805   0.065   1.234 -0.7550  0.4214 -0.2145
  178MOL   O18039474   5.881   7.811   1.266  0.0573 -0.1160  0.3763
  178MOL   C18139475   5.652   0.053   1.252 -0.1638  0.6049  0.5793
  178MOL   C18239476   5.986   0.156   1.093  0.4958  0.7863 -0.5135
  178MOL   H18339477   5.787   0.239   1.130  0.1597  1.2839  1.2771
  178MOL   H18439478   5.613   0.143   1.203  2.1290  0.0030 -2.4749
  178MOL   H18539479   5.604   7.810   1.203  0.1156 -0.1546  1.6081
  178MOL   H18639480   5.611   0.049   1.353  0.6086 -0.9546  0.8386
  178MOL   H18739481   6.059   0.092   1.143 -0.1957 -1.0149 -1.7406
  178MOL   H18839482   6.044   0.241   1.057  2.5996 -1.4291 -2.4895
  178MOL   C18939483   5.953   0.083   0.958  0.1439 -0.0664 -0.6437
  178MOL   C19039484   6.052   7.820   0.915 -0.6769  0.9329 -0.0304
  178MOL   O19139485   6.170   0.005   0.910  0.5606 -0.3753 -0.2256
  178MOL   C19239486   5.990   7.678   0.892  0.3852 -0.1305  0.8533
  178MOL   C19339487   5.948   0.198   0.843 -0.4511  0.1162  0.5597
  178MOL   H19439488   5.848   0.054   0.965 -0.8034  3.5054  1.9529
  178MOL   H19539489   5.904   7.689   0.826  1.0817 -0.1383 -0.0788
  178MOL   H19639490   6.063   7.614   0.841  0.9723  1.0977  0.1223
  178MOL   H19739491   5.946   7.639   0.984  0.0765  0.1879  0.8419
  178MOL   H19839492   6.050   0.224   0.816 -0.6877  0.0120 -0.4447
  178MOL   H19939493   5.904   0.292   0.876  2.7470  2.4531 -1.5025
  178MOL   C20039494   5.867   0.162   0.710  0.2367  0.4100  0.7307
  178MOL   C20139495   5.915   0.241   0.586  0.4320  0.3899  0.3774
  178MOL   O20239496   5.981   0.187   0.494  0.1347 -0.5238  0.0320
  178MOL   C20339497   5.864   0.383   0.576 -0.2667 -0.4410  0.1080
  178MOL   C20439498   5.711   0.161   0.709  0.2247  0.6652 -0.2716
  178MOL   H20539499   5.886   0.058   0.686  0.3505  0.7446 -0.6690
  178MOL   H20639500   5.782   0.404   0.508  0.6959 -1.8824 -1.5361
  178MOL   H20739501   5.836   0.422   0.674  0.8578 -0.3355  0.3901
  178MOL   H20839502   5.945   0.450   0.546  0.2163 -0.6361  0.9592
  178MOL   H20939503   5.680   0.166   0.605 -3.8581  1.1317  0.9081
  178MOL   H21039504   5.668   0.252   0.752 -1.9177 -0.0949 -0.7949
  178MOL   C21139505   5.645   0.031   0.769 -0.1583 -0.2623 -0.4998
  178MOL   C21239506   5.556   7.803   0.664  0.2130 -0.6279 -0.1859
  178MOL   O21339507   5.435   7.803   0.675  0.5940 -0.0044 -0.2200
  178MOL   C21439508   5.622   7.724   0.551  0.2919 -0.2908  0.7199
  178MOL   C21539509   5.583   0.064   0.906 -0.4667 -0.1165 -0.1240
  178MOL   H21639510   5.727   7.804   0.787 -0.1744 -0.3862 -0.8983
  178MOL   H21739511   5.670   7.781   0.472 -2.6411 -0.8083 -1.5010
  178MOL   H21839512   5.685   7.643   0.589  0.9675  0.4213  1.1262
  178MOL   H21939513   5.538   7.680   0.498  1.3423 -0.2406 -1.0378
  178MOL   H22039514   5.487   0.117   0.900 -0.2802  0.1319 -0.9669
  178MOL   H22139515   5.652   0.133   0.954  0.0612 -0.8026  0.0993
  178MOL   H22239516   5.563   7.821   0.971 -1.0748 -0.0665 -0.2422
  179MOL     C139517   5.217   1.590   5.449 -0.0879 -0.1936 -0.6443
  179MOL     C239518   5.072   1.545   5.426 -0.2530 -0.0731 -0.4695
  179MOL     O339519   5.042   1.463   5.342  0.3218  0.3343 -0.2322
  179MOL     C439520   4.965   1.614   5.508 -0.0497  0.3876 -0.1388
  179MOL     C539521   5.323   1.544   5.341  0.0825  0.2894  0.4148
  179MOL     H639522   5.220   1.699   5.456  0.2290 -0.3148  1.4751
  179MOL     H739523   4.888   1.659   5.447  1.5745  0.7302 -1.9810
  179MOL     H839524   4.921   1.544   5.579  2.0225 -0.9780 -0.1409
  179MOL     H939525   5.011   1.689   5.573 -0.5393 -0.8870  1.7221
  179MOL    H1039526   5.300   1.591   5.245 -1.1672 -0.3623  0.3714
  179MOL    H1139527   5.312   1.438   5.318 -0.7339  0.9958 -2.7522
  179MOL    H1239528   5.244   1.552   5.548  0.7455  0.3713 -0.6451
  179MOL    C1339529   5.473   1.574   5.396  0.8820  0.6284  0.5117
  179MOL    C1439530   5.493   1.729   5.391  0.0955  0.2656 -0.1598
  179MOL    O1539531   5.416   1.809   5.341  0.4072 -0.0459  0.2395
  179MOL    C1639532   5.601   1.784   5.486 -0.3970  0.9181  0.6415
  179MOL    C1739533   5.582   1.496   5.315  0.4000 -0.1253  0.5831
  179MOL    H1839534   5.479   1.542   5.500 -1.8824  2.8377  1.4007
  179MOL    H1939535   5.635   1.707   5.555 -1.3889  1.8306  2.1673
  179MOL    H2039536   5.688   1.826   5.436 -0.3473  0.1444  0.0582
  179MOL    H2139537   5.573   1.865   5.553  0.2756  0.5588  1.3675
  179MOL    H2239538   5.559   1.390   5.326  1.1315 -0.3009  0.4034
  179MOL    H2339539   5.676   1.507   5.369  0.8820  1.2394 -0.5050
  179MOL    C2439540   5.590   1.538   5.161  0.7642  0.3548 -0.5882
  179MOL    C2539541   5.488   1.462   5.065 -0.3266  0.8494  0.3120
  179MOL    O2639542   5.428   1.356   5.099  0.2643 -0.0975  0.0039
  179MOL    C2739543   5.464   1.524   4.920 -0.2428  0.4394  0.3036
  179MOL    C2839544   5.731   1.506   5.114  0.0693 -0.1247  0.7905
  179MOL    H2939545   5.552   1.639   5.146 -0.7965 -0.3326 -1.3796
  179MOL    H3039546   5.375   1.585   4.936 -0.2282  0.5154  0.0876
  179MOL    H3139547   5.549   1.590   4.906  0.5965 -1.1330 -2.4584
  179MOL    H3239548   5.446   1.464   4.831 -0.4378  0.7979  0.1010
  179MOL    H3339549   5.748   1.508   5.007  0.0425  0.0234  0.7885
  179MOL    H3439550   5.752   1.400   5.129 -0.6015 -0.4051 -0.1845
  179MOL    C3539551   5.844   1.595   5.165 -0.3128  0.4257  0.4784
  179MOL    C3639552   5.846   1.733   5.098 -0.2968 -0.2294 -0.5938
  179MOL    O3739553   5.839   1.748   4.983 -0.3779 -0.0966 -0.3812
  179MOL    C3839554   5.825   1.859   5.179 -0.1977 -0.7621 -0.6566
  179MOL    C3939555   5.981   1.520   5.150  1.0148 -0.6901 -0.7967
  179MOL    H4039556   5.829   1.613   5.271  2.1359 -1.5786  1.2279
  179MOL    H4139557   5.896   1.939   5.158  0.3174 -1.0584 -0.0557
  179MOL    H4239558   5.726   1.904   5.175  1.3001  3.0160  1.9102
  179MOL    H4339559   5.854   1.836   5.282 -0.3293 -0.5269 -0.5665
  179MOL    H4439560   6.065   1.589   5.147  1.7084 -1.5784 -2.1179
  179MOL    H4539561   5.993   1.453   5.065 -0.9540 -3.4418  1.0015
  179MOL    C4639562   6.004   1.428   5.276 -0.0227  0.2989  0.0802
  179MOL    C4739563   6.068   1.510   5.387  0.4750 -0.0537 -0.0045
  179MOL    O4839564   5.998   1.568   5.467  0.2456 -0.5848  0.0986
  179MOL    C4939565   6.219   1.527   5.388 -0.3249 -0.1957 -0.1048
  179MOL    C5039566   6.064   1.291   5.242 -0.2023 -0.2393  0.0298
  179MOL    H5139567   5.904   1.407   5.314 -1.0376  0.9119 -2.2019
  179MOL    H5239568   6.251   1.615   5.444  1.7845 -0.9575 -0.0697
  179MOL    H5339569   6.257   1.430   5.421  0.3156  0.3007  0.6518
  179MOL    H5439570   6.247   1.534   5.283 -2.4336 -0.2523 -0.6862
  179MOL    H5539571   6.170   1.302   5.219 -0.6362  1.3698 -1.3575
  179MOL    H5639572   6.028   1.267   5.142  1.5025  0.0017 -0.6558
  179MOL    C5739573   6.035   1.172   5.333  0.1686  0.4618 -0.6030
  179MOL    C5839574   6.157   1.107   5.380 -0.1597 -0.0856  0.5316
  179MOL    O5939575   6.207   1.135   5.490 -0.0584 -0.4113  0.2585
  179MOL    C6039576   6.233   1.016   5.285  0.4743  0.6176  0.6168
  179MOL    C6139577   5.931   1.061   5.276  0.0246 -0.5681 -0.0228
  179MOL    H6239578   5.991   1.208   5.426  0.5995  0.3298 -0.3502
  179MOL    H6339579   6.205   0.913   5.309 -3.5124  1.5867  0.5122
  179MOL    H6439580   6.199   1.038   5.184 -0.7114  0.5483  0.9872
  179MOL    H6539581   6.339   1.027   5.306  1.0488 -1.2444 -1.0587
  179MOL    H6639582   5.988   0.990   5.216  1.3381 -0.2535  0.8287
  179MOL    H6739583   5.871   1.109   5.199  0.4753 -0.5405 -0.3632
  179MOL    C6839584   5.832   0.993   5.369 -0.5536  0.4016 -0.2649
  179MOL    C6939585   5.734   1.091   5.427  0.2438  0.0109  0.4299
  179MOL    O7039586   5.771   1.183   5.497 -0.3533 -0.3391  0.0528
  179MOL    C7139587   5.604   1.098   5.358 -0.2617 -0.5038  0.3761
  179MOL    C7239588   5.897   0.902   5.475  0.3266 -0.7574 -0.1489
  179MOL    H7339589   5.784   0.924   5.300  1.5600 -1.2454 -0.1428
  179MOL    H7439590   5.630   1.129   5.256 -1.6397  0.1149  0.1936
  179MOL    H7539591   5.566   0.996   5.357 -2.6019  0.3450 -0.3285
  179MOL    H7639592   5.539   1.172   5.405  1.1499  0.9233  0.1589
  179MOL    H7739593   5.906   0.963   5.565 -1.7612  1.5912 -1.4609
  179MOL    H7839594   5.998   0.869   5.452  0.1965 -1.6611  0.5508
  179MOL    C7939595   5.811   0.786   5.516  0.0448  0.8628 -0.3183
  179MOL    C8039596   5.735   0.714   5.406 -0.0226  0.6536 -0.2853
  179MOL    O8139597   5.620   0.736   5.377  0.0225  0.2419 -0.3390
  179MOL    C8239598   5.806   0.602   5.330 -0.0128  0.2699 -0.3256
  179MOL    C8339599   5.726   0.798   5.656  0.0769  0.8595 -0.2396
  179MOL    H8439600   5.888   0.717   5.553  2.3711  2.2786 -2.3726
  179MOL    H8539601   5.896   0.589   5.391 -0.4509  1.3419  0.5801
  179MOL    H8639602   5.737   0.518   5.332  0.3624 -0.0468 -0.6557
  179MOL    H8739603   5.832   0.634   5.229  0.9286  1.4683  0.2794
  179MOL    H8839604   5.636   0.744   5.628  0.8321 -0.4826 -0.1119
  179MOL    H8939605   5.694   0.902   5.666  0.3045  0.7632  1.4726
  179MOL    C9039606   5.793   0.760   5.791 -0.4063  0.1808 -0.5416
  179MOL    C9139607   5.796   0.606   5.806  0.3635  0.2094  1.0512
  179MOL    O9239608   5.763   0.525   5.711  0.0865 -0.6413 -0.8292
  179MOL    C9339609   5.858   0.547   5.929 -0.1060  0.1647  0.6188
  179MOL    C9439610   5.731   0.832   5.920  0.1862  0.6184 -0.4474
  179MOL    H9539611   5.893   0.802   5.778 -0.0832 -0.5974 -0.6222
  179MOL    H9639612   5.782   0.543   6.006 -0.4980  0.2498  0.2353
  179MOL    H9739613   5.887   0.445   5.905  0.3940 -0.2032  2.7606
  179MOL    H9839614   5.943   0.602   5.970  1.6023 -0.7984 -1.4772
  179MOL    H9939615   5.763   0.788   6.014 -0.4049  3.9959  1.4025
  179MOL   H10039616   5.623   0.819   5.915  0.2846 -0.0107 -1.0262
  179MOL   C10139617   5.753   0.985   5.944 -0.1410  0.5462  0.2960
  179MOL   C10239618   5.898   1.011   5.973 -0.1950  0.4880  0.5435
  179MOL   O10339619   5.949   1.000   6.086 -0.0719  0.0575 -0.2850
  179MOL   C10439620   5.994   1.044   5.859  0.2719  0.3169  0.4059
  179MOL   C10539621   5.677   1.053   6.058  0.1683  0.7958  0.8901
  179MOL   H10639622   5.729   1.029   5.847 -2.0885  0.6065  0.7957
  179MOL   H10739623   5.939   1.085   5.773  2.8298 -1.1716 -2.0326
  179MOL   H10839624   6.067   1.113   5.900  0.7798  0.2007 -0.2799
  179MOL   H10939625   6.052   0.960   5.821 -1.4334 -0.3396 -0.8421
  179MOL   H11039626   5.714   1.154   6.074 -0.2363  0.8970  1.1747
  179MOL   H11139627   5.682   0.994   6.149  0.1402  1.0707  1.0671
  179MOL   C11239628   5.524   1.075   6.029  0.3636 -0.5594 -0.4709
  179MOL   C11339629   5.495   1.190   5.931  0.2756  0.7836  0.3238
  179MOL   O11439630   5.576   1.281   5.915  0.5864  0.5883 -0.3098
  179MOL   C11539631   5.361   1.195   5.861 -0.0383 -0.6119  0.8661
  179MOL   C11639632   5.447   1.119   6.157 -0.0014  0.7051  0.2936
  179MOL   H11739633   5.480   0.986   5.983 -2.2539 -0.2268  1.3479
  179MOL   H11839634   5.295   1.112   5.888  0.7405 -1.7631 -0.6234
  179MOL   H11939635   5.321   1.294   5.879  3.6384  1.2373 -0.6377
  179MOL   H12039636   5.377   1.197   5.753  1.2827  1.3488  1.0875
  179MOL   H12139637   5.471   1.034   6.221  2.0334  0.7800 -0.3369
  179MOL   H12239638   5.340   1.105   6.139  0.0747  0.6288 -0.0870
  179MOL   C12339639   5.485   1.252   6.232 -0.3589 -0.3032 -0.9451
  179MOL   C12439640   5.505   1.218   6.380  0.4331  0.2656  0.6264
  179MOL   O12539641   5.415   1.163   6.438  0.2924  0.4601  0.1122
  179MOL   C12639642   5.647   1.241   6.447 -0.7162  0.4332 -0.9449
  179MOL   C12739643   5.393   1.372   6.208  0.0765  0.2214  0.8079
  179MOL   H12839644   5.582   1.292   6.203  0.7320 -1.0570  1.5950
  179MOL   H12939645   5.715   1.298   6.385  1.2673  0.6191  1.3589
  179MOL   H13039646   5.633   1.292   6.542  0.3300 -1.9361  0.5333
  179MOL   H13139647   5.694   1.145   6.470 -0.4476  0.2188 -2.3586
  179MOL   H13239648   5.359   1.398   6.308 -1.1429 -0.0738  0.4747
  179MOL   H13339649   5.309   1.345   6.144  1.9963 -0.0212 -1.6991
  179MOL   C13439650   5.447   1.511   6.150 -0.0276  0.2308 -0.1548
  179MOL   C13539651   5.548   1.583   6.240  0.0210 -0.4774 -0.4285
  179MOL   O13639652   5.555   1.562   6.363 -0.1689  0.4463 -0.3961
  179MOL   C13739653   5.643   1.681   6.178  0.1362  0.3873 -0.0964
  179MOL   C13839654   5.330   1.601   6.118  0.3274 -0.2075 -0.1343
  179MOL   H13939655   5.504   1.487   6.060  2.7696  0.2446  1.5608
  179MOL   H14039656   5.700   1.630   6.100  1.7189 -1.2624  2.0890
  179MOL   H14139657   5.602   1.777   6.147 -0.4615 -0.2359 -1.2816
  179MOL   H14239658   5.721   1.699   6.252 -0.2966 -1.5872  0.8677
  179MOL   H14339659   5.331   1.703   6.157  2.0069 -0.0720 -0.4982
  179MOL   H14439660   5.243   1.555   6.165  0.7246 -3.1340 -2.1653
  179MOL   C14539661   5.306   1.610   5.962 -0.8292 -0.9219  0.0419
  179MOL   C14639662   5.401   1.709   5.898  1.1826 -0.1489 -0.2883
  179MOL   O14739663   5.423   1.822   5.949  0.1745  0.5389  1.0819
  179MOL   C14839664   5.480   1.665   5.778  0.6007 -0.2299  0.0735
  179MOL   C14939665   5.161   1.654   5.926  0.2983 -0.2190  0.9466
  179MOL   H15039666   5.334   1.515   5.916 -1.8980 -0.1630 -2.2447
  179MOL   H15139667   5.423   1.694   5.690 -1.8440 -0.7626  1.4370
  179MOL   H15239668   5.572   1.723   5.768  1.8096 -1.8411  1.3951
  179MOL   H15339669   5.495   1.557   5.782 -0.2433 -0.3063  2.2324
  179MOL   H15439670   5.158   1.673   5.818  0.5428 -0.5624  0.8772
  179MOL   H15539671   5.138   1.748   5.975 -0.8586 -0.8899  1.6896
  179MOL   C15639672   5.047   1.552   5.949  0.4254 -0.1406 -0.2487
  179MOL   C15739673   5.061   1.422   5.876 -0.1253  0.3352  0.2492
  179MOL   O15839674   5.090   1.411   5.758  0.6014 -0.6140  0.5916
  179MOL   C15939675   5.036   1.298   5.969  0.1904 -0.5225 -0.1608
  179MOL   C16039676   4.909   1.611   5.913  0.0330  0.3397  0.5344
  179MOL   H16139677   5.031   1.535   6.056  3.1147 -0.4373  0.1454
  179MOL   H16239678   5.120   1.228   5.961  1.4909  1.1427 -1.5046
  179MOL   H16339679   5.019   1.336   6.070 -3.3135 -0.0068 -0.8931
  179MOL   H16439680   4.950   1.241   5.937  0.5889 -1.2334  0.0268
  179MOL   H16539681   4.834   1.532   5.906  1.2294 -0.7392 -0.1982
  179MOL   H16639682   4.907   1.634   5.807 -1.2097 -2.8087 -0.1963
  179MOL   C16739683   4.856   1.723   5.996 -0.5446 -0.1120  0.1567
  179MOL   C16839684   4.828   1.692   6.150 -0.1342  0.7647  0.1092
  179MOL   O16939685   4.801   1.576   6.189  0.2445  0.1631  0.7815
  179MOL   C17039686   4.837   1.804   6.247  0.1494 -0.5319  0.6163
  179MOL   C17139687   4.730   1.765   5.933  0.4012 -0.8060  0.0671
  179MOL   H17239688   4.920   1.809   5.977 -0.4700 -0.8099 -3.1841
  179MOL   H17339689   4.892   1.889   6.207 -0.9977  0.3776  0.9117
  179MOL   H17439690   4.741   1.841   6.283  0.5821  0.9165  0.3185
  179MOL   H17539691   4.897   1.755   6.324 -0.6242 -3.0827 -0.3501
  179MOL   H17639692   4.651   1.694   5.960  1.6079 -0.5637  4.5355
  179MOL   H17739693   4.729   1.772   5.824 -0.4234  1.1784  0.1838
  179MOL   C17839694   4.683   1.911   5.967 -0.0844  0.6433  0.2262
  179MOL   C17939695   4.525   1.930   5.972  0.0367  0.5521 -0.3377
  179MOL   O18039696   4.470   1.971   6.069  0.3627  0.0961  0.4041
  179MOL   C18139697   4.445   1.899   5.841  0.1265  0.7898 -1.0593
  179MOL   C18239698   4.749   2.018   5.885 -0.3516  0.5851  0.0387
  179MOL   H18339699   4.705   1.938   6.070  1.4178  0.8669 -0.1385
  179MOL   H18439700   4.354   1.958   5.829 -0.9039 -0.5945 -0.3570
  179MOL   H18539701   4.499   1.914   5.748 -2.2540  0.6102 -2.5293
  179MOL   H18639702   4.423   1.793   5.823  0.2297  0.4509  0.7139
  179MOL   H18739703   4.698   2.010   5.788 -1.6296 -2.0997  0.8851
  179MOL   H18839704   4.848   1.995   5.845 -1.0570 -0.2714 -1.2461
  179MOL   C18939705   4.749   2.163   5.939  0.1674 -0.9054  0.1421
  179MOL   C19039706   4.817   2.253   5.833  0.4353 -0.5943  0.4418
  179MOL   O19139707   4.937   2.268   5.837 -0.2461 -0.6965 -0.2963
  179MOL   C19239708   4.731   2.322   5.723 -0.3156 -0.0326 -0.0950
  179MOL   C19339709   4.802   2.178   6.081  0.0875 -0.5765  0.1132
  179MOL   H19439710   4.649   2.206   5.939  0.7882  0.5660  1.2973
  179MOL   H19539711   4.731   2.264   5.631 -0.7244 -1.1419  0.5898
  179MOL   H19639712   4.630   2.341   5.759 -0.9781  0.0378 -1.9319
  179MOL   H19739713   4.773   2.418   5.695 -0.8190  0.5191  0.9862
  179MOL   H19839714   4.910   2.164   6.080  0.2439  0.4928  1.1581
  179MOL   H19939715   4.770   2.101   6.151 -0.2714 -0.7188 -0.2036
  179MOL   C20039716   4.751   2.316   6.140  0.4611  0.4085  0.3102
  179MOL   C20139717   4.867   2.393   6.215  0.9524 -0.5959  0.0437
  179MOL   O20239718   4.864   2.437   6.331 -0.3954 -0.0241  0.1603
  179MOL   C20339719   4.993   2.430   6.132 -0.3414 -0.5899  0.2563
  179MOL   C20439720   4.612   2.307   6.213 -0.3726  0.5576 -0.1244
  179MOL   H20539721   4.722   2.370   6.050  0.9308 -2.7519 -1.8455
  179MOL   H20639722   4.963   2.465   6.033  1.6315  0.9182  0.1703
  179MOL   H20739723   5.044   2.514   6.179 -1.4728  0.9465 -1.1942
  179MOL   H20839724   5.055   2.341   6.131 -0.3161 -0.5692 -0.5843
  179MOL   H20939725   4.632   2.271   6.313  0.5354  2.4959  0.4204
  179MOL   H21039726   4.551   2.225   6.175  1.5425 -0.6127 -0.7024
  179MOL   C21139727   4.536   2.441   6.224 -0.4379  0.0374  0.1964
  179MOL   C21239728   4.507   2.489   6.366 -0.0749  0.0578 -0.3717
  179MOL   O21339729   4.448   2.406   6.439 -1.0973  0.0880 -0.2064
  179MOL   C21439730   4.559   2.624   6.397 -0.0662  0.1145  0.2884
  179MOL   C21539731   4.419   2.457   6.127 -0.4000  0.9439 -0.4594
  179MOL   H21639732   4.608   2.510   6.179  0.8319 -1.7171 -0.4828
  179MOL   H21739733   4.595   2.664   6.303 -2.4740 -1.6906 -1.4630
  179MOL   H21839734   4.481   2.681   6.448 -0.4717 -1.3963  1.3817
  179MOL   H21939735   4.638   2.613   6.471 -1.2745  2.5450  2.0368
  179MOL   H22039736   4.362   2.365   6.119  1.5935 -0.3999  0.5306
  179MOL   H22139737   4.452   2.487   6.028 -1.2765 -0.5905 -1.2218
  179MOL   H22239738   4.351   2.531   6.170  1.9073  0.4961  4.3307
  180MOL     C139739   2.037   4.499   1.048 -0.0312  0.0055  0.3160
  180MOL     C239740   1.904   4.436   1.044 -0.2014  0.4262  0.0584
  180MOL     O339741   1.875   4.339   0.976 -0.3452 -0.3090  0.0383
  180MOL     C439742   1.801   4.501   1.135 -0.3148  0.0447  1.0193
  180MOL     C539743   2.143   4.426   0.962  0.7899  0.8033 -0.1929
  180MOL     H639744   2.028   4.605   1.026 -0.3080 -0.1757 -0.4675
  180MOL     H739745   1.773   4.595   1.088  1.7805  1.2535  2.0792
  180MOL     H839746   1.710   4.443   1.147  1.3894 -3.1599 -0.8613
  180MOL     H939747   1.837   4.519   1.236 -0.0274  0.1912  0.8915
  180MOL    H1039748   2.219   4.499   0.932  2.0624 -1.4435 -2.6450
  180MOL    H1139749   2.110   4.387   0.866  2.3229  1.5268 -1.0482
  180MOL    H1239750   2.070   4.482   1.150 -0.1806  0.8813  0.5132
  180MOL    C1339751   2.229   4.315   1.026 -0.4558 -0.1222  0.1468
  180MOL    C1439752   2.369   4.295   0.956 -0.8523 -0.2726 -0.5883
  180MOL    O1539753   2.384   4.316   0.838 -0.4230  1.0841  0.2060
  180MOL    C1639754   2.487   4.267   1.050 -0.0079 -0.0994  0.1950
  180MOL    C1739755   2.167   4.177   1.044 -0.3456 -0.1594  0.3564
  180MOL    H1839756   2.250   4.354   1.126 -2.2751 -2.9630  1.6878
  180MOL    H1939757   2.499   4.357   1.111 -0.4300  1.4420 -1.9320
  180MOL    H2039758   2.482   4.177   1.112  0.5538  1.3320  2.3700
  180MOL    H2139759   2.575   4.257   0.985  0.5286  2.1012  0.5464
  180MOL    H2239760   2.241   4.097   1.041  0.3002  0.4341  0.3981
  180MOL    H2339761   2.098   4.166   0.961  0.3821 -0.5683 -0.1998
  180MOL    C2439762   2.091   4.177   1.180 -0.7893 -0.5288  0.1661
  180MOL    C2539763   2.196   4.149   1.289 -0.5706  0.3046  0.2180
  180MOL    O2639764   2.261   4.048   1.285 -0.4422 -0.0684 -0.2284
  180MOL    C2739765   2.204   4.255   1.401 -0.0863 -0.0588 -0.8250
  180MOL    C2839766   1.982   4.069   1.176 -0.0181 -0.0620 -0.1026
  180MOL    H2939767   2.046   4.275   1.201 -1.2497 -1.1729  2.2755
  180MOL    H3039768   2.128   4.333   1.399 -0.4384 -0.2658  1.8460
  180MOL    H3139769   2.181   4.221   1.503 -1.5404  2.2964 -0.3292
  180MOL    H3239770   2.299   4.306   1.404 -0.3523  0.3879  4.1312
  180MOL    H3339771   2.044   3.980   1.175  0.4837  0.2770  0.9548
  180MOL    H3439772   1.933   4.080   1.079  0.6406 -1.1532 -0.5683
  180MOL    C3539773   1.867   4.075   1.295 -0.2046 -0.0425  0.4280
  180MOL    C3639774   1.782   3.948   1.289 -0.0031 -1.0108 -0.9298
  180MOL    O3739775   1.705   3.913   1.198  0.3043 -0.6582 -0.1775
  180MOL    C3839776   1.777   3.863   1.413 -0.5682  0.4012  0.2059
  180MOL    C3939777   1.790   4.205   1.282 -0.5177 -0.7909  0.7032
  180MOL    H4039778   1.924   4.078   1.388  0.8683  1.9775 -0.2645
  180MOL    H4139779   1.797   3.756   1.405 -2.8037 -0.4547  4.3507
  180MOL    H4239780   1.836   3.910   1.491 -0.2149 -1.1688  0.9199
  180MOL    H4339781   1.672   3.863   1.442 -0.5201 -1.7252  0.4676
  180MOL    H4439782   1.725   4.198   1.195  1.1645  1.8024 -0.8392
  180MOL    H4539783   1.851   4.290   1.250  0.1886 -1.0567  1.3322
  180MOL    C4639784   1.711   4.246   1.412  0.1970  0.1383 -0.0013
  180MOL    C4739785   1.597   4.352   1.390 -0.1022  0.3590 -0.6443
  180MOL    O4839786   1.627   4.474   1.384  0.2238  0.3363 -0.0985
  180MOL    C4939787   1.452   4.309   1.381  0.2163  0.0436 -0.5104
  180MOL    C5039788   1.813   4.303   1.518  0.1259 -0.6674  0.5271
  180MOL    H5139789   1.670   4.149   1.442  1.2792 -0.1117  0.7008
  180MOL    H5239790   1.384   4.378   1.431 -0.1042  0.1442 -1.0809
  180MOL    H5339791   1.430   4.312   1.274  0.3419 -0.2454 -0.5450
  180MOL    H5439792   1.448   4.209   1.425  1.3777  1.4782  3.0312
  180MOL    H5539793   1.856   4.401   1.498  0.9139 -0.8180  1.4496
  180MOL    H5639794   1.897   4.239   1.493  0.0014 -1.5522  2.3262
  180MOL    C5739795   1.781   4.296   1.668 -0.2392  0.7715  0.1024
  180MOL    C5839796   1.737   4.153   1.713 -0.0531  0.5955 -0.0914
  180MOL    O5939797   1.630   4.095   1.682 -0.0726 -0.2177 -0.4500
  180MOL    C6039798   1.841   4.091   1.806  0.2502  0.7175  0.4036
  180MOL    C6139799   1.671   4.401   1.713  0.1531 -0.3155 -0.1356
  180MOL    H6239800   1.871   4.317   1.726  0.6462  0.7041 -1.2157
  180MOL    H6339801   1.942   4.128   1.787 -0.0154  2.1421  1.6242
  180MOL    H6439802   1.816   4.113   1.910 -0.8208 -2.6331  0.8882
  180MOL    H6539803   1.843   3.985   1.785  0.0447  0.2805  2.4988
  180MOL    H6639804   1.574   4.373   1.672  0.5028  0.4540 -1.4919
  180MOL    H6739805   1.693   4.506   1.696 -0.7275 -0.4203 -2.0486
  180MOL    C6839806   1.651   4.409   1.865  0.4652 -1.0629 -0.3069
  180MOL    C6939807   1.526   4.480   1.893  0.5980  0.1979 -0.4620
  180MOL    O7039808   1.513   4.595   1.874 -0.4851 -0.7568 -0.3070
  180MOL    C7139809   1.418   4.404   1.964  0.0093  0.3002  0.2346
  180MOL    C7239810   1.771   4.453   1.955 -0.4246  0.2161 -0.2137
  180MOL    H7339811   1.634   4.306   1.896 -2.1541 -0.5951 -0.0523
  180MOL    H7439812   1.445   4.382   2.067  0.1777  1.0894  0.3621
  180MOL    H7539813   1.321   4.454   1.975 -0.6081 -0.8724  0.1136
  180MOL    H7639814   1.398   4.311   1.911 -0.1548  0.8297 -0.6536
  180MOL    H7739815   1.844   4.372   1.949  1.3564  1.5403  2.6572
  180MOL    H7839816   1.730   4.446   2.056 -0.7675 -0.8760 -0.4126
  180MOL    C7939817   1.849   4.585   1.928 -0.1322  0.6712 -0.3414
  180MOL    C8039818   1.945   4.568   1.805 -0.0027  0.5023  0.3122
  180MOL    O8139819   2.031   4.481   1.810  0.4353  0.7586  0.0827
  180MOL    C8239820   1.933   4.681   1.697 -0.2960 -0.2746 -0.0645
  180MOL    C8339821   1.910   4.640   2.059 -0.0538 -0.7344 -0.1987
  180MOL    H8439822   1.770   4.651   1.894 -0.8560 -0.2230 -0.4054
  180MOL    H8539823   1.911   4.643   1.597 -2.7137  1.9724 -0.4338
  180MOL    H8639824   1.839   4.731   1.720  0.0522 -0.0068  0.7671
  180MOL    H8739825   2.019   4.747   1.703 -1.5395  1.3849 -0.0503
  180MOL    H8839826   2.001   4.580   2.071  1.6752  1.8685  0.1016
  180MOL    H8939827   1.858   4.620   2.152 -1.6073 -0.8607 -1.0846
  180MOL    C9039828   1.939   4.796   2.054  0.3783  0.0617 -0.1007
  180MOL    C9139829   2.043   4.838   2.151 -0.3880  0.0180 -0.5611
  180MOL    O9239830   2.001   4.885   2.258  0.0714  0.2197 -0.6244
  180MOL    C9339831   2.187   4.807   2.125  0.0200 -0.6769  0.6085
  180MOL    C9439832   1.801   4.870   2.077 -0.8574 -0.3704  0.2083
  180MOL    H9539833   1.970   4.822   1.952  2.8465 -1.1157  0.3155
  180MOL    H9639834   2.255   4.833   2.206 -0.5377 -0.0447  0.8807
  180MOL    H9739835   2.197   4.699   2.121 -3.0133 -1.0443  1.6614
  180MOL    H9839836   2.208   4.857   2.030 -2.1443 -1.5659 -0.3784
  180MOL    H9939837   1.782   4.879   2.184  2.0299  0.3544  0.7117
  180MOL   H10039838   1.729   4.798   2.039 -0.4335 -0.8969  0.3990
  180MOL   C10139839   1.778   5.010   2.007  0.0827 -0.2877 -0.2214
  180MOL   C10239840   1.728   4.992   1.865  0.8221  0.4918 -0.9235
  180MOL   O10339841   1.791   5.010   1.762 -0.6706  0.2478 -0.3637
  180MOL   C10439842   1.578   4.941   1.851  0.2520  0.2051  0.5144
  180MOL   C10539843   1.895   5.107   2.022  0.2502 -0.0229  0.4013
  180MOL   H10639844   1.694   5.057   2.058  1.3459  0.1795  1.4767
  180MOL   H10739845   1.547   4.925   1.748  1.0884  0.5649  0.2046
  180MOL   H10839846   1.584   4.844   1.900  0.5760  0.2328  0.5319
  180MOL   H10939847   1.502   4.996   1.907 -1.0222 -0.2142 -0.7746
  180MOL   H11039848   1.944   5.106   1.925  0.4722  1.1106  0.4932
  180MOL   H11139849   1.970   5.079   2.096 -1.8038 -0.2274  2.4749
  180MOL   C11239850   1.855   5.255   2.062 -0.0990  0.0552 -0.7438
  180MOL   C11339851   1.830   5.345   1.940  0.8700  0.0857  0.9314
  180MOL   O11439852   1.918   5.400   1.873 -0.7720  0.3338  0.7642
  180MOL   C11539853   1.679   5.358   1.899 -0.7174 -0.3161 -0.1173
  180MOL   C11639854   1.961   5.324   2.148 -0.0223 -0.2815  0.1055
  180MOL   H11739855   1.762   5.238   2.114 -0.8123 -0.1720 -2.0628
  180MOL   H11839856   1.641   5.430   1.972 -0.3137 -1.7292  1.5223
  180MOL   H11939857   1.673   5.399   1.798 -1.4682 -0.9945 -0.3537
  180MOL   H12039858   1.611   5.277   1.923  2.2052 -2.3382  1.7598
  180MOL   H12139859   1.961   5.433   2.149 -0.9826 -0.2786 -0.1742
  180MOL   H12239860   2.058   5.305   2.103 -1.9193 -0.5275 -4.0739
  180MOL   C12339861   1.974   5.267   2.299 -0.3676  0.0021 -1.0382
  180MOL   C12439862   1.840   5.277   2.377  0.2685 -0.0818  0.1842
  180MOL   O12539863   1.819   5.381   2.441 -0.2352 -0.2538 -0.3961
  180MOL   C12639864   1.728   5.171   2.363  0.2327  0.0672 -0.5136
  180MOL   C12739865   2.096   5.327   2.372  0.7293  0.2671  0.1212
  180MOL   H12839866   1.991   5.159   2.293 -2.8236 -0.4353 -0.7111
  180MOL   H12939867   1.649   5.217   2.303 -1.8119 -3.1114 -0.3463
  180MOL   H13039868   1.760   5.075   2.324 -2.0877 -1.4747  1.1983
  180MOL   H13139869   1.684   5.165   2.462 -0.1588  0.6818 -0.6477
  180MOL   H13239870   2.094   5.288   2.473 -0.6234 -3.0695 -1.1146
  180MOL   H13339871   2.075   5.434   2.375 -0.6852  0.1035 -2.2175
  180MOL   C13439872   2.230   5.304   2.307 -0.0485  0.4154 -0.3212
  180MOL   C13539873   2.280   5.159   2.296  0.2135 -0.6114 -0.1761
  180MOL   O13639874   2.314   5.102   2.193  0.2173  0.4888  0.0335
  180MOL   C13739875   2.295   5.089   2.428 -0.0499  0.6510 -0.9813
  180MOL   C13839876   2.334   5.403   2.367 -0.0630  0.2143  0.0513
  180MOL   H13939877   2.215   5.328   2.202  0.2367 -0.9541 -0.6941
  180MOL   H14039878   2.200   5.086   2.482 -0.0921 -0.3790 -1.1086
  180MOL   H14139879   2.318   4.983   2.416 -1.2598  0.3445 -0.6598
  180MOL   H14239880   2.370   5.138   2.490  0.8108 -1.5751 -0.2334
  180MOL   H14339881   2.430   5.362   2.337 -1.2306 -2.3662 -0.3202
  180MOL   H14439882   2.332   5.376   2.472 -2.6295  1.0441  0.2673
  180MOL   C14539883   2.328   5.554   2.325  0.5072  0.2628  0.4927
  180MOL   C14639884   2.402   5.567   2.194 -0.4852 -0.4020 -0.4433
  180MOL   O14739885   2.513   5.619   2.186 -0.4215 -0.8432 -0.4707
  180MOL   C14839886   2.331   5.521   2.069 -0.4487  0.8323  0.0127
  180MOL   C14939887   2.384   5.635   2.438  0.5925 -0.9454 -0.4230
  180MOL   H15039888   2.227   5.589   2.302 -0.7464 -2.1033  2.2091
  180MOL   H15139889   2.349   5.584   1.982  2.7801 -1.1084 -0.8044
  180MOL   H15239890   2.373   5.423   2.045  0.5185  1.5360 -1.1652
  180MOL   H15339891   2.225   5.507   2.092 -0.6712  0.3402 -1.2948
  180MOL   H15439892   2.484   5.597   2.459  0.5748 -1.2552 -0.9001
  180MOL   H15539893   2.322   5.625   2.527 -0.6849  1.2080 -1.0309
  180MOL   C15639894   2.391   5.787   2.422  0.0474 -0.1834  0.4629
  180MOL   C15739895   2.465   5.847   2.546  0.8386  0.2783  0.7856
  180MOL   O15839896   2.492   5.777   2.644  0.3969 -0.3587 -0.0352
  180MOL   C15939897   2.504   5.994   2.539 -0.5158  0.5953  0.0184
  180MOL   C16039898   2.258   5.857   2.408  0.5270  0.4183 -0.1229
  180MOL   H16139899   2.463   5.808   2.344 -0.7895  3.1772  0.4983
  180MOL   H16239900   2.417   6.060   2.528 -0.5605  0.2035 -2.0464
  180MOL   H16339901   2.563   6.029   2.624 -1.0284  0.8345  0.2806
  180MOL   H16439902   2.569   6.009   2.453 -1.1646  1.4249 -0.3339
  180MOL   H16539903   2.251   5.952   2.462  1.8716  1.8173 -2.3008
  180MOL   H16639904   2.172   5.797   2.436  1.3576 -0.4600  0.5520
  180MOL   C16739905   2.231   5.898   2.257 -0.2872  0.1112 -0.1868
  180MOL   C16839906   2.342   5.985   2.192 -0.1428 -0.3552 -0.0146
  180MOL   O16939907   2.386   6.092   2.230  0.3180  0.5893 -0.0700
  180MOL   C17039908   2.399   5.928   2.068  1.1204 -0.1404  0.0474
  180MOL   C17139909   2.099   5.975   2.248 -0.4354  0.1292  0.0852
  180MOL   H17239910   2.232   5.805   2.201  2.1502 -0.7336  1.1691
  180MOL   H17339911   2.469   5.994   2.016  0.1122  0.6805 -0.2956
  180MOL   H17439912   2.448   5.835   2.096  0.8950  0.6037  3.0940
  180MOL   H17539913   2.315   5.907   2.003  0.6762 -0.3060  0.6697
  180MOL   H17639914   2.107   6.079   2.279  1.2788 -0.2271  0.9574
  180MOL   H17739915   2.031   5.933   2.323 -2.0627 -0.4418 -1.6865
  180MOL   C17839916   2.027   5.967   2.108  0.0386  0.1957 -0.3381
  180MOL   C17939917   2.060   6.065   2.001 -0.0435 -0.5719  0.5256
  180MOL   O18039918   2.104   6.027   1.892  0.5943 -0.1550  0.4779
  180MOL   C18139919   2.044   6.212   2.035  0.3770  0.0194 -0.0982
  180MOL   C18239920   1.872   5.958   2.118  0.3574  0.0783 -0.1235
  180MOL   H18339921   2.064   5.878   2.057 -1.9727 -0.8740  0.0319
  180MOL   H18439922   2.028   6.240   2.139 -2.4081  1.2079 -0.7867
  180MOL   H18539923   2.143   6.251   2.010  1.1105 -1.0653  1.1022
  180MOL   H18639924   1.966   6.258   1.974 -0.0516 -0.9225 -0.2777
  180MOL   H18739925   1.835   6.034   2.049  0.0850  0.7612  0.7615
  180MOL   H18839926   1.833   5.979   2.218 -0.0349  0.0686 -0.2758
  180MOL   C18939927   1.801   5.826   2.079 -0.0614  0.0646  0.0167
  180MOL   C19039928   1.850   5.712   2.165 -0.0865 -0.1929 -0.6404
  180MOL   O19139929   1.970   5.682   2.174 -0.1063 -0.1278 -0.3236
  180MOL   C19239930   1.743   5.640   2.246  0.2874 -0.1915  0.0937
  180MOL   C19339931   1.822   5.795   1.928 -0.1725 -1.2002 -0.4776
  180MOL   H19439932   1.697   5.831   2.110  0.0582  0.4754  0.3632
  180MOL   H19539933   1.792   5.605   2.337  0.9049 -2.2717 -1.0085
  180MOL   H19639934   1.668   5.713   2.274 -0.1014 -0.2657 -0.7468
  180MOL   H19739935   1.688   5.558   2.200 -1.7034  1.0536  0.2141
  180MOL   H19839936   1.816   5.687   1.911  0.5149 -1.2075 -0.7001
  180MOL   H19939937   1.922   5.825   1.896 -0.5789  0.5717 -0.1119
  180MOL   C20039938   1.721   5.874   1.842  0.2775  1.3724  0.0988
  180MOL   C20139939   1.577   5.827   1.877 -0.7785 -0.4209 -0.9398
  180MOL   O20239940   1.555   5.713   1.907  0.1203  0.0242  0.2715
  180MOL   C20339941   1.458   5.923   1.873 -0.8346 -0.0577  0.2200
  180MOL   C20439942   1.752   5.859   1.690  0.1440 -0.5530 -0.1136
  180MOL   H20539943   1.725   5.977   1.875  2.2177  1.8606 -1.6180
  180MOL   H20639944   1.451   5.990   1.959 -0.4968  1.4229 -0.8973
  180MOL   H20739945   1.466   5.987   1.786  0.2566 -0.0293  0.3337
  180MOL   H20839946   1.362   5.872   1.861 -0.8435 -0.4178  1.6454
  180MOL   H20939947   1.659   5.891   1.642  1.2951  1.7118 -0.9356
  180MOL   H21039948   1.767   5.758   1.653  1.0851 -0.0422 -1.1884
  180MOL   C21139949   1.874   5.932   1.631 -0.2475 -0.3108 -0.5320
  180MOL   C21239950   1.870   6.087   1.658 -0.6564  0.3925  0.2740
  180MOL   O21339951   1.766   6.144   1.685  0.0451 -0.3330 -0.5211
  180MOL   C21439952   1.998   6.158   1.640 -0.4319 -0.3009  0.0245
  180MOL   C21539953   1.898   5.915   1.483 -0.5241  0.7152  0.7554
  180MOL   H21639954   1.965   5.910   1.686 -0.1127  3.2457  0.8431
  180MOL   H21739955   2.010   6.233   1.719 -1.7365  0.6729 -0.6761
  180MOL   H21839956   2.083   6.091   1.635 -1.0677 -1.0671 -0.6876
  180MOL   H21939957   2.002   6.218   1.549  0.2223 -1.1633 -0.5125
  180MOL   H22039958   1.842   5.992   1.429  1.0080  2.7952  2.0451
  180MOL   H22139959   1.865   5.812   1.470 -0.3734  0.5769  1.4343
  180MOL   H22239960   2.000   5.926   1.445 -0.6133 -0.4489  0.1392
  181MOL     C139961   1.262   5.693   1.287 -0.0787  0.5305 -0.6730
  181MOL     C239962   1.235   5.667   1.141  0.1599  0.3778  0.5296
  181MOL     O339963   1.202   5.759   1.063  0.7554  0.2232  0.0977
  181MOL     C439964   1.253   5.528   1.095  0.2124  0.0024  0.8061
  181MOL     C539965   1.219   5.839   1.322 -0.7912 -0.1861  0.7752
  181MOL     H639966   1.206   5.637   1.363  1.8684 -0.1421  0.3148
  181MOL     H739967   1.166   5.466   1.116 -0.5017  0.9238  0.6234
  181MOL     H839968   1.272   5.531   0.988 -0.4941 -0.3046  0.6665
  181MOL     H939969   1.338   5.484   1.147  0.3329  1.7778  2.1597
  181MOL    H1039970   1.232   5.844   1.430 -0.4018 -1.7386  0.8073
  181MOL    H1139971   1.113   5.855   1.305 -0.6927 -1.0632 -0.7852
  181MOL    H1239972   1.367   5.679   1.311  0.0527  0.2995 -1.3716
  181MOL    C1339973   1.300   5.956   1.258 -0.6219  0.6202 -0.1839
  181MOL    C1439974   1.453   5.942   1.290 -0.1365  0.2094 -0.0861
  181MOL    O1539975   1.490   5.886   1.388 -0.1961  0.5139  0.0789
  181MOL    C1639976   1.557   5.985   1.185  0.5282  0.8508 -0.2555
  181MOL    C1739977   1.237   6.095   1.284  0.1645  0.0566 -0.1226
  181MOL    H1839978   1.289   5.939   1.151 -0.4596 -1.3048  0.0904
  181MOL    H1939979   1.550   6.089   1.154 -2.3236  1.5766  2.6548
  181MOL    H2039980   1.658   5.969   1.223 -0.5693  0.1321  2.4718
  181MOL    H2139981   1.538   5.932   1.091 -0.7650 -0.5595  0.7869
  181MOL    H2239982   1.131   6.088   1.261  0.3863  0.1124 -1.1973
  181MOL    H2339983   1.274   6.172   1.216  0.0879  0.4940  0.3222
  181MOL    C2439984   1.248   6.152   1.424  0.3143 -0.0040  0.3282
  181MOL    C2539985   1.147   6.115   1.527 -0.0460 -0.2030  0.2025
  181MOL    O2639986   1.029   6.084   1.505  0.3864 -0.1617 -0.3675
  181MOL    C2739987   1.197   6.115   1.670  0.2343  0.1983 -0.0911
  181MOL    C2839988   1.244   6.307   1.420 -0.0271 -0.3847  0.2649
  181MOL    H2939989   1.345   6.124   1.465  0.2916  0.3727  0.6498
  181MOL    H3039990   1.153   6.207   1.708 -0.2344  0.5697 -1.4837
  181MOL    H3139991   1.159   6.030   1.726 -1.7478  1.6228  0.7943
  181MOL    H3239992   1.305   6.126   1.682  0.4790 -0.6282 -1.4113
  181MOL    H3339993   1.232   6.350   1.520  2.1571  2.3844 -0.6162
  181MOL    H3439994   1.170   6.342   1.348 -1.0247 -0.2747  1.3308
  181MOL    C3539995   1.375   6.373   1.367 -0.7751  0.2858 -0.8809
  181MOL    C3639996   1.501   6.341   1.459 -0.4886  0.2326 -0.4033
  181MOL    O3739997   1.487   6.327   1.580 -0.6043  0.4643  0.2807
  181MOL    C3839998   1.628   6.311   1.388 -0.3413 -0.3569 -0.9869
  181MOL    C3939999   1.377   6.524   1.342  0.1781 -0.8214 -0.7321
  181MOL    H4040000   1.390   6.330   1.268  0.4138  0.2528 -0.6876
  181MOL    H4140001   1.684   6.244   1.454 -1.9654 -0.6188  0.1605
  181MOL    H4240002   1.628   6.256   1.294  3.1127  0.1623 -1.3615
  181MOL    H4340003   1.683   6.404   1.372 -0.6416  0.0847  0.4748
  181MOL    H4440004   1.477   6.552   1.310  0.6487  0.8980  2.0265
  181MOL    H4540005   1.371   6.551   1.448  2.4006 -2.1472 -0.2444
  181MOL    C4640006   1.275   6.580   1.244  0.0425  0.0168 -0.4781
  181MOL    C4740007   1.292   6.530   1.097  0.3320  0.2686  0.0637
  181MOL    O4840008   1.386   6.457   1.070  0.3614  0.6396  0.3383
  181MOL    C4940009   1.184   6.577   1.004  0.6393 -0.0538  0.3160
  181MOL    C5040010   1.273   6.735   1.259 -0.1536 -1.0151  0.0254
  181MOL    H5140011   1.181   6.536   1.278 -1.1525  3.3216  0.7347
  181MOL    H5240012   1.091   6.576   1.062  0.6858  1.5878  0.4549
  181MOL    H5340013   1.198   6.683   0.984 -0.2873  0.2779  1.3696
  181MOL    H5440014   1.177   6.512   0.917 -0.7571  0.4573  0.0239
  181MOL    H5540015   1.251   6.788   1.166  2.1123 -0.4449 -0.2217
  181MOL    H5640016   1.374   6.766   1.287 -1.2642  0.8876  2.0653
  181MOL    C5740017   1.176   6.806   1.366 -0.0712  0.8520 -0.6412
  181MOL    C5840018   1.031   6.763   1.358 -0.4166  0.4811  0.3347
  181MOL    O5940019   0.985   6.716   1.253  0.2106 -0.4811  0.2703
  181MOL    C6040020   0.940   6.801   1.474  0.0181  0.4811  0.0655
  181MOL    C6140021   1.180   6.961   1.345  0.1868  0.3557 -0.2055
  181MOL    H6240022   1.212   6.773   1.464  0.9671 -0.0227 -1.3026
  181MOL    H6340023   0.838   6.828   1.447  0.5617  1.7403 -0.7478
  181MOL    H6440024   0.924   6.710   1.532  1.7721 -1.1331 -1.8966
  181MOL    H6540025   0.997   6.870   1.535 -2.3032  1.3689  1.2985
  181MOL    H6640026   1.104   7.006   1.408  1.2865  0.7011  0.9046
  181MOL    H6740027   1.141   6.986   1.247  0.9808 -2.1324 -1.1884
  181MOL    C6840028   1.322   7.033   1.359 -0.1810 -0.2971 -0.1278
  181MOL    C6940029   1.361   7.034   1.505 -0.2636  0.5998  0.1250
  181MOL    O7040030   1.279   7.022   1.594 -0.2157 -0.0552  0.3120
  181MOL    C7140031   1.507   7.070   1.528  0.2840 -0.3428 -0.8240
  181MOL    C7240032   1.335   7.171   1.286  0.1674 -0.2479 -0.0173
  181MOL    H7340033   1.399   6.987   1.298 -1.1301 -1.2391 -0.6392
  181MOL    H7440034   1.565   7.059   1.436  1.6692  0.7249 -0.0991
  181MOL    H7540035   1.515   7.174   1.559 -1.4292 -1.0939  2.3940
  181MOL    H7640036   1.539   7.009   1.612  0.1076  0.7926  0.0805
  181MOL    H7740037   1.432   7.220   1.287 -0.1154  0.3169  0.1856
  181MOL    H7840038   1.276   7.239   1.348  0.3612 -1.3283  1.3618
  181MOL    C7940039   1.277   7.176   1.143 -0.2203 -1.1395  0.1170
  181MOL    C8040040   1.381   7.234   1.044  0.0062 -0.1485  0.2949
  181MOL    O8140041   1.413   7.156   0.956 -0.4164 -0.2892 -0.0854
  181MOL    C8240042   1.447   7.375   1.059 -0.3540  1.0050  0.8066
  181MOL    C8340043   1.138   7.256   1.137  0.4136 -0.1602 -0.4140
  181MOL    H8440044   1.269   7.073   1.110  1.5151 -0.6249 -1.9922
  181MOL    H8540045   1.448   7.439   0.970  1.7973 -1.1063 -0.7566
  181MOL    H8640046   1.429   7.415   1.158 -0.0018  2.0419  0.4621
  181MOL    H8740047   1.554   7.355   1.063 -0.4399  0.4221  0.2862
  181MOL    H8840048   1.146   7.362   1.160 -0.9406 -0.4453  1.4631
  181MOL    H8940049   1.087   7.223   1.227  2.5171 -1.1988  0.4217
  181MOL    C9040050   1.057   7.220   1.009 -0.6236 -0.3602  0.6095
  181MOL    C9140051   1.077   7.327   0.904 -0.2390 -0.1621  0.5122
  181MOL    O9240052   1.120   7.439   0.931 -0.6209  0.2309 -0.3759
  181MOL    C9340053   1.078   7.272   0.766  0.3537  0.1825  0.4685
  181MOL    C9440054   0.903   7.198   1.052  0.7239 -0.0572 -0.4775
  181MOL    H9540055   1.097   7.126   0.973  3.8589  1.4694  0.4823
  181MOL    H9640056   0.974   7.272   0.733  0.4591 -1.4392  0.1072
  181MOL    H9740057   1.134   7.338   0.699 -0.8396  0.8184  0.0807
  181MOL    H9840058   1.118   7.171   0.770 -0.3571 -0.1100  0.2020
  181MOL    H9940059   0.855   7.292   1.026 -0.1504  0.2900  2.2236
  181MOL   H10040060   0.886   7.194   1.160 -1.8839  0.4060 -0.8308
  181MOL   C10140061   0.842   7.077   0.996 -0.4168 -0.0128  0.2306
  181MOL   C10240062   0.698   7.077   0.956 -0.4451 -0.0439 -0.0434
  181MOL   O10340063   0.617   7.014   1.025 -0.0205 -0.4336 -0.7483
  181MOL   C10440064   0.653   7.163   0.834  0.7422 -0.2162 -0.5129
  181MOL   C10540065   0.898   6.948   1.058  0.3096  0.3826 -0.5117
  181MOL   H10640066   0.878   7.074   0.893  0.7966  1.2669  0.6118
  181MOL   H10740067   0.728   7.151   0.756 -0.6996  0.1711 -1.9921
  181MOL   H10840068   0.562   7.119   0.794  0.9773 -0.3289 -0.9369
  181MOL   H10940069   0.640   7.268   0.861 -2.7718 -0.2796 -1.7165
  181MOL   H11040070   0.863   6.931   1.160  0.3745  1.5997 -0.2833
  181MOL   H11140071   1.005   6.966   1.071 -0.0288  0.1953  2.9550
  181MOL   C11240072   0.882   6.812   0.979  0.1165 -0.4304 -0.3744
  181MOL   C11340073   0.880   6.828   0.821 -0.0606  0.5747 -0.0129
  181MOL   O11440074   0.775   6.814   0.756  0.2430  0.0614 -0.2543
  181MOL   C11540075   1.008   6.880   0.758 -0.0271 -0.1260  0.0691
  181MOL   C11640076   0.767   6.721   1.033 -0.5710  0.2511 -0.1971
  181MOL   H11740077   0.967   6.751   1.009 -0.7022 -2.3031 -1.7181
  181MOL   H11840078   1.039   6.972   0.808 -0.5724 -0.8573  1.7938
  181MOL   H11940079   1.084   6.803   0.770 -1.1053 -1.2982 -0.5435
  181MOL   H12040080   0.995   6.898   0.651  4.9081 -0.9552 -0.7846
  181MOL   H12140081   0.670   6.747   0.990 -0.4797 -0.0901 -0.6202
  181MOL   H12240082   0.754   6.739   1.139 -2.7308 -1.4541 -0.1384
  181MOL   C12340083   0.789   6.567   1.040  0.0610  0.7800  0.3053
  181MOL   C12440084   0.800   6.500   0.898  0.7335 -0.1821  0.2286
  181MOL   O12540085   0.911   6.485   0.850  0.1971 -0.2098 -0.0761
  181MOL   C12640086   0.678   6.459   0.810  0.6982  0.1475  0.5749
  181MOL   C12740087   0.682   6.495   1.129  0.0611  0.9771 -0.2246
  181MOL   H12840088   0.886   6.537   1.079  0.3106 -0.6661 -1.3605
  181MOL   H12940089   0.704   6.425   0.710  2.2701  0.9728  0.6820
  181MOL   H13040090   0.607   6.385   0.846  0.8318  0.1996  0.9421
  181MOL   H13140091   0.611   6.544   0.792 -1.4539 -1.9538 -1.6966
  181MOL   H13240092   0.581   6.492   1.087 -0.4034  0.2502  0.9142
  181MOL   H13340093   0.666   6.560   1.216 -2.5576  0.3443 -0.1888
  181MOL   C13440094   0.711   6.360   1.196  0.1253  0.3462  0.5015
  181MOL   C13540095   0.825   6.361   1.299 -0.7992 -0.3470 -0.1734
  181MOL   O13640096   0.942   6.339   1.257  0.3103  0.5502 -0.1121
  181MOL   C13740097   0.800   6.418   1.445 -0.1201  0.2509 -0.1848
  181MOL   C13840098   0.711   6.242   1.094  0.2638 -0.3582 -0.5885
  181MOL   H13940099   0.622   6.344   1.257 -1.8007  0.4860 -2.2330
  181MOL   H14040100   0.788   6.526   1.443 -1.8610  0.1217  1.4890
  181MOL   H14140101   0.708   6.374   1.484  0.4921 -1.9198 -1.1139
  181MOL   H14240102   0.889   6.396   1.505  0.0696  0.9780 -0.2015
  181MOL   H14340103   0.784   6.256   1.015 -1.3518 -0.1281 -2.0694
  181MOL   H14440104   0.619   6.236   1.035 -0.3743  1.5818  0.1714
  181MOL   C14540105   0.739   6.101   1.151  0.3465  0.0744 -0.4310
  181MOL   C14640106   0.779   6.001   1.042  0.4354  0.3194  0.1106
  181MOL   O14740107   0.699   5.978   0.948 -0.8719  0.7611  0.0542
  181MOL   C14840108   0.912   5.933   1.050  0.3248  0.4025  0.2975
  181MOL   C14940109   0.620   6.047   1.237 -0.3078  0.3285 -1.1393
  181MOL   H15040110   0.821   6.104   1.223 -1.8989  0.0546  2.2072
  181MOL   H15140111   0.897   5.833   1.092  0.2995  0.2917  0.0202
  181MOL   H15240112   0.962   5.933   0.954 -2.1171  0.5615 -1.0136
  181MOL   H15340113   0.978   5.986   1.119  0.2311  0.1441  0.5905
  181MOL   H15440114   0.558   5.976   1.183  2.0884 -0.8591 -2.4199
  181MOL   H15540115   0.554   6.131   1.259 -0.1960  0.0584  0.2958
  181MOL   C15640116   0.668   5.996   1.372 -0.8384  1.0643  0.1993
  181MOL   C15740117   0.702   5.848   1.358 -0.0424 -0.8228 -0.4382
  181MOL   O15840118   0.608   5.773   1.325 -0.1200  0.3913 -0.0532
  181MOL   C15940119   0.851   5.813   1.374  0.5511  0.7573  0.1253
  181MOL   C16040120   0.551   6.017   1.476  0.2299 -0.5029 -0.5144
  181MOL   H16140121   0.752   6.055   1.408  0.0537  0.6557 -1.1869
  181MOL   H16240122   0.893   5.744   1.302  2.3332  4.1963 -2.2761
  181MOL   H16340123   0.910   5.904   1.368 -0.5653  1.6146  1.5695
  181MOL   H16440124   0.871   5.779   1.476 -1.0964  1.2140  0.6206
  181MOL   H16540125   0.462   5.981   1.425  0.4872  1.1267 -2.1522
  181MOL   H16640126   0.534   6.124   1.485 -0.1360 -0.5931 -0.1159
  181MOL   C16740127   0.567   5.963   1.621 -0.9298 -0.3661 -0.2100
  181MOL   C16840128   0.427   5.954   1.691 -0.7468 -0.1684 -0.4249
  181MOL   O16940129   0.401   6.031   1.787  0.1738 -0.0745  0.5533
  181MOL   C17040130   0.320   5.848   1.648 -0.0392 -0.1706 -0.0229
  181MOL   C17140131   0.674   6.045   1.699  0.1101  0.1442 -0.1321
  181MOL   H17240132   0.599   5.859   1.617  0.6199 -0.0511  2.6008
  181MOL   H17340133   0.338   5.818   1.544 -0.0321 -0.2901  0.0123
  181MOL   H17440134   0.329   5.764   1.717 -1.1926 -1.7738 -1.7769
  181MOL   H17540135   0.224   5.895   1.666  0.2697 -0.5670  2.7585
  181MOL   H17640136   0.635   6.147   1.699 -0.9328 -0.2448 -0.5277
  181MOL   H17740137   0.760   6.044   1.633 -0.6557 -2.8741 -1.1923
  181MOL   C17840138   0.724   5.993   1.840  0.9035 -0.3943  0.3546
  181MOL   C17940139   0.822   6.111   1.874  0.4630 -0.2759  0.1187
  181MOL   O18040140   0.938   6.095   1.835 -0.2274  0.9326 -0.4738
  181MOL   C18140141   0.765   6.235   1.934 -0.4346  0.0981  0.5272
  181MOL   C18240142   0.786   5.849   1.824 -0.7702  0.1306 -0.2102
  181MOL   H18340143   0.635   5.986   1.902 -1.0074  0.8248 -2.1545
  181MOL   H18440144   0.705   6.294   1.865 -0.3342 -1.8073 -1.2652
  181MOL   H18540145   0.699   6.224   2.020 -1.5857 -2.8649 -0.6790
  181MOL   H18640146   0.849   6.303   1.948  0.2920 -0.3647 -1.4694
  181MOL   H18740147   0.843   5.849   1.732  0.5954 -1.1839  0.6095
  181MOL   H18840148   0.705   5.779   1.801 -0.3997  0.0069 -1.1676
  181MOL   C18940149   0.864   5.786   1.947 -0.3792  0.7399 -0.2183
  181MOL   C19040150   0.926   5.651   1.900 -0.1953 -0.2071  0.0024
  181MOL   O19140151   0.873   5.544   1.915  0.0446  0.0660 -0.1045
  181MOL   C19240152   1.060   5.657   1.824  0.0644 -0.7907 -0.5415
  181MOL   C19340153   0.769   5.757   2.068  0.1752 -0.4793 -0.5174
  181MOL   H19440154   0.946   5.855   1.968  1.7988 -1.6946 -0.2932
  181MOL   H19540155   1.101   5.557   1.834 -1.7210 -1.3558  1.4750
  181MOL   H19640156   1.052   5.658   1.715  0.2872 -1.4258 -0.5656
  181MOL   H19740157   1.130   5.733   1.859 -1.6544  0.5693  0.0552
  181MOL   H19840158   0.700   5.674   2.054 -0.1796 -0.3327  0.3161
  181MOL   H19940159   0.699   5.839   2.077  1.0428  0.6144 -3.3542
  181MOL   C20040160   0.827   5.740   2.217 -0.6456 -0.0462  0.7208
  181MOL   C20140161   0.938   5.842   2.236  0.4915  0.0388 -0.0583
  181MOL   O20240162   1.054   5.816   2.213  0.2083 -0.2812 -0.1315
  181MOL   C20340163   0.892   5.984   2.262 -0.1748  0.4909 -0.6171
  181MOL   C20440164   0.881   5.597   2.248 -0.0354 -0.0938 -0.2058
  181MOL   H20540165   0.753   5.770   2.291  0.2101  1.2921  1.0552
  181MOL   H20640166   0.785   5.991   2.282  0.0560 -2.5710  2.2176
  181MOL   H20740167   0.948   6.014   2.351 -1.4627 -0.7389  0.6180
  181MOL   H20840168   0.926   6.042   2.176 -2.7800 -0.7065 -2.5247
  181MOL   H20940169   0.942   5.597   2.338 -0.2863  0.4361 -0.0338
  181MOL   H21040170   0.952   5.574   2.169  0.6638  1.4159 -0.0265
  181MOL   C21140171   0.782   5.476   2.251  0.4777 -0.3749 -0.4180
  181MOL   C21240172   0.642   5.511   2.304  0.1685 -0.5214 -1.5509
  181MOL   O21340173   0.631   5.559   2.421  0.1214  0.2028  0.0594
  181MOL   C21440174   0.527   5.489   2.205  0.4122  0.0897  0.1173
  181MOL   C21540175   0.829   5.340   2.318  0.0866  0.0712  0.6354
  181MOL   H21640176   0.755   5.457   2.147 -0.7250  2.8239 -0.7404
  181MOL   H21740177   0.453   5.422   2.248  0.3396 -1.6050 -2.5543
  181MOL   H21840178   0.481   5.585   2.179 -2.0400 -1.2971 -0.8471
  181MOL   H21940179   0.554   5.431   2.117  1.6739 -1.2513  1.3685
  181MOL   H22040180   0.748   5.268   2.327 -0.6916  1.0992  1.9938
  181MOL   H22140181   0.867   5.349   2.420 -0.6455 -1.4440  1.0487
  181MOL   H22240182   0.902   5.300   2.248 -0.9488  1.9884 -1.6024
  182MOL     C140183   2.239   2.132   7.489  0.0427  0.1495  0.3844
  182MOL     C240184   2.180   2.273   7.476 -0.2201  0.5556  0.6296
  182MOL     O340185   2.224   2.350   7.387 -0.5126 -0.4721 -1.3765
  182MOL     C440186   2.078   2.319   7.572 -1.0631 -0.2197 -0.4297
  182MOL     C540187   2.166   2.028   7.402 -0.2455  0.0054  0.2792
  182MOL     H640188   2.337   2.147   7.444  0.1851 -1.1051  0.2748
  182MOL     H740189   1.990   2.259   7.549 -0.3172 -2.2647  1.8368
  182MOL     H840190   2.114   2.309   7.675  1.4949  0.3631 -1.2334
  182MOL     H940191   2.060   2.425   7.554  0.5285  0.2180  0.4585
  182MOL    H1040192   2.062   2.020   7.433 -1.0731  0.7042 -2.2191
  182MOL    H1140193   2.213   1.933   7.428 -0.6611  0.5642  3.2394
  182MOL    H1240194   2.242   2.106   7.594 -1.3806 -1.4578  0.0500
  182MOL    C1340195   2.172   2.034   7.242  0.4152 -0.0822 -0.1845
  182MOL    C1440196   2.318   2.035   7.200 -0.4633  0.8754 -0.1197
  182MOL    O1540197   2.368   2.148   7.172  0.0584  0.2962  0.3781
  182MOL    C1640198   2.390   1.898   7.175 -0.4625 -0.2550  1.0372
  182MOL    C1740199   2.073   2.133   7.173 -0.0529  0.5123 -0.5373
  182MOL    H1840200   2.136   1.936   7.210 -0.2971  0.2180 -0.3086
  182MOL    H1940201   2.329   1.813   7.146  0.8581 -1.4690  1.7376
  182MOL    H2040202   2.465   1.902   7.096 -2.3160 -1.7710 -0.8438
  182MOL    H2140203   2.444   1.867   7.265 -2.3463 -0.0486  2.2629
  182MOL    H2240204   2.121   2.230   7.189 -0.8552  0.9974 -1.0024
  182MOL    H2340205   1.970   2.128   7.210 -0.6088  0.5817 -2.0144
  182MOL    C2440206   2.054   2.095   7.022 -1.1127  0.3789  0.2151
  182MOL    C2540207   2.025   2.218   6.941 -0.2809 -0.1750 -0.0913
  182MOL    O2640208   1.939   2.223   6.850 -0.4910  0.6148  0.5021
  182MOL    C2740209   2.118   2.336   6.969  0.0958 -0.5568 -0.4007
  182MOL    C2840210   1.963   1.972   6.995 -0.3368  0.2870 -0.1328
  182MOL    H2940211   2.158   2.079   6.992 -0.3109 -1.4629  3.7710
  182MOL    H3040212   2.151   2.388   6.879 -0.1331  0.4141  0.0744
  182MOL    H3140213   2.074   2.400   7.045 -0.3828 -1.8298  0.4030
  182MOL    H3240214   2.207   2.298   7.019  0.4291  2.8575  1.7496
  182MOL    H3340215   1.857   1.995   6.986 -0.3221 -0.0226 -1.1641
  182MOL    H3440216   1.967   1.913   7.087 -0.2449  0.8005  0.1937
  182MOL    C3540217   2.015   1.887   6.874  0.1663  0.3687  0.4029
  182MOL    C3640218   1.908   1.805   6.798  0.0440  0.7940  0.2784
  182MOL    O3740219   1.874   1.692   6.835 -0.5150 -0.1634  0.1852
  182MOL    C3840220   1.848   1.846   6.662 -1.0602  0.4630 -0.9192
  182MOL    C3940221   2.146   1.800   6.920  0.8248  0.3405  0.1913
  182MOL    H4040222   2.054   1.953   6.796  0.3906 -0.5683 -0.2806
  182MOL    H4140223   1.884   1.778   6.585 -0.9298 -0.3572 -0.1389
  182MOL    H4240224   1.741   1.839   6.681 -0.6576  1.0729  1.9491
  182MOL    H4340225   1.868   1.952   6.648  0.6478  0.2783 -0.0555
  182MOL    H4440226   2.116   1.726   6.995 -0.4321  0.6469  0.0141
  182MOL    H4540227   2.219   1.858   6.975  1.0969 -0.3731  0.5849
  182MOL    C4640228   2.234   1.738   6.808 -1.1731 -1.0759 -0.2109
  182MOL    C4740229   2.295   1.849   6.718 -0.0605  0.1162 -0.3585
  182MOL    O4840230   2.279   1.849   6.596 -0.1841  0.8288  0.0398
  182MOL    C4940231   2.365   1.968   6.786 -0.6975  0.4987  0.4034
  182MOL    C5040232   2.187   1.614   6.732 -0.0794  0.0391 -0.5277
  182MOL    H5140233   2.323   1.700   6.858  0.6953  0.0368 -2.5798
  182MOL    H5240234   2.446   2.000   6.720 -0.1939 -0.8494  0.3537
  182MOL    H5340235   2.300   2.052   6.812 -0.1314  0.7734  0.9631
  182MOL    H5440236   2.401   1.945   6.887  2.5079  2.8131 -0.1379
  182MOL    H5540237   2.255   1.579   6.655  0.6759 -0.9533  0.5615
  182MOL    H5640238   2.104   1.645   6.669 -1.0377 -0.1174  0.6269
  182MOL    C5740239   2.162   1.493   6.825 -0.0496  0.5812 -0.3828
  182MOL    C5840240   2.297   1.431   6.863 -0.4272  0.5376  0.2527
  182MOL    O5940241   2.355   1.346   6.789 -0.3843 -0.2200 -0.3061
  182MOL    C6040242   2.362   1.482   6.994  0.2576  0.1472  0.5272
  182MOL    C6140243   2.068   1.383   6.770 -0.1880 -0.7557 -0.0178
  182MOL    H6240244   2.122   1.519   6.923  0.4282 -4.3950  1.2724
  182MOL    H6340245   2.466   1.513   6.978  1.4286 -2.2718  3.1408
  182MOL    H6440246   2.295   1.559   7.033 -1.6483 -1.4496  0.4897
  182MOL    H6540247   2.372   1.405   7.070 -0.8480  0.1692  0.6975
  182MOL    H6640248   2.107   1.331   6.682  0.7878 -0.7843  0.4222
  182MOL    H6740249   1.980   1.433   6.730  1.5111  3.0271  0.7580
  182MOL    C6840250   2.012   1.276   6.865 -0.1954  0.4588  0.0097
  182MOL    C6940251   1.965   1.337   6.999 -0.7661  0.6434 -0.0801
  182MOL    O7040252   2.032   1.364   7.097  0.0905 -1.1350 -0.2549
  182MOL    C7140253   1.821   1.389   7.001  0.1829 -0.1971 -0.2331
  182MOL    C7240254   2.095   1.147   6.895  0.3795  0.0199  0.2717
  182MOL    H7340255   1.926   1.245   6.806  0.5523  1.4950 -1.6381
  182MOL    H7440256   1.798   1.468   6.930  2.1325  1.5555  0.9981
  182MOL    H7540257   1.748   1.309   6.994  1.0826 -0.8865 -1.8589
  182MOL    H7640258   1.804   1.441   7.096  1.7268 -0.5551  0.2579
  182MOL    H7740259   2.187   1.164   6.951 -0.9357  0.2088  2.4460
  182MOL    H7840260   2.146   1.111   6.806  0.2948 -0.2447  0.3297
  182MOL    C7940261   2.020   1.025   6.959  0.1775 -0.3740 -0.0802
  182MOL    C8040262   1.886   0.992   6.885 -0.2479 -0.6491 -0.0387
  182MOL    O8140263   1.775   1.031   6.930  0.1058 -0.6609  0.0258
  182MOL    C8240264   1.893   0.913   6.750 -0.3576 -0.0595  0.0465
  182MOL    C8340265   1.991   1.031   7.106  0.7294 -0.2318  0.2134
  182MOL    H8440266   2.079   0.936   6.938 -0.8468 -0.9846 -0.4061
  182MOL    H8540267   1.833   0.822   6.757  1.7356 -1.4197  0.6176
  182MOL    H8640268   1.871   0.977   6.665  1.3773 -0.6264 -0.8485
  182MOL    H8740269   1.997   0.885   6.735 -0.0739  1.2809 -0.5937
  182MOL    H8840270   1.928   0.945   7.131  0.3520 -0.2783 -0.8831
  182MOL    H8940271   1.916   1.105   7.132  0.8696 -0.2201  0.5854
  182MOL    C9040272   2.111   1.030   7.198 -0.1128 -0.1628  0.2937
  182MOL    C9140273   2.197   0.904   7.188  0.0937  0.6184  0.1565
  182MOL    O9240274   2.156   0.790   7.176 -0.5599  0.0595  0.1470
  182MOL    C9340275   2.350   0.926   7.174 -0.3270  0.0297  0.4780
  182MOL    C9440276   2.068   1.058   7.346  0.5937  0.0879  0.3709
  182MOL    H9540277   2.181   1.105   7.161 -1.0426  0.2219 -0.7191
  182MOL    H9640278   2.398   0.847   7.116 -2.1658 -0.8639  0.1365
  182MOL    H9740279   2.385   1.018   7.129 -0.6925 -0.3228 -0.5466
  182MOL    H9840280   2.386   0.916   7.277  0.2664 -0.5118  0.2253
  182MOL    H9940281   2.109   0.969   7.394 -1.2906 -1.0025  0.0170
  182MOL   H10040282   1.960   1.052   7.358  0.4918  0.3408 -0.3801
  182MOL   C10140283   2.120   1.192   7.419  1.3502  0.6329  0.4857
  182MOL   C10240284   2.257   1.178   7.491 -0.0130  0.5853 -0.1230
  182MOL   O10340285   2.268   1.125   7.602 -0.2738  0.5945  0.6704
  182MOL   C10440286   2.384   1.205   7.411  0.1642 -0.7256  0.2543
  182MOL   C10540287   2.003   1.261   7.503 -0.0829  0.0145 -0.0764
  182MOL   H10640288   2.139   1.256   7.334 -0.8336  1.8127  0.8411
  182MOL   H10740289   2.456   1.126   7.434  0.0043 -0.4979  1.5672
  182MOL   H10840290   2.361   1.205   7.305  0.1345 -0.8949  0.2593
  182MOL   H10940291   2.420   1.302   7.444 -3.4309  0.5100  0.7806
  182MOL   H11040292   1.941   1.185   7.551  0.4068 -0.4947 -0.2479
  182MOL   H11140293   1.934   1.298   7.426  0.1685  1.5856  0.4395
  182MOL   C11240294   2.052   1.375   7.597  0.4185  0.6748 -0.3296
  182MOL   C11340295   2.036   1.347   7.749 -0.1722  0.5282  0.8252
  182MOL   O11440296   1.960   1.263   7.783  0.5582  0.0495  0.1859
  182MOL   C11540297   2.104   1.443   0.007 -0.5822  0.1475  0.5449
  182MOL   C11640298   1.965   1.495   7.555  0.5080 -0.2641  0.2323
  182MOL   H11740299   2.159   1.393   7.584  1.1749 -2.0360  1.6153
  182MOL   H11840300   2.147   1.527   7.794  1.0296 -1.2642 -0.4164
  182MOL   H11940301   2.028   1.496   0.065 -1.0775  1.0118 -0.8734
  182MOL   H12040302   2.169   1.389   0.077  0.0146 -0.5059 -0.5027
  182MOL   H12140303   1.935   1.568   7.630 -2.0945 -0.0189 -1.0105
  182MOL   H12240304   1.867   1.455   7.533 -0.0556  0.5790  1.1537
  182MOL   C12340305   1.997   1.579   7.424 -0.4366  0.5863  0.1628
  182MOL   C12440306   2.152   1.601   7.416 -0.0119 -0.3613 -0.1520
  182MOL   O12540307   2.210   1.655   7.513  0.2743 -0.5322  0.7819
  182MOL   C12640308   2.237   1.568   7.296  0.9693 -0.5745 -0.2975
  182MOL   C12740309   1.924   1.717   7.437  0.0328  0.6414  0.5690
  182MOL   H12840310   1.957   1.532   7.334 -0.1961  1.5645 -0.4611
  182MOL   H12940311   2.224   1.646   7.220 -1.3401 -0.7075 -0.0756
  182MOL   H13040312   2.334   1.553   7.342 -0.8692 -2.6552  3.1092
  182MOL   H13140313   2.208   1.472   7.253 -0.1783 -0.0500 -0.7341
  182MOL   H13240314   1.962   1.777   7.354  1.6625  0.1239  0.9100
  182MOL   H13340315   1.980   1.771   7.514  1.8605  2.0620 -1.7052
  182MOL   C13440316   1.771   1.731   7.461  0.0220 -0.2814 -0.1067
  182MOL   C13540317   1.682   1.658   7.359 -0.0454 -0.4753 -0.2270
  182MOL   O13640318   1.725   1.610   7.251  0.4054 -0.0557 -0.4082
  182MOL   C13740319   1.540   1.628   7.392  0.0034 -0.0192  0.2677
  182MOL   C13840320   1.736   1.884   7.483 -0.5828 -0.3302  1.2610
  182MOL   H13940321   1.741   1.677   7.550  1.8618 -1.0530  0.0774
  182MOL   H14040322   1.520   1.522   7.408  0.3381 -0.2385 -0.6931
  182MOL   H14140323   1.502   1.684   7.478 -0.0032  2.7356 -1.4570
  182MOL   H14240324   1.481   1.657   7.305 -1.0371 -0.8672  0.6775
  182MOL   H14340325   1.639   1.923   7.455  0.1392  1.6386  1.4492
  182MOL   H14440326   1.802   1.943   7.420  0.1581 -0.1803  2.1593
  182MOL   C14540327   1.756   1.919   7.638 -0.5337  0.8859  0.5874
  182MOL   C14640328   1.651   1.847   7.721  0.9715  0.0804  0.4040
  182MOL   O14740329   1.544   1.820   7.666 -0.5591  0.1311  0.5050
  182MOL   C14840330   1.680   1.810   0.023  0.1481  0.9193  0.0255
  182MOL   C14940331   1.766   2.076   7.668 -0.0791  0.7822 -0.2811
  182MOL   H15040332   1.850   1.872   7.668  1.2312  3.2571 -0.9482
  182MOL   H15140333   1.755   1.731   0.031 -1.1351 -0.4053 -0.6030
  182MOL   H15240334   1.713   1.897   0.079  0.9998  0.7118 -0.1430
  182MOL   H15340335   1.586   1.775   0.067 -1.0758  0.5181 -2.7584
  182MOL   H15440336   1.861   2.119   7.636  0.8650 -1.0279 -0.0196
  182MOL   H15540337   1.785   2.081   7.775 -1.4475  1.4162 -0.0549
  182MOL   C15640338   1.640   2.161   7.631 -0.0040 -0.4746 -0.1516
  182MOL   C15740339   1.635   2.205   7.480  0.1816 -0.3873  0.0123
  182MOL   O15840340   1.740   2.210   7.415 -0.0033 -0.2870  0.4267
  182MOL   C15940341   1.499   2.249   7.417  0.5629 -0.4711 -0.0366
  182MOL   C16040342   1.613   2.272   7.732 -0.2193 -0.5536 -0.2121
  182MOL   H16140343   1.551   2.102   7.647 -0.5562 -0.0782 -1.6697
  182MOL   H16240344   1.451   2.316   7.488  2.6111  2.2164 -1.0879
  182MOL   H16340345   1.528   2.299   7.325  2.2787 -1.8675 -0.2885
  182MOL   H16440346   1.446   2.160   7.384  0.7659 -0.3278 -0.7650
  182MOL   H16540347   1.578   2.234   7.828 -0.6690 -1.8922 -0.8856
  182MOL   H16640348   1.516   2.314   7.705 -1.2020 -1.0241  2.4182
  182MOL   C16740349   1.731   2.373   7.755 -0.2079 -0.7876 -0.0940
  182MOL   C16840350   1.798   2.357   0.049  0.3879  0.1344 -0.3256
  182MOL   O16940351   1.723   2.361   0.145  0.6776  0.3751  0.6172
  182MOL   C17040352   1.946   2.320   0.056  0.4782 -0.2012  0.0106
  182MOL   C17140353   1.684   2.517   7.724  0.2812 -0.1723 -0.7864
  182MOL   H17240354   1.813   2.354   7.686 -0.2631 -0.5276 -0.2315
  182MOL   H17340355   1.995   2.327   0.153 -1.8096  2.5218  1.0352
  182MOL   H17440356   1.949   2.214   0.028 -1.1456 -0.6633  1.4765
  182MOL   H17540357   1.999   2.385   7.829  1.1498  0.1377  0.8347
  182MOL   H17640358   1.761   2.581   7.768 -0.2890  0.7573 -1.1261
  182MOL   H17740359   1.589   2.547   7.769  1.8129  0.7691  1.9425
  182MOL   C17840360   1.668   2.563   7.569  0.1220 -0.8345 -0.2034
  182MOL   C17940361   1.803   2.573   7.500 -0.7563  0.1675  0.7405
  182MOL   O18040362   1.893   2.642   7.544  0.0167 -0.4040  0.3958
  182MOL   C18140363   1.817   2.507   7.366 -0.6862  0.2167  0.0517
  182MOL   C18240364   1.605   2.703   7.555  0.5627 -0.0100  0.4244
  182MOL   H18340365   1.611   2.498   7.502  0.2841  0.5080 -1.6732
  182MOL   H18440366   1.841   2.576   7.286  2.2113 -0.3022  0.4024
  182MOL   H18540367   1.905   2.443   7.353 -0.6205  0.1062  1.0100
  182MOL   H18640368   1.741   2.434   7.338  0.8114 -1.3130 -0.1767
  182MOL   H18740369   1.666   2.776   7.609 -1.6789  0.9289  1.7478
  182MOL   H18840370   1.505   2.710   7.597  0.9038  0.2850  1.1916
  182MOL   C18940371   1.577   2.744   7.407 -0.6712 -1.0765  0.6914
  182MOL   C19040372   1.600   2.889   7.400  0.2166  0.2091 -0.7595
  182MOL   O19140373   1.550   2.964   7.483 -0.3352 -0.0464 -0.3537
  182MOL   C19240374   1.696   2.939   7.287 -0.2780  0.1009 -0.7679
  182MOL   C19340375   1.435   2.710   7.361  0.3066  0.7832  0.4066
  182MOL   H19440376   1.648   2.699   7.337 -0.5656  1.4267 -0.8771
  182MOL   H19540377   1.741   2.856   7.233 -1.0457 -1.0761  0.3618
  182MOL   H19640378   1.639   2.997   7.214 -1.7832  0.2644  0.5202
  182MOL   H19740379   1.771   3.000   7.337 -1.0270  0.1245  0.3536
  182MOL   H19840380   1.355   2.762   7.413 -1.0804 -0.5768 -0.3476
  182MOL   H19940381   1.419   2.605   7.386  1.5475  0.0489 -1.7396
  182MOL   C20040382   1.414   2.714   7.208 -0.3739  0.3538  0.7768
  182MOL   C20140383   1.348   2.860   7.179 -0.5529 -0.4609  0.3280
  182MOL   O20240384   1.409   2.950   7.124  0.2235  0.4059  0.1634
  182MOL   C20340385   1.198   2.880   7.213 -0.3293 -0.4397 -0.5650
  182MOL   C20440386   1.327   2.601   7.149  0.4234 -0.2060 -0.6702
  182MOL   H20540387   1.513   2.715   7.162 -1.1280 -1.0554 -0.9342
  182MOL   H20640388   1.119   2.821   7.167 -1.2964 -0.3596  0.9864
  182MOL   H20740389   1.172   2.867   7.318  0.3754 -0.7649 -0.4300
  182MOL   H20840390   1.164   2.978   7.178  0.4320  0.2219  0.5273
  182MOL   H20940391   1.225   2.614   7.188  0.0200  0.9402 -2.0740
  182MOL   H21040392   1.371   2.506   7.179  2.7915  1.2622  0.7230
  182MOL   C21140393   1.309   2.609   6.998  0.3099 -0.0113  0.0858
  182MOL   C21240394   1.219   2.495   6.956  0.0042  0.2356 -0.1379
  182MOL   O21340395   1.269   2.390   6.910  0.3032 -0.2554  0.1881
  182MOL   C21440396   1.076   2.500   6.991  0.4560  0.4730 -0.0639
  182MOL   C21540397   1.434   2.619   6.906  0.1568 -0.3418  0.0939
  182MOL   H21640398   1.262   2.705   6.977 -1.7026 -0.5400  2.0347
  182MOL   H21740399   1.046   2.588   7.047 -0.6207  0.8353 -1.1795
  182MOL   H21840400   1.018   2.500   6.899  1.5544 -4.2820 -0.9064
  182MOL   H21940401   1.041   2.408   7.039 -1.9737  2.0958  1.3958
  182MOL   H22040402   1.498   2.531   6.916 -0.8774 -0.8476  2.6568
  182MOL   H22140403   1.502   2.699   6.937 -0.8605  0.5233  0.1095
  182MOL   H22240404   1.402   2.623   6.802 -0.9704  1.1014  0.4940
  183MOL     C140405   2.836   4.670   5.229  0.4104  0.1687 -0.1751
  183MOL     C240406   2.865   4.610   5.363 -0.1522 -0.2531 -0.0880
  183MOL     O340407   2.943   4.655   5.449  0.1167  0.3267 -0.3201
  183MOL     C440408   2.780   4.489   5.403 -0.3163 -0.7698  0.1912
  183MOL     C540409   2.944   4.766   5.172  0.1348  0.3286  0.0085
  183MOL     H640410   2.819   4.589   5.158  2.3701  1.1755 -1.8637
  183MOL     H740411   2.781   4.426   5.314  0.3920  0.8125 -0.9475
  183MOL     H840412   2.838   4.431   5.474  2.0166 -1.1000 -1.8924
  183MOL     H940413   2.677   4.512   5.428 -0.4925 -1.0585 -0.2591
  183MOL    H1040414   2.939   4.865   5.216  1.9072  0.6345 -0.4208
  183MOL    H1140415   2.930   4.789   5.066  0.2995 -1.5488 -0.4438
  183MOL    H1240416   2.739   4.717   5.247  0.8466 -0.4780  4.3813
  183MOL    C1340417   3.092   4.722   5.192 -0.0610 -0.4799  0.5929
  183MOL    C1440418   3.186   4.852   5.196 -0.0861  0.8028  0.3327
  183MOL    O1540419   3.245   4.888   5.096 -0.1775 -0.3961  0.2800
  183MOL    C1640420   3.193   4.931   5.322  0.0743  0.8564 -0.2526
  183MOL    C1740421   3.140   4.605   5.095  0.2463 -0.2644 -0.1540
  183MOL    H1840422   3.101   4.678   5.292 -0.0778  1.3235  1.4026
  183MOL    H1940423   3.178   5.034   5.293 -2.2225 -0.1652 -2.9044
  183MOL    H2040424   3.122   4.895   5.397 -0.0249 -0.2368 -0.8517
  183MOL    H2140425   3.292   4.911   5.363  0.0660 -2.8340 -1.8144
  183MOL    H2240426   3.135   4.641   4.992 -0.3424  1.9717  0.6333
  183MOL    H2340427   3.064   4.528   5.107 -0.8320  1.0260  1.4457
  183MOL    C2440428   3.290   4.553   5.095  0.1198  0.3724 -0.5487
  183MOL    C2540429   3.312   4.430   4.999  0.2487  0.4047 -0.1954
  183MOL    O2640430   3.312   4.310   5.036 -0.3064 -0.2244 -0.2434
  183MOL    C2740431   3.319   4.468   4.849  0.5009 -0.5177  0.0138
  183MOL    C2840432   3.353   4.532   5.234 -0.0698 -0.2976  0.2523
  183MOL    H2940433   3.347   4.631   5.043  3.5514 -1.1349  0.8259
  183MOL    H3040434   3.227   4.505   4.805  1.3248  0.5932 -0.8234
  183MOL    H3140435   3.395   4.546   4.834  0.6730 -0.7830 -0.4965
  183MOL    H3240436   3.360   4.378   4.805 -0.0099 -1.7752  2.0409
  183MOL    H3340437   3.323   4.440   5.284  1.7343 -0.4538  1.1128
  183MOL    H3440438   3.312   4.611   5.296 -2.4859  0.1969 -1.9200
  183MOL    C3540439   3.513   4.525   5.236  0.2304  0.3233  0.4008
  183MOL    C3640440   3.574   4.444   5.354 -0.0037  0.0600 -0.8221
  183MOL    O3740441   3.645   4.503   5.440 -0.0011  0.1645  0.3541
  183MOL    C3840442   3.543   4.291   5.359 -0.3035 -0.4817  0.4458
  183MOL    C3940443   3.571   4.668   5.214 -0.2257  0.6052 -0.2938
  183MOL    H4040444   3.543   4.470   5.147  0.4657 -1.8036  1.7396
  183MOL    H4140445   3.605   4.233   5.291 -2.5842 -0.3570 -1.8288
  183MOL    H4240446   3.567   4.267   5.463  2.1800 -1.8908 -0.4101
  183MOL    H4340447   3.440   4.263   5.335 -0.2178 -0.5884  0.2021
  183MOL    H4440448   3.616   4.703   5.307  2.7752 -3.1660 -0.2190
  183MOL    H4540449   3.497   4.743   5.188  0.7978  1.8488  0.3228
  183MOL    C4640450   3.680   4.677   5.107  0.1525 -0.1069  0.0960
  183MOL    C4740451   3.629   4.678   4.961  0.1308 -0.1532  0.2069
  183MOL    O4840452   3.641   4.575   4.889  0.5068 -0.0405  0.0595
  183MOL    C4940453   3.551   4.798   4.906 -0.7844 -0.0951 -1.1440
  183MOL    C5040454   3.794   4.568   5.128 -0.5244  0.7191 -0.6280
  183MOL    H5140455   3.710   4.782   5.108  1.8158 -0.5627 -0.4099
  183MOL    H5240456   3.536   4.872   4.985 -1.5803 -2.3285  0.8654
  183MOL    H5340457   3.623   4.833   4.832  1.4432 -1.5777  0.2398
  183MOL    H5440458   3.459   4.777   4.853 -2.1226 -3.3404  2.1897
  183MOL    H5540459   3.773   4.466   5.096  1.5847 -0.0231  0.2941
  183MOL    H5640460   3.802   4.550   5.236  4.0996 -1.6332 -1.2640
  183MOL    C5740461   3.932   4.613   5.070  0.3629  0.2471 -0.0974
  183MOL    C5840462   4.010   4.490   5.015  0.2542  0.2712  0.2056
  183MOL    O5940463   4.106   4.447   5.076 -0.8392  0.0826  0.2392
  183MOL    C6040464   3.964   4.410   4.900  0.1256  0.4453  0.3956
  183MOL    C6140465   4.031   4.693   5.172  0.2009 -0.4691 -0.4169
  183MOL    H6240466   3.919   4.664   4.974 -1.5088  1.8465  0.9622
  183MOL    H6340467   3.858   4.412   4.874  0.4937  0.2943 -1.1592
  183MOL    H6440468   4.014   4.432   4.806 -1.1153  0.6351 -0.2361
  183MOL    H6540469   3.989   4.306   4.919 -0.8785  0.1370  0.0670
  183MOL    H6640470   4.134   4.692   5.137 -0.4732  0.3558 -2.4928
  183MOL    H6740471   4.031   4.640   5.267  1.5033 -0.2476 -0.2863
  183MOL    C6840472   4.005   4.847   5.174  0.5836  0.6568  0.4548
  183MOL    C6940473   4.038   4.912   5.045 -0.0135  0.0138  0.2046
  183MOL    O7040474   4.097   4.858   4.955 -0.0439  0.1517 -0.0161
  183MOL    C7140475   3.992   5.059   5.026 -0.6169 -1.1589 -0.1512
  183MOL    C7240476   4.079   4.917   5.288  0.3395  0.0025 -0.1614
  183MOL    H7340477   3.897   4.865   5.178  0.4708  0.5244 -1.6767
  183MOL    H7440478   3.968   5.104   5.122 -0.0130 -0.3723 -0.3702
  183MOL    H7540479   4.073   5.111   4.975 -1.3186  0.1843  0.0921
  183MOL    H7640480   3.899   5.063   4.969 -1.6937 -0.7993  1.5681
  183MOL    H7740481   4.045   5.020   5.285  1.9855  0.5335 -1.2966
  183MOL    H7840482   4.183   4.919   5.257  0.4029  2.5548  0.1645
  183MOL    C7940483   4.056   4.857   5.425 -0.2832  0.4713  0.2102
  183MOL    C8040484   3.910   4.840   5.470  0.3538  0.1297  0.2621
  183MOL    O8140485   3.827   4.934   5.452 -0.4999 -0.0140 -1.2189
  183MOL    C8240486   3.873   4.718   5.557 -0.2047 -0.0676  0.3384
  183MOL    C8340487   4.149   4.924   5.528 -0.0511 -0.0172  0.3314
  183MOL    H8440488   4.089   4.753   5.422 -1.9145 -0.1685  2.8084
  183MOL    H8540489   3.933   4.731   5.647  1.1424  0.4796 -0.6204
  183MOL    H8640490   3.767   4.720   5.585 -0.7514  0.3113 -1.6938
  183MOL    H8740491   3.896   4.623   5.509  3.1009 -0.2402  2.1161
  183MOL    H8840492   4.097   4.907   5.623 -0.4431  2.8024  0.6723
  183MOL    H8940493   4.145   5.031   5.506 -1.5851 -0.2164 -0.4335
  183MOL    C9040494   4.296   4.882   5.536  0.2428  0.6561 -0.1148
  183MOL    C9140495   4.307   4.733   5.566  0.4660 -0.3448  0.5975
  183MOL    O9240496   4.210   4.677   5.617 -0.2819  0.0306  0.0399
  183MOL    C9340497   4.438   4.664   5.555 -0.3558  0.3545  0.2405
  183MOL    C9440498   4.380   4.957   5.643  0.1589 -0.3920 -0.3004
  183MOL    H9540499   4.345   4.908   5.442  0.3679  1.1133  0.0771
  183MOL    H9640500   4.445   4.623   5.455 -0.8877  0.2241  0.2592
  183MOL    H9740501   4.527   4.727   5.560  1.6779 -2.4541  0.6002
  183MOL    H9840502   4.450   4.581   5.625  0.7345  0.4393  0.1692
  183MOL    H9940503   4.480   4.915   5.650  1.7173  3.1476 -0.3996
  183MOL   H10040504   4.327   4.940   5.737 -0.4395  0.3423 -0.4990
  183MOL   C10140505   4.395   5.109   5.633 -0.2372  0.0138  0.1169
  183MOL   C10240506   4.466   5.154   5.505 -0.0030  0.0566  0.3650
  183MOL   O10340507   4.526   5.074   5.438 -0.2139  0.8928 -0.3160
  183MOL   C10440508   4.470   5.302   5.472  0.7171 -0.4009  0.1954
  183MOL   C10540509   4.461   5.166   5.756  0.1009 -0.4496 -0.2730
  183MOL   H10640510   4.293   5.144   5.618  0.4027  1.8019 -0.1688
  183MOL   H10740511   4.487   5.373   5.553  0.5821 -0.1937  0.0439
  183MOL   H10840512   4.533   5.323   5.385  1.1018 -2.1356  0.0428
  183MOL   H10940513   4.372   5.328   5.432  0.3278 -0.2115  1.2644
  183MOL   H11040514   4.499   5.266   5.731  1.0060 -0.5669  0.6147
  183MOL   H11140515   4.549   5.109   5.785  0.6935  1.2140  1.3016
  183MOL   C11240516   4.384   5.183   5.886  0.3153 -0.0135  0.0618
  183MOL   C11340517   4.250   5.251   5.874 -0.5698 -0.2698 -0.5090
  183MOL   O11440518   4.233   5.362   5.914  0.2193  0.1160  0.5472
  183MOL   C11540519   4.136   5.164   5.822 -0.0887  0.0311  0.3122
  183MOL   C11640520   4.474   5.248   6.004 -0.1346  0.0075 -0.6728
  183MOL   H11740521   4.359   5.086   5.930 -0.8337  0.2482 -0.0238
  183MOL   H11840522   4.044   5.198   5.870 -0.8463  1.8971 -2.3291
  183MOL   H11940523   4.123   5.186   5.716 -2.5562  0.5308  0.6942
  183MOL   H12040524   4.149   5.056   5.828 -0.6532  0.0232  1.4332
  183MOL   H12140525   4.417   5.306   6.077  0.9380  0.2992 -0.0566
  183MOL   H12240526   4.543   5.317   5.957  2.2195 -1.6762  0.2387
  183MOL   C12340527   4.560   5.138   6.078 -0.3889  0.1620 -0.2446
  183MOL   C12440528   4.483   5.085   6.196 -0.1806 -0.6312  0.2548
  183MOL   O12540529   4.496   5.131   6.313 -0.1731 -0.0854  0.1443
  183MOL   C12640530   4.404   4.963   6.171 -0.0692 -0.4632 -0.1737
  183MOL   C12740531   4.701   5.194   6.117 -0.2137 -0.0120 -0.1801
  183MOL   H12840532   4.579   5.056   6.010  0.6616  1.0399 -1.0200
  183MOL   H12940533   4.299   4.984   6.189  0.2469  0.2952  0.8306
  183MOL   H13040534   4.431   4.923   6.073 -0.6078  1.6251 -1.2020
  183MOL   H13140535   4.430   4.881   6.239  1.1056 -1.2324 -1.5251
  183MOL   H13240536   4.693   5.268   6.198  1.3222  1.5152 -1.4028
  183MOL   H13340537   4.732   5.262   6.038  1.5943 -1.2091 -0.5167
  183MOL   C13440538   4.808   5.087   6.133  0.4492 -0.9484  0.1518
  183MOL   C13540539   4.902   5.120   6.252  0.3010  0.2674 -0.5624
  183MOL   O13640540   5.026   5.124   6.236 -0.1067  0.4106 -0.1318
  183MOL   C13740541   4.843   5.157   6.396  0.1876  0.5135  0.1134
  183MOL   C13840542   4.893   5.065   6.006  0.3006  0.8166  0.1397
  183MOL   H13940543   4.761   4.992   6.158  1.1084 -1.7137 -1.3968
  183MOL   H14040544   4.920   5.200   6.460 -0.2155 -0.0641  0.9959
  183MOL   H14140545   4.760   5.226   6.376  0.3775  0.2026 -1.8752
  183MOL   H14240546   4.802   5.070   6.447  0.4531 -0.2557 -0.9706
  183MOL   H14340547   4.984   5.125   6.005  0.2006  0.9705 -1.1311
  183MOL   H14440548   4.839   5.112   5.923 -1.2334  1.4026  1.4483
  183MOL   C14540549   4.925   4.923   5.976 -0.0902  0.2425 -0.1240
  183MOL   C14640550   5.055   4.865   6.039  0.2678  0.4957 -0.5486
  183MOL   O14740551   5.054   4.777   6.117  0.0466  0.3063  0.3223
  183MOL   C14840552   5.187   4.918   6.005  0.6033  0.1189 -0.2236
  183MOL   C14940553   4.923   4.901   5.822  0.2908  0.1498  0.5661
  183MOL   H15040554   4.844   4.858   6.008  0.6629  0.1203  1.5654
  183MOL   H15140555   5.190   4.934   5.898 -1.0088 -2.5454 -0.7083
  183MOL   H15240556   5.205   5.004   6.070  3.2285  0.8245 -1.8344
  183MOL   H15340557   5.267   4.844   6.015 -0.5451 -1.0424  0.5345
  183MOL   H15440558   4.981   4.812   5.796  1.3919  0.7050  1.0880
  183MOL   H15540559   4.978   4.981   5.773  1.4000  0.6206  2.5276
  183MOL   C15640560   4.775   4.885   5.763  0.0097  0.2827 -0.3800
  183MOL   C15740561   4.681   4.772   5.828  0.0147 -0.4438 -0.6082
  183MOL   O15840562   4.561   4.795   5.847  0.0226  0.1856 -0.5157
  183MOL   C15940563   4.750   4.643   5.863  0.2188 -0.5053  0.3357
  183MOL   C16040564   4.774   4.886   5.616  0.4094  0.3193 -0.3524
  183MOL   H16140565   4.727   4.975   5.800 -1.9792 -0.1954 -1.7478
  183MOL   H16240566   4.849   4.642   5.816  0.9190  1.6563  1.6659
  183MOL   H16340567   4.768   4.642   5.971  0.8718 -0.4729  0.2286
  183MOL   H16440568   4.697   4.551   5.837  0.9837 -0.6437 -0.7666
  183MOL   H16540569   4.829   4.969   5.571  0.4566  0.4976  0.0393
  183MOL   H16640570   4.673   4.911   5.582  0.5029 -0.6325 -1.3463
  183MOL   C16740571   4.810   4.763   5.530 -0.0479 -0.5609 -0.6641
  183MOL   C16840572   4.957   4.709   5.551 -0.3056 -1.6259  0.2237
  183MOL   O16940573   4.972   4.599   5.603  0.3368 -0.0709  0.0696
  183MOL   C17040574   5.074   4.803   5.528 -0.3946  0.3171 -0.0853
  183MOL   C17140575   4.772   4.789   5.387  0.3423 -0.0106  0.7152
  183MOL   H17240576   4.737   4.689   5.563  0.0953 -0.8998 -1.1054
  183MOL   H17340577   5.042   4.901   5.560 -0.2732  0.0626  0.8164
  183MOL   H17440578   5.153   4.760   5.590 -1.7062  0.6482  1.8581
  183MOL   H17540579   5.097   4.798   5.421  0.1528  1.4823 -0.0279
  183MOL   H17640580   4.852   4.844   5.338  0.4580  0.9039  1.8821
  183MOL   H17740581   4.686   4.856   5.389 -0.6413 -1.2545  0.4615
  183MOL   C17840582   4.716   4.664   5.307  0.1973  0.5987 -0.4602
  183MOL   C17940583   4.798   4.534   5.319  0.1270 -0.1183  0.1645
  183MOL   O18040584   4.915   4.542   5.289  0.3582  0.2277  0.0052
  183MOL   C18140585   4.739   4.410   5.381 -0.1144 -0.0470  0.2480
  183MOL   C18240586   4.718   4.695   5.156 -0.7483 -0.9752 -0.7632
  183MOL   H18340587   4.618   4.639   5.346  0.4743  1.5973  0.9339
  183MOL   H18440588   4.767   4.320   5.326  1.1980  2.3025 -3.0852
  183MOL   H18540589   4.789   4.412   5.479 -0.7991 -0.5419  0.6088
  183MOL   H18640590   4.631   4.408   5.393  0.0971 -1.5223  2.2806
  183MOL   H18740591   4.713   4.613   5.085 -2.3779 -0.1531 -1.6345
  183MOL   H18840592   4.808   4.751   5.129 -2.3633  2.7602  1.1411
  183MOL   C18940593   4.589   4.783   5.113 -0.1038  0.2232 -0.0649
  183MOL   C19040594   4.457   4.716   5.153  0.7565 -0.0544 -0.0037
  183MOL   O19140595   4.387   4.747   5.242  0.5844 -0.1834  0.0503
  183MOL   C19240596   4.407   4.602   5.064 -0.3643  0.2488 -0.3816
  183MOL   C19340597   4.592   4.841   4.969  0.6178  0.9373  0.0788
  183MOL   H19440598   4.586   4.868   5.182  2.2807  0.6418 -0.4386
  183MOL   H19540599   4.369   4.649   4.973 -0.5357 -1.7252 -1.3528
  183MOL   H19640600   4.489   4.536   5.037 -0.0094  0.2656  0.6315
  183MOL   H19740601   4.318   4.555   5.105 -1.2427  0.3008 -2.1894
  183MOL   H19840602   4.579   4.764   4.893  2.1228  1.5751 -0.8230
  183MOL   H19940603   4.685   4.887   4.938  2.4010 -1.5631  1.5372
  183MOL   C20040604   4.477   4.940   4.951 -0.7187 -0.5127  0.2903
  183MOL   C20140605   4.462   4.952   4.794  0.1180  0.4842  0.2559
  183MOL   O20240606   4.532   5.028   4.727 -0.2186 -0.2278 -0.1134
  183MOL   C20340607   4.350   4.864   4.736  0.0292 -0.3821 -0.5484
  183MOL   C20440608   4.518   5.073   5.010  0.5125 -0.5495 -0.8960
  183MOL   H20540609   4.392   4.906   5.011 -1.9255 -0.8746 -1.5805
  183MOL   H20640610   4.363   4.765   4.779 -0.8119  0.0639  0.7737
  183MOL   H20740611   4.253   4.895   4.777 -0.5518 -1.0476 -1.3961
  183MOL   H20840612   4.354   4.868   4.627  0.0570 -0.2325 -0.5428
  183MOL   H20940613   4.609   5.111   4.965  2.0281 -0.2639  2.2375
  183MOL   H21040614   4.535   5.056   5.116  1.1115 -0.3837 -0.9646
  183MOL   C21140615   4.402   5.180   5.024  0.1293 -0.1648 -0.4199
  183MOL   C21240616   4.457   5.318   5.069 -0.2647  0.6731  0.0097
  183MOL   O21340617   4.572   5.325   5.114 -0.3345 -0.1569 -0.4295
  183MOL   C21440618   4.367   5.441   5.053 -0.1680 -0.0097  0.4036
  183MOL   C21540619   4.299   5.128   5.128  0.0364  0.1720  0.0163
  183MOL   H21640620   4.357   5.185   4.925 -0.3229 -0.1354 -0.2173
  183MOL   H21740621   4.410   5.535   5.018 -0.8135  0.4398  0.8160
  183MOL   H21840622   4.295   5.416   4.974 -0.7050  2.6290 -0.0046
  183MOL   H21940623   4.318   5.468   5.146 -0.3122 -0.2080  0.3834
  183MOL   H22040624   4.207   5.187   5.133 -2.7378 -3.9277 -0.6387
  183MOL   H22140625   4.345   5.133   5.227  1.2511  1.8311 -0.5990
  183MOL   H22240626   4.265   5.029   5.098 -0.3546  0.1367  0.5783
  184MOL     C140627   0.139   7.336   7.293 -0.0297 -0.2909  0.6895
  184MOL     C240628   0.211   7.337   7.426  0.8321 -0.4419 -0.6418
  184MOL     O340629   0.184   7.426   7.509  0.6451 -0.2323  0.9617
  184MOL     C440630   0.322   7.237   7.467  0.8011  0.2877  0.4130
  184MOL     C540631   0.019   7.236   7.299 -0.3384 -0.8942  0.4259
  184MOL     H640632   0.112   7.441   7.276 -2.0689 -1.0937 -1.2524
  184MOL     H740633   0.283   7.176   7.548  1.8321  0.0327  0.7224
  184MOL     H840634   0.339   7.176   7.378 -2.7473  1.6909 -1.3236
  184MOL     H940635   0.415   7.289   7.493  0.5296  1.0251 -0.0946
  184MOL    H1040636   7.803   7.252   7.390  1.8868  1.6914  1.4349
  184MOL    H1140637   0.052   7.132   7.298  0.5098 -0.6375  1.0092
  184MOL    H1240638   0.198   7.305   7.208 -0.0599 -1.5568  1.1253
  184MOL    C1340639   7.776   7.247   7.173  0.5492 -0.2263 -0.6475
  184MOL    C1440640   7.625   7.204   7.193  0.0333  0.4819  0.0652
  184MOL    O1540641   7.586   7.092   7.176  0.0503 -0.1512  1.0623
  184MOL    C1640642   7.530   7.323   7.216  0.6987 -0.4216 -0.6205
  184MOL    C1740643   0.008   7.174   7.057 -0.2408 -0.7207  0.0145
  184MOL    H1840644   7.758   7.351   7.145  0.2539 -0.1597 -0.2194
  184MOL    H1940645   7.518   7.339   7.323  0.3796 -0.2818 -0.6742
  184MOL    H2040646   7.584   7.413   7.186 -0.0349  0.8927  1.8868
  184MOL    H2140647   7.430   7.318   7.172 -0.5588  1.7169  1.8812
  184MOL    H2240648   7.778   7.119   6.997 -1.1047  0.6909 -0.2558
  184MOL    H2340649   0.070   7.089   7.089 -0.4758 -0.8145  0.2205
  184MOL    C2440650   0.080   7.275   6.960 -0.6985  0.1544  0.5120
  184MOL    C2540651   7.819   7.355   6.881  0.3039  0.3291  0.2179
  184MOL    O2640652   7.706   7.317   6.855 -0.6138  0.2744  0.3469
  184MOL    C2740653   0.007   7.503   6.844 -0.5927  0.9598  0.2875
  184MOL    C2840654   0.175   7.199   6.862 -0.4428  0.2248  0.2736
  184MOL    H2940655   0.131   7.353   7.017  1.2125  0.6820 -1.8319
  184MOL    H3040656   0.078   7.550   6.911 -0.1126  0.6817 -0.0219
  184MOL    H3140657   0.039   7.513   6.740  0.4971 -1.1275  0.3840
  184MOL    H3240658   7.764   7.570   6.847 -0.2742  1.3721  0.1289
  184MOL    H3340659   0.121   7.127   6.801 -0.6047 -0.1353  0.8428
  184MOL    H3440660   0.241   7.142   6.927  1.3859  2.7010  0.6810
  184MOL    C3540661   0.256   7.290   6.766 -0.4265 -0.2042 -0.0033
  184MOL    C3640662   0.340   7.198   6.674 -0.3834  0.5130  0.1607
  184MOL    O3740663   0.413   7.111   6.728  0.0568  0.1472 -0.4097
  184MOL    C3840664   0.338   7.221   6.524  1.0051 -0.2130  0.3152
  184MOL    C3940665   0.356   7.382   6.849  0.4460  0.6255 -0.0814
  184MOL    H4040666   0.191   7.336   6.692 -2.3704 -0.0789  1.7583
  184MOL    H4140667   0.345   7.328   6.505  1.7008 -0.4197 -0.6348
  184MOL    H4240668   0.412   7.170   6.461  1.5336 -0.4746  1.1495
  184MOL    H4340669   0.239   7.192   6.489  1.0516  0.4032 -0.3447
  184MOL    H4440670   0.422   7.315   6.904  0.3914 -0.6584 -1.5469
  184MOL    H4540671   0.296   7.426   6.928 -1.1531  0.0860 -0.9870
  184MOL    C4640672   0.435   7.496   6.781 -0.6040 -0.1099 -0.0147
  184MOL    C4740673   0.334   7.598   6.714  0.4448  0.5784 -0.7662
  184MOL    O4840674   0.274   7.569   6.614 -0.2012  0.2523  0.6302
  184MOL    C4940675   0.293   7.728   6.787  0.0305  0.2095 -0.7778
  184MOL    C5040676   0.559   7.454   6.696 -0.7979 -0.1232 -0.2526
  184MOL    H5140677   0.473   7.554   6.865 -0.0597  0.6674 -0.7825
  184MOL    H5240678   0.368   7.750   6.863 -1.7459 -0.7594  1.2960
  184MOL    H5340679   0.286   7.807   6.713 -1.9651  1.3411  0.5871
  184MOL    H5440680   0.194   7.726   6.832  0.0095  1.7616 -0.7341
  184MOL    H5540681   0.525   7.399   6.608  0.8690 -1.6319  0.0115
  184MOL    H5640682   0.605   7.381   6.764  1.3229  0.0776 -1.4356
  184MOL    C5740683   0.674   7.552   6.665 -0.1902  0.3635  0.1450
  184MOL    C5840684   0.711   7.641   6.782  0.0783 -0.1570 -0.1176
  184MOL    O5940685   0.644   7.731   6.822  0.2232 -0.9533 -0.4484
  184MOL    C6040686   0.833   7.593   6.866 -0.2373 -0.3600  0.0100
  184MOL    C6140687   0.636   7.629   6.541 -0.1706 -0.4978 -0.0853
  184MOL    H6240688   0.762   7.493   6.641  0.2803  0.6128  1.2223
  184MOL    H6340689   0.805   7.496   6.906 -3.0000  1.0918  1.8487
  184MOL    H6440690   0.930   7.590   6.818  0.5258  1.4446  1.3627
  184MOL    H6540691   0.848   7.669   6.943 -1.3399 -0.4275  0.3031
  184MOL    H6640692   0.555   7.698   6.562  0.5866  0.5415 -0.5280
  184MOL    H6740693   0.609   7.556   6.465 -1.7810  0.3223 -0.3127
  184MOL    C6840694   0.746   7.717   6.480 -0.5354  0.1288 -0.0357
  184MOL    C6940695   0.879   7.647   6.468  0.1713  0.0281  0.2029
  184MOL    O7040696   0.971   7.675   6.544 -0.0686 -0.1572 -0.7111
  184MOL    C7140697   0.879   7.528   6.376 -0.1774  0.1767 -0.0236
  184MOL    C7240698   0.761   0.018   6.538 -0.3953  0.0288 -0.0453
  184MOL    H7340699   0.721   7.723   6.374 -0.1220  0.2072 -0.1277
  184MOL    H7440700   0.801   7.472   6.427 -0.3074 -0.2719 -0.7092
  184MOL    H7540701   0.875   7.556   6.271 -0.9697 -2.4421 -0.7271
  184MOL    H7640702   0.975   7.479   6.392  0.0884  0.5166 -0.5455
  184MOL    H7740703   0.853   0.071   6.510 -1.6717  1.3875 -1.7708
  184MOL    H7840704   0.774   0.022   6.646 -1.5646  0.2004  0.0941
  184MOL    C7940705   0.642   0.113   6.513 -0.2930  0.3886  0.3564
  184MOL    C8040706   0.603   0.122   6.365 -0.2389 -0.7904 -0.5067
  184MOL    O8140707   0.679   0.142   6.273 -0.2339  0.0907  0.2199
  184MOL    C8240708   0.458   0.097   6.328 -0.0059 -0.4379 -1.3764
  184MOL    C8340709   0.666   0.254   6.581  0.2109  0.1103 -0.1979
  184MOL    H8440710   0.564   0.066   6.572  0.4209 -1.0796  0.1383
  184MOL    H8540711   0.402   0.189   6.348  0.8448 -0.3512  0.6890
  184MOL    H8640712   0.453   0.062   6.224 -1.4252 -2.1973 -0.7497
  184MOL    H8740713   0.411   0.017   6.385  0.6950 -1.0348 -1.6276
  184MOL    H8840714   0.613   0.324   6.516 -2.5857 -2.3380 -0.6582
  184MOL    H8940715   0.772   0.278   6.587  0.9343 -2.5081 -1.9028
  184MOL    C9040716   0.599   0.271   6.718  0.3285 -0.0743 -0.3835
  184MOL    C9140717   0.449   0.248   6.731  0.2979  0.1855  0.3501
  184MOL    O9240718   0.375   0.264   6.632 -0.1725 -0.3959  0.7972
  184MOL    C9340719   0.384   0.210   6.868  0.1729  0.4815  0.0743
  184MOL    C9440720   0.645   0.398   6.800  0.6302 -0.2290  0.4138
  184MOL    H9540721   0.631   0.189   6.783 -1.3862  0.1207  0.7242
  184MOL    H9640722   0.460   0.150   6.916  1.2542  1.4959 -0.3448
  184MOL    H9740723   0.370   0.292   6.939 -0.3506 -1.0108  1.7490
  184MOL    H9840724   0.292   0.156   6.844  1.1425 -0.7507 -0.9096
  184MOL    H9940725   0.751   0.423   6.794  0.1689  1.8106  0.4383
  184MOL   H10040726   0.640   0.371   6.906  1.5988  1.7080  0.9816
  184MOL   C10140727   0.566   0.530   6.799  0.2672  0.2111  1.4079
  184MOL   C10240728   0.574   0.587   6.659  0.2676  0.6427  0.3290
  184MOL   O10340729   0.680   0.617   6.611 -0.1029 -0.2042  0.1374
  184MOL   C10440730   0.449   0.609   6.586  0.0360  0.5132 -0.5882
  184MOL   C10540731   0.623   0.626   6.904  0.2187 -0.1788  0.5615
  184MOL   H10640732   0.467   0.516   6.841 -1.0434  0.8283 -1.3914
  184MOL   H10740733   0.435   0.523   6.521  0.1606 -0.9139  1.2098
  184MOL   H10840734   0.366   0.619   6.656  2.0369  0.5899  1.8451
  184MOL   H10940735   0.454   0.700   6.527  1.8982 -1.3339 -3.3683
  184MOL   H11040736   0.726   0.645   6.876 -0.5511  1.8861 -0.9480
  184MOL   H11140737   0.606   0.574   6.998 -2.4826  1.0956  0.8396
  184MOL   C11240738   0.553   0.773   6.902  0.3532 -0.8497  0.0048
  184MOL   C11340739   0.657   0.867   6.954  0.1361 -0.3643 -0.4355
  184MOL   O11440740   0.710   0.854   7.066 -0.3709 -0.5259  0.2474
  184MOL   C11540741   0.697   0.987   6.868 -0.1010  0.2935 -0.2103
  184MOL   C11640742   0.419   0.770   6.984 -0.1518 -0.0530 -0.3478
  184MOL   H11740743   0.536   0.808   6.800 -0.8392  0.9053  0.7879
  184MOL   H11840744   0.793   0.975   6.818 -0.0078  1.4218 -0.3198
  184MOL   H11940745   0.620   0.999   6.792  0.7798 -0.3452 -1.1990
  184MOL   H12040746   0.692   1.074   6.935  1.1124 -0.4209  0.8203
  184MOL   H12140747   0.425   0.741   7.089 -0.4154  0.6089 -0.1507
  184MOL   H12240748   0.362   0.687   6.941 -1.9668  1.0233 -0.0501
  184MOL   C12340749   0.327   0.902   6.986  0.7351  0.2335  0.4847
  184MOL   C12440750   0.373   1.009   7.078  0.8229 -0.5657 -0.5306
  184MOL   O12540751   0.453   0.987   7.176  0.2809 -0.2009  0.7742
  184MOL   C12640752   0.331   1.153   7.047  0.2386  0.6654 -0.4322
  184MOL   C12740753   0.175   0.869   7.017  0.2562 -0.2008  0.3254
  184MOL   H12840754   0.341   0.944   6.887 -0.8808 -1.3236 -0.4306
  184MOL   H12940755   0.224   1.154   7.027  0.0767 -0.6625  0.2964
  184MOL   H13040756   0.356   1.227   7.122 -0.5180  1.1223 -0.6273
  184MOL   H13140757   0.386   1.174   6.955  1.3938 -0.2543  0.0230
  184MOL   H13240758   0.125   0.963   7.039 -0.1503 -0.1853 -0.6180
  184MOL   H13340759   0.172   0.815   7.111  1.9881  1.6274  1.4679
  184MOL   C13440760   0.107   0.797   6.896  0.0710 -0.8388  0.6264
  184MOL   C13540761   0.097   0.898   6.781 -0.4069 -0.6955  0.4543
  184MOL   O13640762   0.044   1.008   6.781  0.4782 -0.4397 -0.5604
  184MOL   C13740763   0.167   0.857   6.653 -0.2738 -0.4646  0.4396
  184MOL   C13840764   7.819   0.734   6.937  0.2776 -0.4191 -0.7828
  184MOL   H13940765   0.172   0.715   6.866  1.2298 -0.2472  1.4359
  184MOL   H14040766   0.157   0.944   6.588 -3.0787  0.6328  2.2456
  184MOL   H14140767   0.274   0.838   6.660 -0.4803 -1.7300  0.3485
  184MOL   H14240768   0.123   0.773   6.599 -0.2481 -0.9772  1.2019
  184MOL   H14340769   7.735   0.802   6.920  1.0729  0.5814 -0.7436
  184MOL   H14440770   7.831   0.720   7.045 -0.3308 -1.5456 -0.8524
  184MOL   C14540771   7.798   0.582   6.893  0.0839 -0.4620  0.2024
  184MOL   C14640772   0.063   0.487   6.953  0.5808  0.1493 -0.6486
  184MOL   O14740773   0.162   0.445   6.890 -0.6640  0.0820  0.2425
  184MOL   C14840774   0.058   0.460   7.104  0.1492  0.0762 -0.2817
  184MOL   C14940775   7.778   0.571   6.743 -0.0442  0.2462  0.6381
  184MOL   H15040776   7.711   0.548   6.949 -0.2398  0.1376  0.0721
  184MOL   H15140777   0.162   0.461   7.138  0.0335 -1.2720  0.1541
  184MOL   H15240778   0.006   0.539   7.158  1.0677  0.8660 -0.5320
  184MOL   H15340779   0.020   0.361   7.130 -0.5441  0.1241 -1.1173
  184MOL   H15440780   7.757   0.465   6.732 -1.8777  0.6320  0.3050
  184MOL   H15540781   0.035   0.581   6.698 -0.7586 -0.6967 -1.2125
  184MOL   C15640782   7.674   0.672   6.670  0.1859  0.1235  0.1395
  184MOL   C15740783   7.542   0.679   6.745 -0.3188  0.1961  0.3141
  184MOL   O15840784   7.497   0.782   6.802 -0.2989  0.8783 -0.1291
  184MOL   C15940785   7.470   0.550   6.762  0.0573  1.3255 -0.1024
  184MOL   C16040786   7.655   0.650   6.521 -0.4582  0.0658  0.4754
  184MOL   H16140787   7.701   0.777   6.677  0.3001  0.0186  1.3837
  184MOL   H16240788   7.533   0.467   6.796 -3.1755 -0.6305  1.3182
  184MOL   H16340789   7.384   0.556   6.829 -0.2750  0.1331 -0.4139
  184MOL   H16440790   7.426   0.517   6.668 -1.9581  0.0211  1.2490
  184MOL   H16540791   7.613   0.550   6.509 -0.1387 -0.1914  1.4960
  184MOL   H16640792   7.751   0.631   6.473 -0.0080 -0.9170  1.7338
  184MOL   C16740793   7.576   0.774   6.460 -0.3364  0.7138 -0.0122
  184MOL   C16840794   7.524   0.727   6.327  0.1904  0.5568 -0.1484
  184MOL   O16940795   7.602   0.717   6.238 -0.1198 -0.3256 -0.0193
  184MOL   C17040796   7.376   0.680   6.327 -1.4202 -0.0203 -0.0299
  184MOL   C17140797   7.669   0.900   6.453 -0.0863  0.3374  0.2253
  184MOL   H17240798   7.491   0.797   6.524 -1.6012 -0.5571 -1.1955
  184MOL   H17340799   7.356   0.618   6.415 -0.6192 -0.5097 -0.1905
  184MOL   H17440800   7.327   0.776   6.340 -0.0440  0.8468 -1.1552
  184MOL   H17540801   7.334   0.637   6.236 -0.1028 -0.8370 -0.2676
  184MOL   H17640802   7.702   0.910   6.350 -0.6374  3.7831  0.3077
  184MOL   H17740803   7.755   0.878   6.517 -0.7499  1.2635  1.4810
  184MOL   C17840804   7.610   1.039   6.504  0.2516  0.4718  0.4701
  184MOL   C17940805   7.496   1.079   6.418  0.2659 -0.1096 -0.6113
  184MOL   O18040806   7.522   1.136   6.312 -0.4932  0.2070  0.1429
  184MOL   C18140807   7.352   1.043   6.449  0.1957  0.0874 -0.6471
  184MOL   C18240808   7.719   1.145   6.499  0.1634  0.2898  0.2398
  184MOL   H18340809   7.570   1.022   6.604 -0.1645 -1.7084 -0.0383
  184MOL   H18440810   7.333   0.937   6.465  0.2910  0.5737  3.1228
  184MOL   H18540811   7.330   1.082   6.548  1.0997  0.8943 -0.7517
  184MOL   H18640812   7.286   1.098   6.382 -0.3684 -0.3887 -0.4837
  184MOL   H18740813   7.750   1.152   6.395  1.6787  1.8496  0.7746
  184MOL   H18840814   7.809   1.112   6.551 -1.6199 -1.0982  2.5435
  184MOL   C18940815   7.673   1.281   6.549 -0.3176 -0.0887  0.0514
  184MOL   C19040816   7.750   1.389   6.472  0.0776 -0.7968 -0.0088
  184MOL   O19140817   0.020   1.368   6.417 -0.6001 -0.0495 -0.2472
  184MOL   C19240818   7.671   1.515   6.459  1.1805  0.3231 -0.0137
  184MOL   C19340819   7.699   1.299   6.699  0.2653 -0.1717  0.2125
  184MOL   H19440820   7.569   1.292   6.519 -0.2812 -0.2852 -0.1515
  184MOL   H19540821   7.705   1.581   6.379 -0.5130 -1.8775 -2.6290
  184MOL   H19640822   7.569   1.486   6.433  0.8321  0.4344  1.2179
  184MOL   H19740823   7.662   1.568   6.554 -0.3619 -1.9086  1.1375
  184MOL   H19840824   7.693   1.405   6.724  0.0464 -0.4839  1.5187
  184MOL   H19940825   7.805   1.276   6.713  0.4906  1.2830  0.9836
  184MOL   C20040826   7.618   1.215   6.802 -1.2261 -0.1194  0.2485
  184MOL   C20140827   7.468   1.234   6.783 -0.5275 -0.0968  0.5034
  184MOL   O20240828   7.415   1.334   6.731  0.2866  0.4491 -0.1373
  184MOL   C20340829   7.385   1.123   6.852 -0.0196  0.1643 -1.1787
  184MOL   C20440830   7.668   1.235   6.948 -0.4522  0.0070 -0.6891
  184MOL   H20540831   7.641   1.109   6.790 -2.5279 -0.4209  0.3242
  184MOL   H20640832   7.302   1.099   6.786 -0.6986 -0.6772 -0.0427
  184MOL   H20740833   7.453   1.038   6.861 -1.2803 -0.7371  0.1135
  184MOL   H20840834   7.346   1.160   6.947  0.2133 -0.4742 -0.8301
  184MOL   H20940835   7.777   1.234   6.957 -0.4295  0.3324 -0.9120
  184MOL   H21040836   7.641   1.142   6.999 -2.0460  0.7097 -0.2338
  184MOL   C21140837   7.613   1.358   7.028 -0.8588 -1.1898  0.1253
  184MOL   C21240838   7.691   1.485   6.993  0.5620  0.1900  0.0584
  184MOL   O21340839   7.817   1.496   7.013 -0.4918 -0.1224 -0.3353
  184MOL   C21440840   7.609   1.592   6.922 -0.4677  0.1924  0.0017
  184MOL   C21540841   7.622   1.329   7.182 -0.3178  0.5913 -0.0877
  184MOL   H21640842   7.506   1.372   7.015 -0.8205  1.0688  1.8583
  184MOL   H21740843   7.502   1.575   6.906 -0.6285 -0.4470  1.6209
  184MOL   H21840844   7.605   1.657   7.009 -0.4348 -0.8879  0.8129
  184MOL   H21940845   7.663   1.634   6.837  0.4731 -0.4526  0.2748
  184MOL   H22040846   7.640   1.424   7.233 -0.7393  0.4298  0.3619
  184MOL   H22140847   7.707   1.268   7.211  0.1128  1.4873  0.5522
  184MOL   H22240848   7.529   1.291   7.223 -0.5672 -0.4608 -1.5943
  185MOL     C140849   4.021   3.037   4.465 -1.2274  0.5715  0.1165
  185MOL     C240850   4.002   3.186   4.485 -0.3651 -0.5401  0.2945
  185MOL     O340851   4.081   3.249   4.546 -0.3198  0.0675 -0.0469
  185MOL     C440852   3.862   3.241   4.449 -0.2882  0.1924 -0.6216
  185MOL     C540853   3.898   2.968   4.534  0.4848  0.4714 -0.2808
  185MOL     H640854   4.020   3.027   4.357 -1.5073 -0.0566  0.1790
  185MOL     H740855   3.801   3.247   4.539  1.6759 -0.2091  0.7795
  185MOL     H840856   3.877   3.340   4.406  0.7835  0.1134 -0.4434
  185MOL     H940857   3.809   3.195   4.365  0.1590 -0.8903 -0.3180
  185MOL    H1040858   3.857   3.035   4.610  2.1652  0.9037  0.2530
  185MOL    H1140859   3.933   2.885   4.596 -0.3250  1.9270  2.1754
  185MOL    H1240860   4.115   2.987   4.486 -1.4329 -0.2761 -0.9706
  185MOL    C1340861   3.794   2.908   4.435  0.2861  0.5544  0.2174
  185MOL    C1440862   3.658   2.909   4.507  0.4845  0.2786 -0.0602
  185MOL    O1540863   3.566   2.973   4.465  0.7880  0.1813 -0.1516
  185MOL    C1640864   3.651   2.816   4.632  0.2804  0.5191 -0.2418
  185MOL    C1740865   3.834   2.766   4.389  0.1550  0.0128 -0.1817
  185MOL    H1840866   3.775   2.987   4.362  0.8944  1.3666  0.9262
  185MOL    H1940867   3.651   2.712   4.601 -0.8718  0.3929  0.1636
  185MOL    H2040868   3.741   2.838   4.690  1.3507 -1.5694 -1.0405
  185MOL    H2140869   3.562   2.845   4.689  0.3343 -0.3446  0.2896
  185MOL    H2240870   3.742   2.710   4.373  0.5883 -0.5583 -0.7140
  185MOL    H2340871   3.887   2.709   4.465 -1.2516 -2.1417 -0.7777
  185MOL    C2440872   3.922   2.759   4.264  0.3236 -0.0322 -0.0582
  185MOL    C2540873   3.857   2.836   4.149 -0.2601 -0.4523  0.6106
  185MOL    O2640874   3.757   2.799   4.094  0.1696  0.0062 -0.3689
  185MOL    C2740875   3.922   2.967   4.114  0.4901  0.1514  0.3322
  185MOL    C2840876   3.959   2.610   4.231  0.1307  0.6412  0.0425
  185MOL    H2940877   4.016   2.807   4.290  0.5154  0.8516 -2.3440
  185MOL    H3040878   3.867   3.061   4.120 -0.1326  0.0233 -2.6470
  185MOL    H3140879   4.026   2.982   4.145  0.4316  0.0735  0.5707
  185MOL    H3240880   3.928   2.961   4.005 -1.2710  1.9197  0.1147
  185MOL    H3340881   3.877   2.548   4.195  0.9039 -0.5070  0.2436
  185MOL    H3440882   4.006   2.556   4.313  0.6059 -0.3850 -0.8976
  185MOL    C3540883   4.079   2.590   4.127  0.5620 -0.7478  0.3014
  185MOL    C3640884   4.213   2.656   4.182  0.7551 -0.2422  0.4370
  185MOL    O3740885   4.250   2.764   4.134 -0.5185  0.5416  0.1451
  185MOL    C3840886   4.286   2.598   4.306  0.2178  0.1701  0.1292
  185MOL    C3940887   4.033   2.637   3.986 -0.0650  0.6605 -0.6066
  185MOL    H4040888   4.104   2.484   4.135  2.3438 -0.4374 -0.8292
  185MOL    H4140889   4.380   2.650   4.325  0.4155 -0.3587  0.6149
  185MOL    H4240890   4.221   2.606   4.393  1.1591  1.3420  0.7523
  185MOL    H4340891   4.313   2.493   4.293 -0.6981  0.0644 -1.0121
  185MOL    H4440892   4.029   2.745   3.982  2.7204  0.8254 -0.0944
  185MOL    H4540893   3.927   2.611   3.981 -0.1190  0.8318 -0.3173
  185MOL    C4640894   4.088   2.581   3.850  0.1804  0.0144  0.5790
  185MOL    C4740895   4.239   2.611   3.828 -0.4497  0.1378 -0.3538
  185MOL    O4840896   4.319   2.518   3.812  0.1213  0.0540  0.6537
  185MOL    C4940897   4.280   2.756   3.802  0.0739 -0.2185 -0.1600
  185MOL    C5040898   4.009   2.613   3.728  0.1656  0.2245  0.4472
  185MOL    H5140899   4.079   2.473   3.861 -0.9835  0.1783  1.3767
  185MOL    H5240900   4.250   2.832   3.875 -0.6872  1.4501 -2.1345
  185MOL    H5340901   4.389   2.756   3.801  0.1183  1.3104  1.6944
  185MOL    H5440902   4.243   2.792   3.706  1.4751 -0.3468 -0.7527
  185MOL    H5540903   4.076   2.613   3.642 -0.2606 -0.5562  0.1135
  185MOL    H5640904   3.959   2.709   3.743  0.8510  0.7844 -0.8089
  185MOL    C5740905   3.899   2.512   3.693 -0.5305  0.2704 -0.8796
  185MOL    C5840906   3.786   2.508   3.800  0.2176  0.0766  0.3374
  185MOL    O5940907   3.776   2.423   3.893  0.2568 -0.0441  0.2815
  185MOL    C6040908   3.692   2.627   3.793 -0.3936 -0.1295 -0.4908
  185MOL    C6140909   3.957   2.369   3.654  0.2613 -0.4862 -0.2351
  185MOL    H6240910   3.857   2.560   3.605 -0.8865  1.6776  0.0475
  185MOL    H6340911   3.602   2.611   3.853  1.4314 -0.5330  2.2259
  185MOL    H6440912   3.727   2.718   3.843  0.9652 -0.1221 -1.4210
  185MOL    H6540913   3.676   2.664   3.692  0.9889  3.8493  0.6287
  185MOL    H6640914   3.986   2.324   3.749  0.8528  1.5636  0.5646
  185MOL    H6740915   4.056   2.393   3.615 -0.7578  1.6072 -1.6335
  185MOL    C6840916   3.876   2.281   3.560 -0.1931  0.8360 -0.5734
  185MOL    C6940917   3.857   2.349   3.422 -0.6176 -0.0104 -0.0257
  185MOL    O7040918   3.746   2.351   3.360  0.2687 -0.5250  0.2884
  185MOL    C7140919   3.978   2.417   3.371 -0.9428 -0.1519  0.0660
  185MOL    C7240920   3.736   2.229   3.621 -0.4980 -0.6751  0.0629
  185MOL    H7340921   3.933   2.192   3.537 -0.3581  0.1281  1.6209
  185MOL    H7440922   4.000   2.509   3.424  2.7142 -0.4436 -0.7858
  185MOL    H7540923   4.069   2.357   3.382  0.8820  2.5292  0.2150
  185MOL    H7640924   3.967   2.438   3.264 -0.2518  0.3393  0.0862
  185MOL    H7740925   3.664   2.307   3.599  1.1161  0.9245  0.3791
  185MOL    H7840926   3.754   2.214   3.728  2.4803 -0.4769 -0.3543
  185MOL    C7940927   3.700   2.091   3.562 -0.4889  0.8522  0.1138
  185MOL    C8040928   3.548   2.081   3.578 -0.1271  1.0482 -0.0900
  185MOL    O8140929   3.496   2.012   3.657 -0.5200  0.3629  0.1495
  185MOL    C8240930   3.468   2.166   3.480 -0.1597 -0.5967  0.7045
  185MOL    C8340931   3.775   1.974   3.634  0.1519 -0.6753 -0.7286
  185MOL    H8440932   3.722   2.095   3.455  0.6069 -0.5763  0.2827
  185MOL    H8540933   3.495   2.131   3.381  1.7319 -1.6091  1.5317
  185MOL    H8640934   3.360   2.162   3.490 -0.2069  0.1785  0.5021
  185MOL    H8740935   3.489   2.273   3.486 -1.8151 -0.2768  0.9113
  185MOL    H8840936   3.756   1.968   3.742  0.3287  2.9963 -0.4277
  185MOL    H8940937   3.880   2.000   3.625  0.2782  0.0061  2.1570
  185MOL    C9040938   3.754   1.840   3.566  0.0500  0.4513  0.1604
  185MOL    C9140939   3.773   1.723   3.664 -0.0851  0.1596 -0.8028
  185MOL    O9240940   3.879   1.667   3.672 -0.3274  0.6982 -0.2128
  185MOL    C9340941   3.659   1.677   3.754  0.3833  0.4906  0.2486
  185MOL    C9440942   3.821   1.818   3.426 -0.6065 -0.0403 -0.3515
  185MOL    H9540943   3.646   1.832   3.551  0.0046 -0.6919  1.0584
  185MOL    H9640944   3.570   1.738   3.774 -0.6672 -1.0553  0.3739
  185MOL    H9740945   3.626   1.587   3.702 -1.9160  0.7965  1.1107
  185MOL    H9840946   3.713   1.641   3.841 -0.1281 -0.9016  0.0096
  185MOL    H9940947   3.852   1.714   3.414 -0.8487 -0.4565  2.3547
  185MOL   H10040948   3.913   1.876   3.432  0.1438 -1.4555  3.3743
  185MOL   C10140949   3.736   1.853   3.299 -1.1177  0.3369  0.3837
  185MOL   C10240950   3.605   1.767   3.306  0.1079  0.3992  0.1192
  185MOL   O10340951   3.616   1.645   3.307  0.4560 -0.2269 -0.2654
  185MOL   C10440952   3.461   1.835   3.316 -0.5967 -0.1758 -0.1518
  185MOL   C10540953   3.814   1.830   3.167 -0.8190 -0.1948 -0.0434
  185MOL   H10640954   3.716   1.960   3.300  1.1149  0.7677  1.2947
  185MOL   H10740955   3.439   1.923   3.255 -1.8575  0.5884  1.3741
  185MOL   H10840956   3.389   1.758   3.289 -1.3419  1.0948 -1.9218
  185MOL   H10940957   3.449   1.869   3.419 -0.8696 -2.5627  0.6247
  185MOL   H11040958   3.818   1.724   3.142  0.9305 -0.1685  0.0641
  185MOL   H11140959   3.919   1.860   3.165 -1.3444  1.6172 -1.9972
  185MOL   C11240960   3.759   1.890   3.036 -0.2431 -0.5076  0.7423
  185MOL   C11340961   3.846   1.856   2.917 -0.0562  1.4474 -0.6363
  185MOL   O11440962   3.957   1.806   2.932 -0.2783  0.3132 -0.3971
  185MOL   C11540963   3.771   1.848   2.781 -0.6868  1.0395 -0.5485
  185MOL   C11640964   3.741   2.049   3.046  0.1840 -0.5016 -0.3776
  185MOL   H11740965   3.658   1.854   3.021  0.1645 -1.0467 -0.7450
  185MOL   H11840966   3.667   1.814   2.784 -0.8001  1.3597 -0.8015
  185MOL   H11940967   3.777   1.947   2.736 -1.1979  1.1051 -0.4774
  185MOL   H12040968   3.828   1.780   2.719  0.6372  1.7130 -0.0906
  185MOL   H12140969   3.806   2.084   2.966 -1.0827  0.8326 -0.8351
  185MOL   H12240970   3.779   2.077   3.144 -1.7194  1.1744 -0.0898
  185MOL   C12340971   3.606   2.123   3.028 -0.1450  0.2496  0.3496
  185MOL   C12440972   3.519   2.070   2.916  0.7998 -0.0186 -0.5229
  185MOL   O12540973   3.431   1.987   2.932 -0.1512 -0.2211 -0.1414
  185MOL   C12640974   3.528   2.111   2.775  0.2163  0.5808 -0.1512
  185MOL   C12740975   3.611   2.276   3.044  0.6815  0.0166  0.4151
  185MOL   H12840976   3.542   2.089   3.109 -1.6746  1.5019 -0.2883
  185MOL   H12940977   3.468   2.200   2.758 -0.6577  0.3175  1.5013
  185MOL   H13040978   3.630   2.142   2.751  1.2155 -1.3518  1.3780
  185MOL   H13140979   3.493   2.034   2.707  1.0466  1.9505 -2.1602
  185MOL   H13240980   3.632   2.328   2.951  0.7782 -0.1408  0.3486
  185MOL   H13340981   3.701   2.294   3.103  0.7785 -1.6026  0.7677
  185MOL   C13440982   3.505   2.343   3.119  0.6802 -0.1994 -0.0029
  185MOL   C13540983   3.364   2.311   3.066 -0.3565  0.6101 -0.7196
  185MOL   O13640984   3.316   2.380   2.974  0.0884  0.2420  0.1215
  185MOL   C13740985   3.291   2.211   3.145  0.3444 -0.2190 -0.2917
  185MOL   C13840986   3.543   2.500   3.117  0.1227  0.3654 -1.0486
  185MOL   H13940987   3.514   2.332   3.227  0.4065  0.9852  0.1475
  185MOL   H14040988   3.286   2.248   3.247  1.1314  2.8585 -1.3241
  185MOL   H14140989   3.185   2.204   3.119  0.1501 -0.8713  0.6266
  185MOL   H14240990   3.339   2.113   3.138 -1.5828 -1.3465  1.5330
  185MOL   H14340991   3.548   2.530   3.012  1.5112 -0.5263 -1.2616
  185MOL   H14440992   3.642   2.511   3.163 -1.1063 -3.7326  2.8619
  185MOL   C14540993   3.444   2.593   3.198  0.0995 -0.5810  0.0324
  185MOL   C14640994   3.462   2.740   3.151  0.2971  0.1820 -0.2175
  185MOL   O14740995   3.374   2.820   3.131 -0.0899 -0.1302 -0.2816
  185MOL   C14840996   3.608   2.794   3.139 -0.2750  0.4803  0.4510
  185MOL   C14940997   3.466   2.572   3.353  0.9095 -0.2458 -0.5653
  185MOL   H15040998   3.339   2.568   3.195 -0.1839  0.3113  1.7226
  185MOL   H15140999   3.635   2.846   3.231  1.1162  0.1221  0.2543
  185MOL   H15241000   3.681   2.722   3.103 -0.5190  0.5770 -0.2531
  185MOL   H15341001   3.611   2.873   3.063  1.8348  0.2208  0.2291
  185MOL   H15441002   3.569   2.593   3.378 -0.0593  1.4348  2.2268
  185MOL   H15541003   3.454   2.466   3.376 -0.8296 -0.2068 -1.1487
  185MOL   C15641004   3.372   2.645   3.457 -0.0003  0.3965 -0.1481
  185MOL   C15741005   3.423   2.787   3.472 -0.2560 -0.4771 -0.1172
  185MOL   O15841006   3.544   2.822   3.489  0.1816 -0.2108  0.2476
  185MOL   C15941007   3.315   2.900   3.460 -0.1130  0.9363  0.7205
  185MOL   C16041008   3.371   2.566   3.591 -0.0991 -0.8073 -0.3305
  185MOL   H16141009   3.272   2.640   3.414  0.0074 -1.8681  0.0072
  185MOL   H16241010   3.220   2.855   3.489  0.8117 -1.7738 -0.2023
  185MOL   H16341011   3.345   2.980   3.527 -0.2387  0.2997  1.5446
  185MOL   H16441012   3.316   2.937   3.357  1.1351  0.3854  0.5319
  185MOL   H16541013   3.473   2.565   3.630 -0.8838 -0.3787  1.7897
  185MOL   H16641014   3.355   2.467   3.548 -0.3022 -0.0913 -1.9745
  185MOL   C16741015   3.265   2.599   3.708 -0.5396 -0.1667  0.6533
  185MOL   C16841016   3.119   2.606   3.659  0.4440 -0.3130 -0.0365
  185MOL   O16941017   3.074   2.712   3.623 -0.1247  0.2785 -0.5667
  185MOL   C17041018   3.037   2.483   3.657 -0.1377  0.9301 -0.2314
  185MOL   C17141019   3.314   2.726   3.783  0.3945 -0.0616  0.5414
  185MOL   H17241020   3.262   2.513   3.775 -1.0064 -0.7820 -0.1454
  185MOL   H17341021   3.101   2.404   3.617  0.8854  2.2288 -1.2045
  185MOL   H17441022   3.023   2.453   3.761 -1.8433 -1.2020 -1.0372
  185MOL   H17541023   2.937   2.480   3.613 -0.7349 -3.0425  1.0892
  185MOL   H17641024   3.289   2.815   3.726 -0.9341 -1.6665 -1.4541
  185MOL   H17741025   3.423   2.721   3.791  0.4140 -0.6976 -0.0843
  185MOL   C17841026   3.263   2.752   3.922  0.5171  0.5701 -0.3212
  185MOL   C17941027   3.328   2.649   4.015 -0.8247  0.1438  0.1004
  185MOL   O18041028   3.275   2.540   4.041  0.3025 -0.1023 -0.3164
  185MOL   C18141029   3.456   2.693   4.078 -0.2232 -0.4089  0.2047
  185MOL   C18241030   3.110   2.766   3.938  0.2657 -0.4858 -0.0069
  185MOL   H18341031   3.303   2.847   3.958 -0.1326  0.6086  0.3123
  185MOL   H18441032   3.460   2.691   4.187  0.1886 -0.8393  0.1868
  185MOL   H18541033   3.535   2.626   4.043 -0.4340 -1.1083  1.0477
  185MOL   H18641034   3.494   2.789   4.044  0.1310 -1.4269 -2.3977
  185MOL   H18741035   3.049   2.680   3.909 -1.0365  0.6665 -0.7805
  185MOL   H18841036   3.087   2.848   3.870  2.4512  0.2816  0.1270
  185MOL   C18941037   3.060   2.799   4.083  0.0468  0.4456 -0.5152
  185MOL   C19041038   2.910   2.798   4.104 -0.8996  0.4164  1.0618
  185MOL   O19141039   2.867   2.717   4.182  0.3743 -0.6088 -0.1738
  185MOL   C19241040   2.827   2.911   4.045  0.3033 -0.5732  0.0969
  185MOL   C19341041   3.114   2.939   4.121  0.0008  0.1642 -0.5157
  185MOL   H19441042   3.107   2.716   4.137  1.3375  0.7165 -1.2022
  185MOL   H19541043   2.728   2.873   4.018  0.3343  0.7100 -1.9480
  185MOL   H19641044   2.824   2.998   4.111 -0.0162 -2.3265  2.4524
  185MOL   H19741045   2.868   2.944   3.949  0.6017  2.6682  1.2779
  185MOL   H19841046   3.068   3.026   4.074  0.9701  1.7876  1.4565
  185MOL   H19941047   3.217   2.948   4.089 -0.4422  0.1825 -1.9603
  185MOL   C20041048   3.115   2.964   4.275  0.1553 -0.1614  0.3989
  185MOL   C20141049   3.129   3.112   4.312  0.8732  0.6770 -0.2816
  185MOL   O20241050   3.028   3.190   4.305  1.1092 -0.8048 -0.9839
  185MOL   C20341051   3.265   3.162   4.367 -0.7907  0.0878 -0.0744
  185MOL   C20441052   3.197   2.874   4.367  0.8533  0.2899  0.0582
  185MOL   H20541053   3.009   2.953   4.296 -0.0260 -0.3510 -0.5826
  185MOL   H20641054   3.270   3.270   4.382 -1.8384  0.1964 -0.4319
  185MOL   H20741055   3.285   3.115   4.463 -1.9764  2.0434  1.1640
  185MOL   H20841056   3.346   3.125   4.305 -0.5071  0.0054  0.3450
  185MOL   H20941057   3.304   2.894   4.365  1.0726 -0.8961 -0.8929
  185MOL   H21041058   3.203   2.774   4.325  0.3735 -0.7927  2.4382
  185MOL   C21141059   3.142   2.871   4.514  0.5492  0.5622  0.0595
  185MOL   C21241060   3.238   2.815   4.619  0.7985  0.0734 -0.3130
  185MOL   O21341061   3.276   2.875   4.713 -0.4370  0.7231 -0.1832
  185MOL   C21441062   3.289   2.677   4.588 -0.5513  0.5318  0.2763
  185MOL   C21541063   3.003   2.813   4.533  0.6589  0.1357  0.5347
  185MOL   H21641064   3.128   2.974   4.547 -1.7434  0.5723 -0.8381
  185MOL   H21741065   3.266   2.603   4.665 -0.5647 -0.9959 -1.1650
  185MOL   H21841066   3.255   2.647   4.489  1.6066  0.4668 -0.4735
  185MOL   H21941067   3.398   2.685   4.583 -0.6594  2.1561  0.1025
  185MOL   H22041068   2.975   2.795   4.636  0.3562  0.2016  0.4632
  185MOL   H22141069   2.996   2.723   4.471  0.2451 -1.1895  2.4913
  185MOL   H22241070   2.931   2.885   4.495 -0.3256 -0.0302  2.0806
  186MOL     C141071   1.944   6.962   6.436 -0.5876  0.5465  0.0905
  186MOL     C241072   2.051   7.037   6.510  0.3323  0.6427 -0.0368
  186MOL     O341073   2.171   7.015   6.498 -0.0809  0.5924  0.3512
  186MOL     C441074   1.999   7.149   6.605 -0.1567  0.1541 -0.8977
  186MOL     C541075   1.993   6.850   6.345 -0.0649  0.6860  1.0937
  186MOL     H641076   1.881   6.928   6.518  0.1927  1.3417  1.0241
  186MOL     H741077   1.903   7.183   6.568 -1.2269 -0.4996  1.2197
  186MOL     H841078   1.994   7.115   6.709  2.2683  1.5334 -0.2880
  186MOL     H941079   2.061   7.239   6.607  0.4244 -0.1955  3.6922
  186MOL    H1041080   1.918   6.774   6.370 -0.9449  1.5164  0.9908
  186MOL    H1141081   2.084   6.818   6.395  0.2132  1.0468  0.8145
  186MOL    H1241082   1.884   7.030   6.375  0.0780  1.0356 -0.0175
  186MOL    C1341083   2.005   6.859   6.185 -0.5113 -0.5605 -0.7024
  186MOL    C1441084   2.094   6.978   6.149 -0.9814  0.2124 -0.3782
  186MOL    O1541085   2.068   7.093   6.189 -0.1026  0.6834  0.5093
  186MOL    C1641086   2.209   6.956   6.054  0.2364 -0.4709  0.2361
  186MOL    C1741087   1.865   6.878   6.125 -0.3064 -0.4589 -0.1428
  186MOL    H1841088   2.051   6.767   6.150  1.2426  1.1049 -2.9525
  186MOL    H1941089   2.268   7.048   6.052 -0.2479 -0.1531 -2.6424
  186MOL    H2041090   2.279   6.877   6.080  1.1935  0.1908 -0.2716
  186MOL    H2141091   2.167   6.942   5.954  0.8770 -0.9250  0.0275
  186MOL    H2241092   1.836   6.976   6.161  2.1378  0.6262 -0.9870
  186MOL    H2341093   1.793   6.807   6.167 -0.4991  1.0237  2.0800
  186MOL    C2441094   1.854   6.887   5.972  0.9660  0.2058  0.2835
  186MOL    C2541095   1.711   6.924   5.938  0.7979 -0.5083 -0.1797
  186MOL    O2641096   1.635   6.835   5.908 -0.4715 -0.1547 -0.4792
  186MOL    C2741097   1.648   7.058   5.978  0.0720  0.1225  0.2179
  186MOL    C2841098   1.910   6.756   5.913 -0.0186 -0.6030 -0.0667
  186MOL    H2941099   1.921   6.968   5.945  1.0599 -0.0952 -0.3711
  186MOL    H3041100   1.562   7.084   5.916  0.3617  0.7861  0.0840
  186MOL    H3141101   1.625   7.062   6.084  2.0114  1.4505  0.6241
  186MOL    H3241102   1.715   7.142   5.959 -2.3850  2.2029  0.6477
  186MOL    H3341103   1.864   6.669   5.961 -0.6341  0.7754  1.8841
  186MOL    H3441104   2.015   6.747   5.944 -0.1393  0.1468  0.5711
  186MOL    C3541105   1.904   6.746   5.760  0.8832  0.2315  0.2500
  186MOL    C3641106   1.954   6.606   5.722  0.1287  0.5873 -0.0344
  186MOL    O3741107   2.071   6.582   5.711 -0.1027 -0.3544  0.1452
  186MOL    C3841108   1.845   6.504   5.687 -0.3118  0.0314 -0.5297
  186MOL    C3941109   1.972   6.859   5.685  0.4362 -0.3804 -0.3725
  186MOL    H4041110   1.797   6.744   5.739  0.7452 -1.2553  0.9953
  186MOL    H4141111   1.847   6.433   5.769 -0.3542  0.3031 -0.2932
  186MOL    H4241112   1.750   6.559   5.689 -0.2229  0.1585  2.1997
  186MOL    H4341113   1.863   6.434   5.605  0.4035 -0.7858  0.3210
  186MOL    H4441114   2.078   6.870   5.706  0.1508  0.3248  0.7679
  186MOL    H4541115   1.948   6.955   5.731  1.1619  0.4211 -1.6350
  186MOL    C4641116   1.959   6.871   5.533 -0.1745 -0.0079  0.6630
  186MOL    C4741117   2.079   6.947   5.471 -0.3924  0.1444 -0.4030
  186MOL    O4841118   2.088   7.066   5.500 -0.2813  0.4691 -0.3180
  186MOL    C4941119   2.166   6.861   5.387 -0.3903  1.0051  0.2241
  186MOL    C5041120   1.824   6.939   5.491 -0.8197  0.4611 -0.2291
  186MOL    H5141121   1.962   6.771   5.489 -0.8043  0.1673  0.2187
  186MOL    H5241122   2.133   6.758   5.373  0.4726  0.5787  1.2587
  186MOL    H5341123   2.181   6.906   5.289  0.0191  0.5257  0.0600
  186MOL    H5441124   2.267   6.854   5.428 -0.0493 -2.4214 -0.9987
  186MOL    H5541125   1.842   6.994   5.399  1.7964 -1.1322 -0.7200
  186MOL    H5641126   1.792   7.019   5.557  1.0843  0.5291  0.6466
  186MOL    C5741127   1.703   6.849   5.463 -0.3675  0.2236  0.6761
  186MOL    C5841128   1.730   6.750   5.349 -0.0639 -0.0652  0.3479
  186MOL    O5941129   1.813   6.774   5.264  0.6399 -0.9182 -0.4304
  186MOL    C6041130   1.651   6.617   5.343  0.3549 -0.6355  0.5021
  186MOL    C6141131   1.569   6.925   5.442  0.1928  0.0554  0.3900
  186MOL    H6241132   1.694   6.788   5.553  1.6547 -0.8307  0.2062
  186MOL    H6341133   1.546   6.646   5.348  0.4890  0.1338 -0.9404
  186MOL    H6441134   1.672   6.562   5.251 -1.9105  0.2077 -0.5565
  186MOL    H6541135   1.680   6.546   5.421 -0.9900 -0.9207  0.7623
  186MOL    H6641136   1.500   6.859   5.390 -0.8025  0.4521  1.2035
  186MOL    H6741137   1.572   7.012   5.375 -1.7241 -1.0673 -1.2218
  186MOL    C6841138   1.496   6.952   5.571 -0.4029  0.4400  0.4261
  186MOL    C6941139   1.437   6.827   5.638 -0.5029 -0.1290 -0.9747
  186MOL    O7041140   1.460   6.712   5.604 -0.4813 -0.1961  0.8716
  186MOL    C7141141   1.349   6.840   5.761 -0.2161 -0.1012  0.3933
  186MOL    C7241142   1.386   7.057   5.547  0.5955  0.9129  0.4249
  186MOL    H7341143   1.568   6.990   5.644 -0.0266  0.2966  0.1303
  186MOL    H7441144   1.242   6.836   5.741  0.1698  0.1389 -1.7825
  186MOL    H7541145   1.372   6.764   5.836 -0.2805 -0.2012  0.3090
  186MOL    H7641146   1.358   6.939   5.806  1.1791 -0.4346  0.8886
  186MOL    H7741147   1.318   7.058   5.631  0.0153  1.9249 -0.0412
  186MOL    H7841148   1.320   7.008   5.476 -1.5041  1.8668  1.6862
  186MOL    C7941149   1.424   7.202   5.494  0.1240 -0.3030  0.2574
  186MOL    C8041150   1.536   7.262   5.578  0.2254 -0.0608  0.2644
  186MOL    O8141151   1.548   7.240   5.698 -0.2744 -0.0323 -0.2891
  186MOL    C8241152   1.625   7.370   5.515 -0.0320  0.3144 -0.4896
  186MOL    C8341153   1.311   7.293   5.468 -0.2391  0.0304 -0.2099
  186MOL    H8441154   1.479   7.194   5.401 -0.1591  0.3893  0.0337
  186MOL    H8541155   1.668   7.426   5.598  2.2793 -1.1298 -0.6883
  186MOL    H8641156   1.701   7.323   5.452 -0.0905 -0.7968  0.2697
  186MOL    H8741157   1.563   7.427   5.445  0.0007  0.1263 -0.6725
  186MOL    H8841158   1.255   7.250   5.385 -0.3865 -0.9903  0.3990
  186MOL    H8941159   1.354   7.378   5.416  2.1770 -1.1332 -0.1841
  186MOL    C9041160   1.237   7.355   5.593 -0.2213  0.6868  0.1199
  186MOL    C9141161   1.142   7.255   5.649  0.7129  1.0293  0.2609
  186MOL    O9241162   1.072   7.178   5.580 -0.0504 -0.0348  0.0619
  186MOL    C9341163   1.139   7.249   5.800  0.1337 -0.3073 -0.4451
  186MOL    C9441164   1.173   7.491   5.566 -0.0471  0.5347 -0.8400
  186MOL    H9541165   1.318   7.369   5.665  1.0364  1.2174 -1.3618
  186MOL    H9641166   1.102   7.152   5.833 -1.8690  0.3251 -0.7578
  186MOL    H9741167   1.237   7.257   5.846  1.2931 -1.2512 -2.7020
  186MOL    H9841168   1.082   7.333   5.840  1.6431  0.9012 -0.8310
  186MOL    H9941169   1.091   7.500   5.637  0.8160  0.4387  0.1783
  186MOL   H10041170   1.106   7.490   5.480 -1.6126 -1.8476  0.3278
  186MOL   C10141171   1.273   7.611   5.565  0.1382  0.0249  0.2978
  186MOL   C10241172   1.309   7.654   5.708  0.7599  0.4285  0.7167
  186MOL   O10341173   1.227   7.716   5.782  0.5560  0.6231 -0.0323
  186MOL   C10441174   1.447   7.626   5.768 -0.6662  0.1428 -0.1296
  186MOL   C10541175   1.199   7.728   5.488  0.1366 -0.0294 -0.2107
  186MOL   H10641176   1.361   7.593   5.503 -1.8795 -1.1562 -2.2996
  186MOL   H10741177   1.509   7.713   5.747 -0.7725  0.3704  0.4983
  186MOL   H10841178   1.447   7.607   5.875 -2.0843  0.5216 -0.0615
  186MOL   H10941179   1.494   7.541   5.718  0.7572  0.4447  0.6553
  186MOL   H11041180   1.093   7.721   5.512 -0.6371 -2.9023 -4.0489
  186MOL   H11141181   1.202   7.719   5.380  2.4158  1.9091 -0.3544
  186MOL   C11241182   1.244   0.035   5.490 -0.0116  0.6226 -0.2537
  186MOL   C11341183   1.397   0.046   5.463 -0.0584  0.3337  0.1276
  186MOL   O11441184   1.473   0.084   5.549 -0.6117 -1.0480  0.3263
  186MOL   C11541185   1.441   0.030   5.316  0.1727  0.5573  0.0653
  186MOL   C11641186   1.203   0.132   5.604 -0.8190 -0.2440 -0.1810
  186MOL   H11741187   1.187   0.078   5.407  1.3153  1.3461 -0.8033
  186MOL   H11841188   1.356   0.050   5.250  0.6959  3.9873  0.3417
  186MOL   H11941189   1.516   0.104   5.289  0.9328  1.2996  3.9323
  186MOL   H12041190   1.459   7.769   5.284 -1.3199 -0.0750  1.1983
  186MOL   H12141191   1.231   0.234   5.581  0.4341  0.2624  3.3088
  186MOL   H12241192   1.260   0.099   5.690 -1.3670  1.7203  0.9600
  186MOL   C12341193   1.057   0.132   5.634 -0.0228 -0.2677  0.0292
  186MOL   C12441194   0.975   0.200   5.524 -0.1034  0.4192 -0.1122
  186MOL   O12541195   0.988   0.325   5.506 -0.4964 -0.3709  0.7160
  186MOL   C12641196   0.901   0.107   5.426 -0.3045 -1.0665  0.0738
  186MOL   C12741197   1.034   0.193   5.776 -0.2555  0.7031  0.5342
  186MOL   H12841198   1.020   0.031   5.650 -0.6197 -0.0638 -0.0261
  186MOL   H12941199   0.967   0.072   5.347  2.3769 -0.0680  1.8181
  186MOL   H13041200   0.843   0.024   5.468 -2.2403 -1.5710 -3.4164
  186MOL   H13141201   0.830   0.174   5.378  2.0146  2.3720  1.3043
  186MOL   H13241202   1.037   0.300   5.755  0.3602  0.3794 -1.0419
  186MOL   H13341203   1.118   0.162   5.839  1.7400 -0.5675 -2.6663
  186MOL   C13441204   0.904   0.169   5.861 -0.1808 -0.0065  0.1538
  186MOL   C13541205   0.883   0.299   5.942 -0.1631 -0.6635 -0.0978
  186MOL   O13641206   0.777   0.364   5.929 -0.3814  0.5930 -0.2486
  186MOL   C13741207   0.990   0.342   6.040 -0.7689  0.6255  0.6374
  186MOL   C13841208   0.911   0.045   5.952 -0.8668  0.2142 -0.0316
  186MOL   H13941209   0.819   0.167   5.792 -0.0181 -0.0069 -0.0461
  186MOL   H14041210   0.977   0.298   6.139 -0.8042 -1.0545 -0.1020
  186MOL   H14141211   1.088   0.308   6.006 -1.0329  2.0757 -1.6954
  186MOL   H14241212   0.973   0.450   6.039 -1.7785  0.4694 -2.1457
  186MOL   H14341213   0.895   0.066   6.058 -0.5308 -0.2320  0.1108
  186MOL   H14441214   1.010   0.000   5.942 -1.4738 -1.3998  0.9855
  186MOL   C14541215   0.804   7.781   5.921 -0.3553 -0.7708  0.6630
  186MOL   C14641216   0.790   7.736   5.779  0.1064  0.2932 -0.3073
  186MOL   O14741217   0.725   7.799   5.691  0.0885  0.1188 -0.2760
  186MOL   C14841218   0.874   7.617   5.740 -0.3715 -0.0872  0.0360
  186MOL   C14941219   0.661   7.811   5.975 -0.3164  0.1969 -0.1220
  186MOL   H15041220   0.848   7.696   5.973  1.2366 -0.8980 -0.8458
  186MOL   H15141221   0.803   7.538   5.716  0.7305 -1.4226  1.0522
  186MOL   H15241222   0.937   7.636   5.653 -0.1166 -1.2654 -0.0472
  186MOL   H15341223   0.943   7.585   5.819 -1.2959 -1.4125  0.3234
  186MOL   H15441224   0.629   0.058   5.921  1.0448  0.5189 -0.3990
  186MOL   H15541225   0.655   0.006   6.078 -1.2638 -2.2087  0.7214
  186MOL   C15641226   0.561   7.698   5.958 -0.0291  0.3526  0.1206
  186MOL   C15741227   0.421   7.744   5.942 -0.5381  0.2142 -0.0837
  186MOL   O15841228   0.331   7.740   6.026  0.0361  0.5889 -0.3859
  186MOL   C15941229   0.381   7.784   5.796  0.1402 -0.8515 -0.0511
  186MOL   C16041230   0.576   7.598   6.075  0.0158 -0.4280 -0.0644
  186MOL   H16141231   0.570   7.641   5.866 -5.0959  0.7223 -0.7767
  186MOL   H16241232   0.469   7.772   5.733  0.6472 -0.3305  0.5638
  186MOL   H16341233   0.299   7.715   5.776  0.1493 -1.0773  0.6791
  186MOL   H16441234   0.343   0.044   5.804  0.3063 -0.6270 -1.8840
  186MOL   H16541235   0.568   7.654   6.169 -0.0328  0.0017 -0.3257
  186MOL   H16641236   0.684   7.586   6.082  0.0318 -0.6778 -0.7597
  186MOL   C16741237   0.502   7.461   6.067  0.3840 -0.8191  0.4551
  186MOL   C16841238   0.417   7.433   6.198 -0.0147  0.2846  0.1028
  186MOL   O16941239   0.481   7.402   6.300 -0.5898  0.0461 -0.7014
  186MOL   C17041240   0.274   7.471   6.214 -0.0688 -0.7009 -0.6914
  186MOL   C17141241   0.573   7.342   6.007  0.8819  0.1008  0.1727
  186MOL   H17241242   0.419   7.474   5.998  2.4391  1.2714 -1.7185
  186MOL   H17341243   0.248   7.524   6.123 -0.8432  0.2788  0.0853
  186MOL   H17441244   0.212   7.383   6.233 -0.0870 -0.6912 -0.7093
  186MOL   H17541245   0.263   7.541   6.297  2.2851  3.0959 -3.4342
  186MOL   H17641246   0.616   7.381   5.915  2.2043 -0.4859  0.5219
  186MOL   H17741247   0.497   7.273   5.970  0.7113  0.5829 -0.3596
  186MOL   C17841248   0.685   7.268   6.088 -0.7826  0.3073  0.5619
  186MOL   C17941249   0.829   7.325   6.070  0.1684  1.3685  0.2085
  186MOL   O18041250   0.854   7.382   5.965 -0.3144  0.0534  0.2455
  186MOL   C18141251   0.928   7.301   6.177  0.4084  0.5184  0.2557
  186MOL   C18241252   0.693   7.115   6.088  0.6514  0.0842  0.1239
  186MOL   H18341253   0.670   7.300   6.191  1.3697  0.9070  0.7121
  186MOL   H18441254   1.000   7.224   6.148 -0.4228 -1.0214  2.1477
  186MOL   H18541255   0.980   7.394   6.200 -1.5293  1.7415 -0.1559
  186MOL   H18641256   0.880   7.250   6.260  0.4694 -0.3838 -0.2626
  186MOL   H18741257   0.599   7.071   6.123  0.3865  0.8313  0.3779
  186MOL   H18841258   0.760   7.078   6.166 -0.1656 -3.3664 -0.7217
  186MOL   C18941259   0.747   7.035   5.962  0.3213 -0.7099  0.2009
  186MOL   C19041260   0.677   7.062   5.827 -0.6101 -0.7165 -0.6781
  186MOL   O19141261   0.574   7.004   5.793 -0.1497 -0.2148  0.2868
  186MOL   C19241262   0.748   7.153   5.733 -0.1108 -0.0013  0.6423
  186MOL   C19341263   0.741   6.879   5.999 -0.1159 -0.1535 -0.0336
  186MOL   H19441264   0.848   7.066   5.937  0.2644 -0.3319  0.4484
  186MOL   H19541265   0.765   7.116   5.632  1.1532 -1.2032  1.2593
  186MOL   H19641266   0.671   7.230   5.728 -0.6246 -0.3997  2.1733
  186MOL   H19741267   0.839   7.193   5.778  0.3974 -1.9174  1.3922
  186MOL   H19841268   0.637   6.858   6.025  0.6729 -0.7491  2.8359
  186MOL   H19941269   0.802   6.862   6.087  2.1891  1.7280 -1.2010
  186MOL   C20041270   0.770   6.776   5.884  0.1297 -0.7018 -0.0233
  186MOL   C20141271   0.770   6.639   5.947  0.2605  0.2264  0.0680
  186MOL   O20241272   0.870   6.571   5.969  0.1225  0.4794 -0.3062
  186MOL   C20341273   0.632   6.576   5.966 -0.3676  0.5489  0.3166
  186MOL   C20441274   0.906   6.805   5.806  0.2723  0.3838  0.0905
  186MOL   H20541275   0.687   6.786   5.813 -1.1713 -1.5080  1.3507
  186MOL   H20641276   0.636   6.471   5.938 -0.0311  0.2490  1.4439
  186MOL   H20741277   0.607   6.566   6.072  0.4866 -1.2172  0.3646
  186MOL   H20841278   0.555   6.620   5.902 -0.0862 -0.0287 -0.4190
  186MOL   H20941279   0.969   6.716   5.814  0.7131  0.5292 -1.5492
  186MOL   H21041280   0.964   6.886   5.849  2.7074 -0.4613 -1.5278
  186MOL   C21141281   0.879   6.809   5.654 -0.3733 -0.8366 -0.1660
  186MOL   C21241282   0.809   6.685   5.593  0.3369  1.2985 -0.5861
  186MOL   O21341283   0.692   6.683   5.557 -0.0715  0.0263 -0.3157
  186MOL   C21441284   0.887   6.551   5.598  0.3103 -0.5113  0.4094
  186MOL   C21541285   1.012   6.844   5.577 -0.2024  0.3657  0.2529
  186MOL   H21641286   0.805   6.888   5.639 -2.1298 -2.2202  1.0852
  186MOL   H21741287   0.915   6.515   5.499 -1.6318  0.4900 -0.5336
  186MOL   H21841288   0.977   6.559   5.659  0.0880  1.0828  0.5442
  186MOL   H21941289   0.823   6.471   5.635 -0.0245 -0.4801 -0.0951
  186MOL   H22041290   1.080   6.759   5.587  0.8359  1.4700  2.9242
  186MOL   H22141291   1.062   6.935   5.610  0.5907  0.2103 -0.5028
  186MOL   H22241292   0.979   6.863   5.475  0.8906 -0.9955 -0.3695
  187MOL     C141293   7.468   1.258   4.635 -0.2998  0.3190  0.2212
  187MOL     C241294   7.462   1.143   4.538 -0.3088  0.4710  0.2677
  187MOL     O341295   7.517   1.035   4.561 -0.0856  0.2757  0.2424
  187MOL     C441296   7.396   1.168   4.401  0.1484  0.1546  0.3181
  187MOL     C541297   7.386   1.230   4.763 -0.4708  0.3694  0.0620
  187MOL     H641298   7.574   1.267   4.656 -0.0506 -0.9627 -0.4384
  187MOL     H741299   7.363   1.068   4.374  0.0048  1.2696 -3.9901
  187MOL     H841300   7.310   1.234   4.415  0.1084  0.2817 -0.4998
  187MOL     H941301   7.461   1.215   4.327  0.6322 -1.6408 -0.4184
  187MOL    H1041302   7.416   1.311   4.829  1.1003  1.4937 -1.9310
  187MOL    H1141303   7.417   1.138   4.812 -2.5590  0.0449  0.7928
  187MOL    H1241304   7.442   1.352   4.587 -2.8395 -1.1313 -1.3288
  187MOL    C1341305   7.235   1.239   4.750  0.4084 -0.4370  0.6485
  187MOL    C1441306   7.178   1.358   4.675 -0.3958  0.5799  0.1777
  187MOL    O1541307   7.146   1.346   4.557  0.8930  0.4052 -0.1559
  187MOL    C1641308   7.176   1.484   4.758  0.0964  0.0915  0.3388
  187MOL    C1741309   7.172   1.222   4.886 -0.0148 -0.0982  0.4780
  187MOL    H1841310   7.201   1.152   4.693 -0.7957  0.1718  0.4232
  187MOL    H1941311   7.098   1.552   4.723 -0.6724 -1.1838 -0.4998
  187MOL    H2041312   7.158   1.468   4.864 -2.9748 -2.2818 -0.4523
  187MOL    H2141313   7.274   1.532   4.761  0.4219 -0.5372 -0.1825
  187MOL    H2241314   7.210   1.289   4.963  3.4199 -1.0812 -0.2453
  187MOL    H2341315   7.203   1.124   4.922  0.0487 -0.5544 -0.7997
  187MOL    C2441316   7.019   1.232   4.890  0.6119  0.2476 -0.5827
  187MOL    C2541317   6.987   1.238   5.044  0.2627  0.1752  0.3263
  187MOL    O2641318   6.903   1.315   5.082  0.1722 -0.0958  0.1086
  187MOL    C2741319   7.050   1.141   5.149 -0.1150 -0.0593  0.6408
  187MOL    C2841320   6.940   1.122   4.810 -0.2425  0.6859 -0.2664
  187MOL    H2941321   6.989   1.329   4.852  0.4457 -0.1116 -1.3923
  187MOL    H3041322   7.083   1.048   5.104 -0.9718 -0.7763  1.4715
  187MOL    H3141323   7.136   1.188   5.198 -0.8709  0.8233  1.1329
  187MOL    H3241324   6.975   1.125   5.226  1.6769 -0.9878  2.2559
  187MOL    H3341325   6.864   1.080   4.878 -0.8428  0.9442 -0.7747
  187MOL    H3441326   7.011   1.044   4.784 -0.8167  0.2249 -0.4718
  187MOL    C3541327   6.865   1.149   4.672 -0.0199 -0.5538  0.4868
  187MOL    C3641328   6.742   1.238   4.686  0.4560 -0.1499 -0.2355
  187MOL    O3741329   6.628   1.195   4.713  0.1476 -0.1112  0.3578
  187MOL    C3841330   6.766   1.388   4.668 -0.5335 -0.1616 -0.0314
  187MOL    C3941331   6.829   1.014   4.598 -0.0776 -0.5094 -0.9881
  187MOL    H4041332   6.941   1.200   4.612 -0.6763  0.4475  0.4975
  187MOL    H4141333   6.767   1.443   4.762  0.2786 -0.5990  0.2230
  187MOL    H4241334   6.869   1.396   4.632 -0.5966 -1.6726 -0.5770
  187MOL    H4341335   6.704   1.443   4.598 -0.0230  2.3859  1.4382
  187MOL    H4441336   6.735   0.970   4.631 -0.1107 -0.1126 -0.5551
  187MOL    H4541337   6.908   0.939   4.610 -0.1840 -0.3817  0.6216
  187MOL    C4641338   6.815   1.042   4.441  0.0807 -0.4276 -0.7779
  187MOL    C4741339   6.723   0.939   4.378 -0.3191 -0.6313  0.0530
  187MOL    O4841340   6.756   0.822   4.363  0.0654 -0.4712 -0.3429
  187MOL    C4941341   6.591   1.002   4.331 -0.2923  0.0500 -0.0633
  187MOL    C5041342   6.953   1.051   4.371  0.7474 -0.1501  0.0190
  187MOL    H5141343   6.778   1.143   4.427 -0.3652 -0.2898  1.1583
  187MOL    H5241344   6.627   1.101   4.305  0.3841 -0.4446 -1.0579
  187MOL    H5341345   6.571   0.963   4.231  1.7706  1.9764 -1.2749
  187MOL    H5441346   6.509   0.986   4.401 -0.3821 -1.5588 -0.5027
  187MOL    H5541347   7.003   0.957   4.395 -1.6349 -1.4414  0.0916
  187MOL    H5641348   7.016   1.122   4.425  1.3078  0.1764 -1.0587
  187MOL    C5741349   6.960   1.063   4.212  0.1883 -0.2334 -0.0470
  187MOL    C5841350   7.111   1.056   4.168 -0.4670  0.4755  0.3870
  187MOL    O5941351   7.168   1.159   4.134 -0.3375 -0.3609  0.3323
  187MOL    C6041352   7.178   0.918   4.180 -0.4772 -0.0055  0.3124
  187MOL    C6141353   6.881   1.181   4.148 -0.3486 -0.5405 -0.0052
  187MOL    H6241354   6.906   0.973   4.186 -0.1667  0.3339 -1.2973
  187MOL    H6341355   7.273   0.928   4.233 -1.0904 -0.6180  1.5644
  187MOL    H6441356   7.121   0.841   4.232 -1.3520  0.3186 -0.1593
  187MOL    H6541357   7.203   0.894   4.077  1.0565  1.2487  0.3714
  187MOL    H6641358   6.936   1.274   4.160  1.6819 -1.5370 -1.2537
  187MOL    H6741359   6.793   1.192   4.211  0.6421 -0.1236  1.3034
  187MOL    C6841360   6.827   1.164   3.997  0.3537  1.3393 -0.0106
  187MOL    C6941361   6.741   1.045   3.963  0.7186  0.3822  0.1627
  187MOL    O7041362   6.790   0.930   3.958 -0.0164  0.9306  0.3872
  187MOL    C7141363   6.591   1.059   3.954  0.3486 -0.2553 -0.4913
  187MOL    C7241364   6.933   1.198   3.889 -0.2608  0.3249 -0.0054
  187MOL    H7341365   6.765   1.253   3.997 -1.8217 -0.1138  1.8322
  187MOL    H7441366   6.564   1.131   3.877 -2.8995 -2.3446 -1.4102
  187MOL    H7541367   6.541   0.971   3.913 -4.1933  2.0324 -0.0965
  187MOL    H7641368   6.533   1.085   4.042 -0.6545 -1.1224 -0.8807
  187MOL    H7741369   6.979   1.108   3.849 -1.3028 -0.1476 -0.1327
  187MOL    H7841370   7.015   1.245   3.944  0.8448 -1.6699  0.1110
  187MOL    C7941371   6.879   1.307   3.785  0.3532  0.2652  0.1320
  187MOL    C8041372   6.784   1.234   3.690 -0.0191 -0.6085 -0.3940
  187MOL    O8141373   6.661   1.260   3.692  0.0665 -0.1681  0.4932
  187MOL    C8241374   6.843   1.135   3.583 -0.3022  0.7532 -0.0794
  187MOL    C8341375   6.993   1.384   3.713  0.0239  0.0216  0.5187
  187MOL    H8441376   6.815   1.380   3.836 -1.1950 -0.1618 -1.2001
  187MOL    H8541377   6.760   1.118   3.515  0.2616  3.1326 -1.4446
  187MOL    H8641378   6.933   1.164   3.529  0.8260  0.0262  1.3587
  187MOL    H8741379   6.864   1.043   3.638 -0.3791 -0.2683 -1.7450
  187MOL    H8841380   7.030   1.314   3.638 -0.6355  0.5652 -0.3354
  187MOL    H8941381   7.081   1.403   3.774  0.8768 -0.6498 -0.4826
  187MOL    C9041382   6.958   1.521   3.650 -0.0678  0.2463 -0.5181
  187MOL    C9141383   6.882   1.617   3.746 -0.4396  0.1305  0.1277
  187MOL    O9241384   6.783   1.681   3.706  0.7636 -0.3134  0.1715
  187MOL    C9341385   6.936   1.638   3.891 -0.4925  0.5717  0.4261
  187MOL    C9441386   6.898   1.507   3.507  0.0106  0.1175  0.2136
  187MOL    H9541387   7.054   1.569   3.633  0.1816  0.6789  1.8982
  187MOL    H9641388   7.033   1.688   3.897 -0.8865  1.3905  0.1024
  187MOL    H9741389   6.851   1.681   3.944 -1.0516 -0.9471  0.7858
  187MOL    H9841390   6.941   1.542   3.942  0.2753  0.2943 -0.1513
  187MOL    H9941391   6.792   1.533   3.517  0.1606  1.6560 -1.8020
  187MOL   H10041392   6.900   1.402   3.478 -2.0648  0.1071  0.0039
  187MOL   C10141393   6.961   1.605   3.394  0.1810 -0.0742  0.3352
  187MOL   C10241394   6.882   1.738   3.382 -0.4851  0.6307  0.5089
  187MOL   O10341395   6.770   1.742   3.332 -0.2242 -0.4726 -0.0223
  187MOL   C10441396   6.940   1.862   3.438 -0.8071 -0.1524  0.5263
  187MOL   C10541397   6.967   1.528   3.261 -0.3676  0.0127 -0.0164
  187MOL   H10641398   7.065   1.631   3.414  0.1996 -0.6354  0.9729
  187MOL   H10741399   6.918   1.954   3.385 -1.3481 -0.4934  0.1653
  187MOL   H10841400   6.900   1.875   3.538 -0.7693  1.9880  0.2692
  187MOL   H10941401   7.048   1.847   3.451 -0.2734  1.1654 -2.1303
  187MOL   H11041402   6.865   1.517   3.224 -0.3925  3.0373 -0.9809
  187MOL   H11141403   7.004   1.427   3.276 -0.9304 -0.4195 -1.4113
  187MOL   C11241404   7.039   1.597   3.139 -0.1653 -1.1030  0.4014
  187MOL   C11341405   7.182   1.637   3.179 -0.2620 -0.3156 -0.8422
  187MOL   O11441406   7.217   1.750   3.201  0.1933  0.0903 -0.3450
  187MOL   C11541407   7.287   1.531   3.192 -0.6668 -0.0765 -0.1527
  187MOL   C11641408   6.955   1.702   3.064 -0.2922  0.5831 -0.0729
  187MOL   H11741409   7.056   1.524   3.060  3.5163 -1.0457  1.0619
  187MOL   H11841410   7.267   1.439   3.138 -1.3486 -0.3699  0.5853
  187MOL   H11941411   7.380   1.574   3.155 -0.3695 -1.0493 -0.5411
  187MOL   H12041412   7.289   1.495   3.295 -0.9466  2.5870  0.8169
  187MOL   H12141413   6.944   1.792   3.125  0.6733 -0.5523  1.7897
  187MOL   H12241414   6.855   1.659   3.059  0.0834 -0.6866  2.5747
  187MOL   C12341415   6.994   1.736   2.921 -0.0610 -0.3603 -0.5230
  187MOL   C12441416   6.918   1.862   2.877 -0.1660 -0.5230  0.5835
  187MOL   O12541417   6.793   1.860   2.876 -0.4390 -0.6730  0.3675
  187MOL   C12641418   6.991   1.995   2.849  0.8127  0.1685  0.0379
  187MOL   C12741419   6.980   1.626   2.826 -0.0023  0.6308  0.0753
  187MOL   H12841420   7.099   1.764   2.912  0.3085 -1.5506 -0.0174
  187MOL   H12941421   7.092   1.981   2.811  1.4100 -3.6893  2.7604
  187MOL   H13041422   6.930   2.045   2.773 -1.1091 -2.3098 -0.1120
  187MOL   H13141423   6.987   2.058   2.937  0.3958  1.9112 -1.2060
  187MOL   H13241424   6.874   1.609   2.808  0.4262 -2.4672  0.0985
  187MOL   H13341425   6.996   1.528   2.871 -0.3221  1.8988  3.0952
  187MOL   C13441426   7.054   1.638   2.687 -0.1398  0.5488 -0.3356
  187MOL   C13541427   6.956   1.673   2.575  1.0373  0.2605 -0.0739
  187MOL   O13641428   6.867   1.597   2.534 -0.2134 -0.1215  0.0080
  187MOL   C13741429   6.957   1.808   2.506  0.0525  0.9393  0.6029
  187MOL   C13841430   7.130   1.518   2.638 -0.7423  0.4591  0.9214
  187MOL   H13941431   7.125   1.721   2.684 -0.5244  0.8989  0.0024
  187MOL   H14041432   6.988   1.897   2.561  4.2906 -0.0135 -0.0151
  187MOL   H14141433   7.023   1.806   2.419  0.8100  1.1868  1.1608
  187MOL   H14241434   6.858   1.833   2.469  0.6254 -1.0333 -2.4242
  187MOL   H14341435   7.169   1.532   2.538  1.3007 -0.8770  1.4934
  187MOL   H14441436   7.067   1.430   2.627 -0.6117  0.6803 -1.9349
  187MOL   C14541437   7.251   1.463   2.718  0.5535 -0.5676  0.6107
  187MOL   C14641438   7.374   1.556   2.709  0.0392  0.1418  0.0383
  187MOL   O14741439   7.451   1.556   2.615  0.6686  0.7667  0.2263
  187MOL   C14841440   7.400   1.651   2.826  0.2725  0.2292 -0.4536
  187MOL   C14941441   7.290   1.321   2.673  0.1810 -0.1552 -0.3664
  187MOL   H15041442   7.217   1.458   2.822 -1.2642  1.2073  0.1434
  187MOL   H15141443   7.356   1.751   2.816  1.1268  0.6686  0.0925
  187MOL   H15241444   7.366   1.609   2.920  0.8837  3.3937  1.2510
  187MOL   H15341445   7.507   1.670   2.839  0.2865 -0.3655  0.3204
  187MOL   H15441446   7.307   1.310   2.565  0.9157  2.5679 -0.5551
  187MOL   H15541447   7.199   1.261   2.676  0.7877 -1.0103  1.8730
  187MOL   C15641448   7.407   1.247   2.745 -0.2260  0.0578  0.6384
  187MOL   C15741449   7.396   1.242   2.898  0.4288  0.4154  1.0369
  187MOL   O15841450   7.398   1.346   2.961  0.2248  0.3653 -0.0424
  187MOL   C15941451   7.395   1.108   2.970 -0.2548  0.1970  0.1911
  187MOL   C16041452   7.559   1.257   2.703  0.4007  0.6132  0.1354
  187MOL   H16141453   7.382   1.145   2.717 -1.9039  1.0845 -1.7097
  187MOL   H16241454   7.451   1.045   2.901  0.0989  0.7923 -0.0741
  187MOL   H16341455   7.449   1.098   3.064  0.1699 -2.1705 -0.2638
  187MOL   H16441456   7.293   1.074   2.984  0.0767 -0.9785 -0.1744
  187MOL   H16541457   7.614   1.191   2.770 -1.5117 -0.8594  0.3099
  187MOL   H16641458   7.590   1.355   2.738  0.8498 -0.3995  2.6736
  187MOL   C16741459   7.581   1.240   2.544  0.0980 -0.0429 -0.1700
  187MOL   C16841460   7.552   1.100   2.495  0.0395 -0.9527 -0.9502
  187MOL   O16941461   7.628   1.016   2.543 -0.2126 -0.0064 -0.1528
  187MOL   C17041462   7.422   1.064   2.413 -0.2813 -0.0552  0.3635
  187MOL   C17141463   7.728   1.282   2.504  0.0163  0.3284  0.0627
  187MOL   H17241464   7.514   1.307   2.491 -1.0886 -2.1296 -1.3914
  187MOL   H17341465   7.398   0.958   2.419 -0.7462  0.1416  1.9869
  187MOL   H17441466   7.332   1.116   2.446 -1.6142 -0.1335 -2.9045
  187MOL   H17541467   7.446   1.088   2.309 -1.8220  2.0048  0.4436
  187MOL   H17641468   7.752   1.226   2.413 -0.5107 -1.1957  0.8471
  187MOL   H17741469   7.801   1.231   2.566  0.7624 -1.9701 -2.5942
  187MOL   C17841470   7.756   1.427   2.499 -0.8372 -0.4553 -0.6940
  187MOL   C17941471   7.744   1.467   2.352  0.0688  0.2919 -0.0597
  187MOL   O18041472   7.808   1.403   2.264 -0.0510  0.1508 -0.2551
  187MOL   C18141473   7.646   1.576   2.318  0.0020 -0.6461  0.4088
  187MOL   C18241474   0.043   1.461   2.566 -0.5960 -0.4035 -0.0711
  187MOL   H18341475   7.676   1.481   2.549 -1.7363 -1.0984 -1.4197
  187MOL   H18441476   7.542   1.550   2.340 -1.4547  2.7726 -1.8581
  187MOL   H18541477   7.677   1.670   2.363  2.6730 -1.3085  0.0120
  187MOL   H18641478   7.636   1.595   2.211  0.5159  1.2538  0.6752
  187MOL   H18741479   0.126   1.467   2.496 -0.5905  3.2484  0.1670
  187MOL   H18841480   0.070   1.406   2.656  1.7335 -0.4142 -0.7626
  187MOL   C18941481   0.036   1.614   2.614  0.3627 -0.2170  0.5884
  187MOL   C19041482   0.059   1.716   2.503 -0.7207  0.1699 -0.1125
  187MOL   O19141483   0.138   1.704   2.407  0.1361  0.3628  0.2651
  187MOL   C19241484   7.812   1.842   2.512 -0.7294 -0.2951  0.2072
  187MOL   C19341485   0.115   1.646   2.742 -0.2485 -0.0029 -0.2953
  187MOL   H19441486   7.777   1.623   2.654 -0.4754 -1.6497 -1.1289
  187MOL   H19541487   7.808   1.889   2.610  3.4860  0.2127  0.2194
  187MOL   H19641488   0.009   1.916   2.442 -1.4149 -0.9434 -0.8726
  187MOL   H19741489   7.711   1.819   2.478 -0.1937 -0.4275 -1.3069
  187MOL   H19841490   0.185   1.728   2.727  1.3327 -1.2516  0.1529
  187MOL   H19941491   0.198   1.575   2.748 -0.3605 -0.2524 -1.5223
  187MOL   C20041492   0.039   1.661   2.875 -0.0908 -0.0925  0.7752
  187MOL   C20141493   7.836   1.801   2.882  0.4367 -0.6152 -0.4488
  187MOL   O20241494   7.724   1.844   2.842  0.3053  0.4457 -0.9597
  187MOL   C20341495   0.087   1.904   2.928  0.1167 -0.2512  0.2086
  187MOL   C20441496   0.117   1.628   3.004  0.5293 -0.2285 -0.6932
  187MOL   H20541497   7.795   1.594   2.877  0.3841 -0.7241  0.2240
  187MOL   H20641498   0.124   1.891   3.029  1.6396 -0.6474 -0.3745
  187MOL   H20741499   0.176   1.907   2.864  0.4781  1.3992  0.7578
  187MOL   H20841500   0.036   1.999   2.910 -1.4032 -1.0866  0.0705
  187MOL   H20941501   0.086   1.689   3.089  0.3121 -0.7838 -0.3691
  187MOL   H21041502   0.218   1.666   2.987  0.2110  1.3254  0.6693
  187MOL   C21141503   0.121   1.476   3.038 -0.7092  0.3322 -0.0872
  187MOL   C21241504   0.001   1.425   3.117  0.1743 -0.1084  0.1820
  187MOL   O21341505   7.807   1.478   3.222  0.1984  0.4500 -0.1402
  187MOL   C21441506   7.757   1.325   3.047 -0.2863  0.3114 -0.1548
  187MOL   C21541507   0.254   1.462   3.117 -0.2742 -0.2290  0.5259
  187MOL   H21641508   0.134   1.426   2.942  1.1627  1.0160 -0.2124
  187MOL   H21741509   7.656   1.360   3.027 -0.0164  0.2384 -1.7323
  187MOL   H21841510   7.803   1.300   2.951  0.5267 -1.4330  0.6636
  187MOL   H21941511   7.746   1.233   3.106 -0.6348  1.2026  1.1838
  187MOL   H22041512   0.267   1.526   3.205 -0.2935  0.1890  0.2259
  187MOL   H22141513   0.336   1.482   3.049  0.2863 -0.0048  1.2628
  187MOL   H22241514   0.270   1.357   3.142  0.0305 -0.2398  0.2774
  188MOL     C141515   4.762   6.737   0.256  0.4741 -0.3900  0.5513
  188MOL     C241516   4.777   6.659   0.125  0.6428 -0.2614 -0.0459
  188MOL     O341517   4.715   6.694   0.028 -0.1963  0.4765  0.5873
  188MOL     C441518   4.880   6.541   0.121 -0.3921 -0.0289 -0.0751
  188MOL     C541519   4.736   6.889   0.246  0.7817 -0.5971 -0.3698
  188MOL     H641520   4.683   6.681   0.306  1.2608 -1.5268  0.5560
  188MOL     H741521   4.985   6.568   0.133 -0.6321  1.2251 -0.6593
  188MOL     H841522   4.835   6.463   0.182 -2.8828  2.1336  0.9671
  188MOL     H941523   4.886   6.503   0.019 -1.0575  2.2519 -0.9950
  188MOL    H1041524   4.819   6.939   0.194  0.5301  0.4453  0.2119
  188MOL    H1141525   4.744   6.919   0.350 -0.3244 -0.2438 -0.3840
  188MOL    H1241526   4.850   6.728   0.319 -0.5761  0.5181  2.1666
  188MOL    C1341527   4.604   6.930   0.174 -0.4937  0.5655  0.0153
  188MOL    C1441528   4.625   7.042   0.076  0.3872 -0.0264 -0.3075
  188MOL    O1541529   4.641   7.160   0.100 -0.3612 -0.3447 -0.2105
  188MOL    C1641530   4.624   7.009   7.768  0.0068 -0.6363 -0.3754
  188MOL    C1741531   4.491   6.960   0.276  0.1370  0.3450  0.1405
  188MOL    H1841532   4.567   6.846   0.116  1.0544  0.6283 -1.1036
  188MOL    H1941533   4.606   6.902   7.754 -1.5848 -0.3293 -0.8196
  188MOL    H2041534   4.536   7.064   7.735 -1.1665 -3.6966 -2.6378
  188MOL    H2141535   4.709   7.060   7.723 -0.6928  1.5795  0.7506
  188MOL    H2241536   4.419   7.032   0.238 -0.9515 -0.1898  1.1659
  188MOL    H2341537   4.538   7.009   0.362  0.7893 -0.4004  0.2166
  188MOL    C2441538   4.402   6.838   0.328  0.7353  0.1608 -0.6317
  188MOL    C2541539   4.307   6.791   0.220  0.3515 -0.2393 -0.0729
  188MOL    O2641540   4.245   6.871   0.149 -0.0170 -0.3567 -0.0897
  188MOL    C2741541   4.281   6.641   0.212  0.8451  0.9072 -0.6296
  188MOL    C2841542   4.343   6.877   0.466 -0.1184 -0.0950  0.4404
  188MOL    H2941543   4.478   6.760   0.326  1.0456  0.4034  0.7936
  188MOL    H3041544   4.284   6.616   0.106 -0.9588  1.2972 -0.7938
  188MOL    H3141545   4.358   6.584   0.265  0.6863  0.1584 -1.2084
  188MOL    H3241546   4.184   6.610   0.251  1.9167 -1.7831  0.0068
  188MOL    H3341547   4.254   6.817   0.485 -0.5015  1.1714  2.7462
  188MOL    H3441548   4.293   6.974   0.460  0.5027  0.3515  2.3450
  188MOL    C3541549   4.448   6.866   0.583 -0.3800 -0.1925  0.5858
  188MOL    C3641550   4.519   6.730   0.580  0.3435 -0.3438 -0.6465
  188MOL    O3741551   4.451   6.633   0.555  0.1904 -0.7495  0.4544
  188MOL    C3841552   4.650   6.712   0.645  0.0767  0.2560 -0.1793
  188MOL    C3941553   4.394   6.906   0.718 -0.1031 -0.5307  0.7739
  188MOL    H4041554   4.527   6.938   0.564 -0.4233 -0.3696 -0.2798
  188MOL    H4141555   4.723   6.677   0.572 -0.2725 -1.7658  0.4118
  188MOL    H4241556   4.679   6.808   0.687  1.2741 -0.1797  0.0272
  188MOL    H4341557   4.644   6.635   0.722 -0.3560 -0.6965 -1.1637
  188MOL    H4441558   4.466   6.868   0.791  1.6370  0.0713 -0.6059
  188MOL    H4541559   4.294   6.867   0.737  0.3317 -2.7826 -1.3450
  188MOL    C4641560   4.371   7.061   0.733  0.5541  0.9527 -0.6411
  188MOL    C4741561   4.501   7.137   0.744 -0.4641 -0.0166  0.5601
  188MOL    O4841562   4.609   7.081   0.778  0.2671  0.3613  0.0897
  188MOL    C4941563   4.506   7.287   0.715 -0.0967 -0.1884  0.2650
  188MOL    C5041564   4.287   7.091   0.864  1.0034 -0.0232  0.1815
  188MOL    H5141565   4.320   7.098   0.645  1.0537 -2.3762 -2.4142
  188MOL    H5241566   4.606   7.318   0.686 -0.4338  1.8883  1.2194
  188MOL    H5341567   4.431   7.318   0.641  0.1373 -1.6415 -0.5880
  188MOL    H5441568   4.489   7.344   0.807  0.6753 -0.1402  0.3787
  188MOL    H5541569   4.296   7.195   0.898 -0.9990  0.1841  0.1533
  188MOL    H5641570   4.334   7.024   0.935  0.7576  1.0671  1.3958
  188MOL    C5741571   4.136   7.079   0.846 -0.5605  0.1918 -0.6669
  188MOL    C5841572   4.082   7.168   0.734 -0.3901 -0.0874  0.2361
  188MOL    O5941573   4.109   7.285   0.734  0.0595  0.6632  0.3026
  188MOL    C6041574   3.984   7.109   0.637  0.1604  0.1471 -0.0112
  188MOL    C6141575   4.060   7.103   0.983  0.6139  0.7566  0.0607
  188MOL    H6241576   4.112   6.982   0.803 -1.4884 -0.3069  0.9482
  188MOL    H6341577   4.029   7.110   0.537 -0.4104  0.7607 -0.2695
  188MOL    H6441578   3.950   7.011   0.669  0.1831 -0.5856 -2.1124
  188MOL    H6541579   3.908   7.187   0.635  1.4533  1.4571  1.1594
  188MOL    H6641580   3.960   7.135   0.954  0.7428  0.8675 -0.2686
  188MOL    H6741581   4.096   7.194   1.032 -0.2905  1.2889 -0.2415
  188MOL    C6841582   4.066   6.980   1.081  0.2315 -0.5563  1.0046
  188MOL    C6941583   3.973   6.869   1.027  0.3777 -0.0035 -0.1448
  188MOL    O7041584   3.887   6.900   0.946 -0.1490  0.1791 -0.4172
  188MOL    C7141585   3.991   6.725   1.071  0.8908  0.1793  0.1136
  188MOL    C7241586   4.025   7.009   1.229 -0.6358 -0.5662  0.0067
  188MOL    H7341587   4.170   6.947   1.074 -0.0572 -1.1712 -0.5474
  188MOL    H7441588   4.053   6.734   1.160  0.6809  0.9108  0.1829
  188MOL    H7541589   3.893   6.693   1.106 -0.2092  0.7285 -2.3546
  188MOL    H7641590   4.032   6.659   0.994 -2.9276 -1.9184 -0.2708
  188MOL    H7741591   3.930   6.961   1.249 -1.1094 -0.3454 -1.6213
  188MOL    H7841592   4.006   7.114   1.254  2.2574 -0.2758  1.1572
  188MOL    C7941593   4.130   6.960   1.333  0.1324 -0.0743  0.0832
  188MOL    C8041594   4.072   6.963   1.474  0.6524 -0.2441 -0.4741
  188MOL    O8141595   4.049   7.067   1.528 -0.7247 -0.6914  0.0522
  188MOL    C8241596   4.050   6.827   1.532 -0.3796 -0.1808 -0.0328
  188MOL    C8341597   4.261   7.047   1.322 -0.1928 -0.3701  0.5367
  188MOL    H8441598   4.151   6.856   1.311 -0.1760 -0.3869  1.2607
  188MOL    H8541599   3.962   6.791   1.479 -0.0280  0.4633 -1.0784
  188MOL    H8641600   4.133   6.765   1.500 -0.2983 -0.4355  0.6622
  188MOL    H8741601   4.014   6.829   1.635 -2.8745  0.0658 -0.8796
  188MOL    H8841602   4.261   7.134   1.387 -0.5192 -0.9129  1.2711
  188MOL    H8941603   4.261   7.103   1.229 -0.8423 -2.8612 -1.0147
  188MOL    C9041604   4.395   6.969   1.333  1.2677 -0.5485 -0.3204
  188MOL    C9141605   4.429   6.955   1.486 -0.0738 -0.6869 -0.1993
  188MOL    O9241606   4.393   6.859   1.553 -0.5083  0.8769  0.1225
  188MOL    C9341607   4.511   7.070   1.549  0.3256 -0.2689  0.0733
  188MOL    C9441608   4.507   7.023   1.242 -0.2607 -0.5972  0.2032
  188MOL    H9541609   4.381   6.867   1.297  1.1897 -0.7324  0.2303
  188MOL    H9641610   4.617   7.046   1.549  0.8960  2.1483 -1.0656
  188MOL    H9741611   4.478   7.161   1.499  0.6459 -0.4636 -0.4863
  188MOL    H9841612   4.466   7.067   1.648 -1.1352  2.0599 -0.4755
  188MOL    H9941613   4.509   7.131   1.260 -0.8040 -0.5623  0.0566
  188MOL   H10041614   4.467   7.031   1.141 -1.2202  0.8809  0.6847
  188MOL   C10141615   4.645   6.951   1.245  0.7180  0.1847  0.6363
  188MOL   C10241616   4.755   7.055   1.189 -0.0036  0.5860 -1.2887
  188MOL   O10341617   4.727   7.130   1.093  0.5906  0.3392  0.6922
  188MOL   C10441618   4.887   7.070   1.263 -0.2120 -0.1249 -0.8450
  188MOL   C10541619   4.652   6.813   1.179  0.1048  0.2742  0.4172
  188MOL   H10641620   4.666   6.946   1.352  1.2093  1.1500  0.5939
  188MOL   H10741621   4.964   7.004   1.223 -0.7090 -1.0905 -0.2204
  188MOL   H10841622   4.916   7.172   1.236 -0.6932  0.1979 -0.1376
  188MOL   H10941623   4.883   7.074   1.372  0.8953 -0.6324 -0.7818
  188MOL   H11041624   4.675   6.817   1.073 -1.8349  2.8108  0.0515
  188MOL   H11141625   4.555   6.765   1.189  0.3121 -0.3640 -0.5721
  188MOL   C11241626   4.742   6.717   1.246 -0.1157 -0.7981 -0.5383
  188MOL   C11341627   4.885   6.720   1.206  0.8091  0.3993  0.3456
  188MOL   O11441628   4.926   6.757   1.100  0.3497  0.1478 -0.2899
  188MOL   C11541629   4.996   6.698   1.307  0.3543  0.8059 -0.2407
  188MOL   C11641630   4.682   6.574   1.247  0.4560  0.1973 -0.5029
  188MOL   H11741631   4.745   6.768   1.342 -1.9514  1.4966 -1.6555
  188MOL   H11841632   5.007   6.790   1.363 -0.6328 -0.2372  1.6965
  188MOL   H11941633   4.985   6.607   1.367 -2.0767  0.6851 -0.8024
  188MOL   H12041634   5.088   6.682   1.251  0.6734 -1.3214  0.8323
  188MOL   H12141635   4.751   6.490   1.249 -0.6414 -0.7053 -0.2065
  188MOL   H12241636   4.638   6.562   1.148 -1.8349  2.4748  0.2018
  188MOL   C12341637   4.567   6.546   1.343  0.5284  0.4930  0.0395
  188MOL   C12441638   4.629   6.543   1.487  0.1482 -0.4080 -0.0754
  188MOL   O12541639   4.753   6.527   1.496 -0.2393  0.3191 -0.1096
  188MOL   C12641640   4.541   6.540   1.610  0.1876  0.1139 -0.1892
  188MOL   C12741641   4.475   6.429   1.303  0.1580  0.2413  0.1995
  188MOL   H12841642   4.495   6.629   1.339  0.1799  0.1817 -0.1081
  188MOL   H12941643   4.587   6.600   1.689  0.8613  1.0545 -1.2793
  188MOL   H13041644   4.453   6.598   1.582 -0.3332 -1.6043 -2.1433
  188MOL   H13141645   4.513   6.441   1.644  1.3614  0.5500  2.1658
  188MOL   H13241646   4.392   6.432   1.373  0.0174 -1.4185  0.1366
  188MOL   H13341647   4.530   6.335   1.301 -1.3231 -0.6188 -2.3814
  188MOL   C13441648   4.412   6.423   1.165 -0.4010 -0.0160 -0.2239
  188MOL   C13541649   4.355   6.561   1.115  0.1457 -0.1592  0.2992
  188MOL   O13641650   4.280   6.622   1.192 -0.1726  0.0497 -0.0753
  188MOL   C13741651   4.387   6.609   0.974  0.1709 -0.0703 -0.7091
  188MOL   C13841652   4.296   6.317   1.170 -0.1965 -0.6987  0.4489
  188MOL   H13941653   4.487   6.391   1.093 -0.3860 -2.1700  0.6977
  188MOL   H14041654   4.426   6.526   0.915 -0.1714  0.5866 -1.8654
  188MOL   H14141655   4.299   6.651   0.927 -0.3007 -1.4038 -1.0517
  188MOL   H14241656   4.464   6.685   0.959 -0.0910  0.4741  0.6080
  188MOL   H14341657   4.217   6.360   1.232  1.0599  0.8456  1.0542
  188MOL   H14441658   4.333   6.228   1.220  0.5994 -0.7485 -0.2202
  188MOL   C14541659   4.231   6.287   1.028  0.6959 -0.1535 -0.2924
  188MOL   C14641660   4.098   6.223   1.050 -0.2666 -0.8685 -0.1960
  188MOL   O14741661   4.091   6.126   1.128  0.0995 -0.8082 -0.2128
  188MOL   C14841662   3.977   6.265   0.961  0.6187 -0.1122  0.6078
  188MOL   C14941663   4.329   6.220   0.933  0.3343 -0.1877 -0.2962
  188MOL   H15041664   4.209   6.383   0.981 -0.2582 -0.2212 -0.0044
  188MOL   H15141665   3.996   6.222   0.863 -2.0170  5.5013 -2.5925
  188MOL   H15241666   3.882   6.231   1.003 -0.4199 -1.0177 -2.3608
  188MOL   H15341667   3.974   6.374   0.955 -2.0405 -0.1526  0.6555
  188MOL   H15441668   4.429   6.262   0.948  1.3140 -2.8394  0.9211
  188MOL   H15541669   4.304   6.258   0.834  0.4072  3.2751  0.9171
  188MOL   C15641670   4.345   6.065   0.931 -0.1418 -0.5977 -0.4010
  188MOL   C15741671   4.431   6.002   1.050  0.5744  0.5274  0.9586
  188MOL   O15841672   4.526   6.062   1.100  0.0733  0.1572 -0.2680
  188MOL   C15941673   4.386   5.869   1.090  0.2196  0.2636 -0.8005
  188MOL   C16041674   4.401   6.010   0.800 -0.0857  0.4563 -0.4095
  188MOL   H16141675   4.245   6.020   0.935  0.2177 -1.4113 -0.3294
  188MOL   H16241676   4.304   5.832   1.028 -0.6143 -0.0498  0.4665
  188MOL   H16341677   4.463   5.793   1.076  0.6612  0.6513 -0.4554
  188MOL   H16441678   4.354   5.879   1.194  3.0337 -0.5576  0.1994
  188MOL   H16541679   4.408   5.903   0.817 -1.8056  0.2487 -0.9131
  188MOL   H16641680   4.504   6.045   0.786 -0.1233 -0.0680 -2.0886
  188MOL   C16741681   4.328   6.044   0.663 -0.1224 -0.3088 -0.0231
  188MOL   C16841682   4.181   6.005   0.670 -0.2046  0.5875 -0.3855
  188MOL   O16941683   4.093   6.089   0.689  0.0527  0.0637 -0.1339
  188MOL   C17041684   4.140   5.859   0.659 -0.3284 -0.0893 -0.1899
  188MOL   C17141685   4.391   5.989   0.532 -0.8638 -0.1063  0.5283
  188MOL   H17241686   4.324   6.153   0.652  0.8527 -0.1774  0.8692
  188MOL   H17341687   4.098   5.847   0.559 -3.3641 -1.1365  1.1703
  188MOL   H17441688   4.220   5.786   0.670 -0.2863 -0.0966 -0.5451
  188MOL   H17541689   4.068   5.840   0.738 -0.4444 -0.5371 -0.3998
  188MOL   H17641690   4.337   5.910   0.480  0.8344  0.9980 -3.0626
  188MOL   H17741691   4.486   5.939   0.550 -0.2780 -0.0930 -2.3643
  188MOL   C17841692   4.408   6.099   0.423  0.1071  0.1093 -0.6152
  188MOL   C17941693   4.291   6.095   0.319  0.0115 -0.2693 -0.3852
  188MOL   O18041694   4.223   5.994   0.290 -0.1113  0.0082 -0.7494
  188MOL   C18141695   4.260   6.226   0.246 -0.2932 -0.1678  0.2049
  188MOL   C18241696   4.542   6.080   0.339 -0.7257 -0.0595 -0.2358
  188MOL   H18341697   4.401   6.199   0.466 -0.6939  0.2681 -1.1125
  188MOL   H18441698   4.289   6.317   0.300  0.8884  1.0751 -2.4458
  188MOL   H18541699   4.305   6.245   0.149 -0.5302 -2.1418 -0.3080
  188MOL   H18641700   4.151   6.233   0.236 -0.2598  1.1877  0.6140
  188MOL   H18741701   4.535   6.124   0.240  1.5820 -1.8852 -1.2783
  188MOL   H18841702   4.548   5.976   0.307  2.3333  0.1914 -0.6355
  188MOL   C18941703   4.680   6.120   0.403  0.1503 -0.1429 -0.3245
  188MOL   C19041704   4.684   6.273   0.439 -0.5757  0.5939  0.2664
  188MOL   O19141705   4.670   6.355   0.350  0.8807  0.1922 -0.0506
  188MOL   C19241706   4.692   6.313   0.585 -0.1668  0.2033 -0.0398
  188MOL   C19341707   4.808   6.071   0.336 -0.1594 -0.2509  0.4379
  188MOL   H19441708   4.676   6.080   0.504  0.1408 -2.1685 -1.0833
  188MOL   H19541709   4.686   6.422   0.585 -0.5590  0.1945  0.9582
  188MOL   H19641710   4.610   6.266   0.640 -0.9259  1.0443 -0.4303
  188MOL   H19741711   4.787   6.287   0.632  0.5589  0.9153 -1.0872
  188MOL   H19841712   4.903   6.117   0.364 -0.0127  0.6658 -1.4314
  188MOL   H19941713   4.800   6.104   0.232 -2.1810 -0.5421  0.4951
  188MOL   C20041714   4.833   5.919   0.320 -0.0239  0.5177  0.5455
  188MOL   C20141715   4.829   5.839   0.446  0.5599  0.2377 -0.2027
  188MOL   O20241716   4.893   5.870   0.549  0.0281  0.2401  0.1450
  188MOL   C20341717   4.730   5.720   0.454 -0.3427 -0.2027  1.0172
  188MOL   C20441718   4.958   5.889   0.235 -0.6581  0.5210 -0.3058
  188MOL   H20541719   4.746   5.887   0.263 -0.6611 -3.6533  3.6014
  188MOL   H20641720   4.629   5.758   0.441 -0.0183  0.4791  0.4719
  188MOL   H20741721   4.755   5.649   0.376  1.8718  0.8866  0.6898
  188MOL   H20841722   4.743   5.664   0.547  1.2785  0.8397  1.4485
  188MOL   H20941723   4.990   5.786   0.249  0.2966  0.9344  0.6584
  188MOL   H21041724   5.028   5.965   0.270 -1.0939  1.6510 -1.8329
  188MOL   C21141725   4.931   5.904   0.091 -0.1290  0.6120  0.2951
  188MOL   C21241726   4.833   5.794   0.032 -0.2236 -0.0902 -0.6261
  188MOL   O21341727   4.784   5.714   0.106 -0.2996 -0.1697 -0.4208
  188MOL   C21441728   4.816   5.776   7.729  0.1031  0.3427  0.4519
  188MOL   C21541729   5.073   5.905   0.013  0.8176 -0.1713 -0.3932
  188MOL   H21641730   4.878   5.995   0.063  1.8079  1.7390  0.2519
  188MOL   H21741731   4.897   5.732   7.671 -2.3697 -0.5761 -2.4068
  188MOL   H21841732   4.738   5.702   7.711  0.6228  0.0529 -0.6689
  188MOL   H21941733   4.786   5.868   7.678 -1.0215  0.2672  0.9577
  188MOL   H22041734   5.143   5.823   0.035 -1.6521 -1.9871  0.8779
  188MOL   H22141735   5.129   5.993   0.045  0.1350 -0.2691  1.1047
  188MOL   H22241736   5.057   5.926   7.749 -1.6763  0.8820  0.1653
  189MOL     C141737   4.318   5.425   3.707 -0.7950 -0.1677 -0.1564
  189MOL     C241738   4.369   5.419   3.565  0.1327 -0.4381 -0.0415
  189MOL     O341739   4.457   5.342   3.525  0.1823 -0.0484  0.0596
  189MOL     C441740   4.312   5.520   3.477 -0.2763  0.4322 -0.4811
  189MOL     C541741   4.382   5.318   3.797  0.1355 -0.1934  0.6254
  189MOL     H641742   4.348   5.524   3.738 -0.2933  0.0065 -1.1920
  189MOL     H741743   4.240   5.470   3.412 -0.7127 -0.0780  0.3879
  189MOL     H841744   4.264   5.595   3.540  0.3080  0.1379  0.3068
  189MOL     H941745   4.392   5.560   3.415 -0.6208  0.6347 -0.7992
  189MOL    H1041746   4.360   5.351   3.899 -0.7903  1.3534 -0.0548
  189MOL    H1141747   4.491   5.320   3.794  0.1840 -2.3267  0.0465
  189MOL    H1241748   4.209   5.422   3.710 -0.7977  0.8375  1.5649
  189MOL    C1341749   4.342   5.167   3.776  0.2272  0.1612  0.2672
  189MOL    C1441750   4.191   5.156   3.787  0.3846 -0.7467  0.3170
  189MOL    O1541751   4.136   5.174   3.896 -0.1821 -0.1994  0.0644
  189MOL    C1641752   4.114   5.130   3.657  0.2521 -0.1157 -0.3476
  189MOL    C1741753   4.411   5.072   3.879 -0.4591  0.4352  0.5063
  189MOL    H1841754   4.365   5.150   3.670  1.5406 -0.0599  0.5775
  189MOL    H1941755   4.156   5.195   3.580 -2.0537  0.8156 -0.8472
  189MOL    H2041756   4.101   5.031   3.613 -0.7407 -0.7077  1.2662
  189MOL    H2141757   4.013   5.165   3.674  0.1557 -0.2308 -0.6737
  189MOL    H2241758   4.390   5.113   3.978  0.0972 -0.1607  0.8787
  189MOL    H2341759   4.518   5.089   3.872  0.0737 -2.6795  0.3422
  189MOL    C2441760   4.381   4.921   3.862  0.3532  0.1178  0.4372
  189MOL    C2541761   4.345   4.854   3.996 -0.3635 -0.0071  0.1422
  189MOL    O2641762   4.316   4.912   4.101 -0.1497  0.2701  0.5826
  189MOL    C2741763   4.325   4.703   3.988 -0.0940 -0.4626 -0.1479
  189MOL    C2841764   4.510   4.856   3.808 -0.5798 -0.7368 -0.2719
  189MOL    H2941765   4.298   4.909   3.792 -0.1401  0.6003  0.9376
  189MOL    H3041766   4.296   4.677   3.887 -1.5568 -0.0866  0.1697
  189MOL    H3141767   4.417   4.648   4.008  0.5384 -0.0263 -1.8261
  189MOL    H3241768   4.244   4.662   4.048  0.2914 -0.6533  0.2443
  189MOL    H3341769   4.493   4.753   3.777 -0.9672 -1.1166  1.1426
  189MOL    H3441770   4.588   4.847   3.884  0.7695 -0.0050 -1.5442
  189MOL    C3541771   4.569   4.914   3.674 -0.0724 -0.1533 -0.7725
  189MOL    C3641772   4.463   4.912   3.559  0.1673 -0.3107 -0.0942
  189MOL    O3741773   4.354   4.856   3.572  0.3949  0.2537  0.3167
  189MOL    C3841774   4.492   5.000   3.432  0.1655  0.3756 -0.4585
  189MOL    C3941775   4.692   4.833   3.628 -0.8364  0.2406  0.5898
  189MOL    H4041776   4.592   5.020   3.684  1.5163 -0.3876 -1.6467
  189MOL    H4141777   4.414   4.986   3.357 -0.5186  3.0672 -0.2761
  189MOL    H4241778   4.491   5.108   3.446 -0.9901  0.7296 -3.0830
  189MOL    H4341779   4.590   4.980   3.389  0.4943  0.2786  0.3307
  189MOL    H4441780   4.695   4.820   3.519 -0.7160 -0.4942  0.6779
  189MOL    H4541781   4.703   4.732   3.667 -2.3902  0.2159  0.9817
  189MOL    C4641782   4.819   4.903   3.674 -0.8578  0.4073  0.1326
  189MOL    C4741783   4.847   5.036   3.595  0.2080  0.9727  0.5510
  189MOL    O4841784   4.861   5.042   3.470 -0.0190 -0.0647  0.2430
  189MOL    C4941785   4.865   5.160   3.678  0.4959 -0.0289  0.2255
  189MOL    C5041786   4.947   4.805   3.681  0.0995 -0.2199  0.7245
  189MOL    H5141787   4.795   4.921   3.779  0.0805  1.0814  0.2332
  189MOL    H5241788   4.769   5.197   3.715  0.1649 -1.9416  1.3284
  189MOL    H5341789   4.937   5.139   3.757  0.4118  1.0395  0.5966
  189MOL    H5441790   4.916   5.242   3.627  1.0511 -0.1504  0.5752
  189MOL    H5541791   5.037   4.867   3.680  1.0135 -1.4957  1.9001
  189MOL    H5641792   4.948   4.733   3.599  0.0621  1.1569 -0.4994
  189MOL    C5741793   4.957   4.723   3.817  0.2256 -0.0357  0.4484
  189MOL    C5841794   4.982   4.828   3.933 -0.1975  0.0457 -0.4812
  189MOL    O5941795   4.998   4.949   3.911 -0.0986  0.6727 -0.1739
  189MOL    C6041796   4.977   4.776   4.078 -0.7277  0.4586  0.3846
  189MOL    C6141797   5.056   4.606   3.815  0.0337 -0.3524 -0.5465
  189MOL    H6241798   4.859   4.680   3.839  0.9889  0.1569  4.6395
  189MOL    H6341799   4.873   4.762   4.106 -1.2444  0.1328 -1.5957
  189MOL    H6441800   5.032   4.682   4.082  1.7959  1.9126  1.4617
  189MOL    H6541801   5.027   4.838   4.152  0.3960 -0.6620  0.5931
  189MOL    H6641802   5.040   4.543   3.727  0.2107  0.9017 -1.4935
  189MOL    H6741803   5.022   4.539   3.894  2.4054 -0.7978  0.1352
  189MOL    C6841804   5.207   4.637   3.820 -0.0205  0.0361  0.3925
  189MOL    C6941805   5.253   4.655   3.675 -0.1428 -0.6666 -0.4936
  189MOL    O7041806   5.204   4.592   3.582  0.0447 -0.3132 -0.8158
  189MOL    C7141807   5.365   4.761   3.645  0.4015  0.2021  0.0305
  189MOL    C7241808   5.292   4.518   3.887  0.6932  0.0048 -0.1560
  189MOL    H7341809   5.223   4.735   3.867 -0.5007  0.4384 -0.2696
  189MOL    H7441810   5.349   4.814   3.551  0.8686  0.2267 -0.0341
  189MOL    H7541811   5.345   4.834   3.724  0.1101  1.5809 -1.2971
  189MOL    H7641812   5.467   4.723   3.657  0.2543  0.1463  1.2009
  189MOL    H7741813   5.339   4.451   3.815  2.1729  1.6147 -0.7101
  189MOL    H7841814   5.231   4.439   3.932 -0.6494  1.6877  1.0464
  189MOL    C7941815   5.386   4.567   3.997  0.4953 -0.0864  0.7532
  189MOL    C8041816   5.522   4.609   3.935 -0.3608 -0.7009 -0.3139
  189MOL    O8141817   5.602   4.533   3.886 -0.2869  0.2644  0.0004
  189MOL    C8241818   5.568   4.749   3.949  0.8361  0.0907  0.1245
  189MOL    C8341819   5.399   4.468   4.116 -0.2219  0.3050 -0.0981
  189MOL    H8441820   5.339   4.645   4.057 -0.2165 -2.6578  3.6222
  189MOL    H8541821   5.675   4.756   3.966  0.7764  0.8359  0.2155
  189MOL    H8641822   5.526   4.810   3.869 -1.5448  0.3881  1.5319
  189MOL    H8741823   5.523   4.790   4.039 -1.2025 -2.0515  0.1347
  189MOL    H8841824   5.451   4.382   4.075 -0.3444  0.3162 -0.2763
  189MOL    H8941825   5.300   4.444   4.153  0.1007 -0.4761  0.2649
  189MOL    C9041826   5.484   4.515   4.235  0.4917  0.2206 -0.0316
  189MOL    C9141827   5.605   4.421   4.260  0.0948  0.4010 -0.0432
  189MOL    O9241828   5.716   4.464   4.283  0.6559  0.2356  0.3751
  189MOL    C9341829   5.579   4.275   4.273  0.1299 -1.2708 -0.0175
  189MOL    C9441830   5.390   4.527   4.364  0.8185  0.1796  0.3545
  189MOL    H9541831   5.524   4.610   4.201 -1.5925  0.9978 -0.3786
  189MOL    H9641832   5.611   4.231   4.178 -0.0414 -0.2038 -0.5747
  189MOL    H9741833   5.628   4.240   4.364 -0.9907 -2.3081  0.2014
  189MOL    H9841834   5.473   4.254   4.287 -0.0463 -0.5571 -0.2519
  189MOL    H9941835   5.362   4.426   4.394 -0.0042  0.7923  1.7118
  189MOL   H10041836   5.303   4.582   4.327  1.2648 -0.5139 -1.7694
  189MOL   C10141837   5.458   4.591   4.490  0.1421 -0.4063  0.0602
  189MOL   C10241838   5.381   4.571   4.617 -0.6058  0.0222 -0.3935
  189MOL   O10341839   5.272   4.611   4.628 -0.2786  0.6466 -0.6196
  189MOL   C10441840   5.458   4.517   4.733 -0.0065  0.4027 -0.2427
  189MOL   C10541841   5.491   4.742   4.458  0.5538 -1.1499 -0.5733
  189MOL   H10641842   5.551   4.539   4.511 -0.7986 -2.2319 -0.2410
  189MOL   H10741843   5.540   4.462   4.688 -1.6278 -1.8909 -0.4971
  189MOL   H10841844   5.495   4.603   4.788 -1.8143  0.1611  1.4152
  189MOL   H10941845   5.395   4.445   4.786  0.5727 -0.4880 -0.7560
  189MOL   H11041846   5.433   4.797   4.532 -0.3409  0.9282 -2.7484
  189MOL   H11141847   5.437   4.769   4.367  2.3811  0.3114 -1.2539
  189MOL   C11241848   5.639   4.784   4.466  0.4661 -0.4242 -0.1177
  189MOL   C11341849   5.698   4.790   4.606 -0.0087  0.1337  0.1681
  189MOL   O11441850   5.627   4.803   4.704 -0.6458  0.8589  0.0349
  189MOL   C11541851   5.840   4.749   4.628  0.2124  0.2660 -0.0158
  189MOL   C11641852   5.652   4.930   4.410 -0.2505  0.1811 -0.0757
  189MOL   H11741853   5.711   4.716   4.420  3.7043  2.2322  0.8190
  189MOL   H11841854   5.859   4.663   4.563  1.5566 -0.5900  1.4817
  189MOL   H11941855   5.915   4.825   4.607  0.5276 -0.0499 -0.0436
  189MOL   H12041856   5.852   4.713   4.730 -1.7613 -1.3644 -0.3228
  189MOL   H12141857   5.646   5.000   4.493  1.9695  2.2625 -1.5719
  189MOL   H12241858   5.572   4.948   4.337  0.2984 -3.0879 -1.5788
  189MOL   C12341859   5.785   4.950   4.335 -0.4212 -0.2621 -0.0362
  189MOL   C12441860   5.838   5.099   4.352  0.0400 -0.0685  0.4128
  189MOL   O12541861   5.832   5.189   4.261  0.4913  0.1481 -0.2932
  189MOL   C12641862   5.876   5.153   4.484 -1.1391 -0.3246  0.3149
  189MOL   C12741863   5.783   4.890   4.192 -0.0426 -0.5432  0.3957
  189MOL   H12841864   5.862   4.887   4.380  0.6223  0.8729 -0.1836
  189MOL   H12941865   5.975   5.200   4.486 -1.0254 -0.2701 -3.5456
  189MOL   H13041866   5.799   5.227   4.504 -1.9308 -0.3379 -2.5019
  189MOL   H13141867   5.864   5.075   4.559  1.3258 -0.5229  0.5713
  189MOL   H13241868   5.712   4.958   4.145  0.5324  1.4894  2.3909
  189MOL   H13341869   5.725   4.797   4.188 -2.5473  0.8529  2.6048
  189MOL   C13441870   5.913   4.879   4.107 -0.1056 -0.5728  0.1450
  189MOL   C13541871   5.906   4.949   3.972  0.4720 -0.4418 -0.3936
  189MOL   O13641872   5.886   4.891   3.870  0.5367 -0.1941 -0.0213
  189MOL   C13741873   5.937   5.096   3.971 -0.0942 -0.3959 -0.3193
  189MOL   C13841874   5.972   4.733   4.100 -0.1230 -0.1865  0.0402
  189MOL   H13941875   5.985   4.937   4.164 -1.2333 -0.8730  1.9263
  189MOL   H14041876   6.029   5.124   4.021 -0.0078  1.6354 -1.5631
  189MOL   H14141877   5.945   5.134   3.869 -1.5512 -2.6834 -1.3307
  189MOL   H14241878   5.862   5.155   4.024  0.6314 -0.0529  0.3283
  189MOL   H14341879   6.043   4.737   4.017  0.4393  2.7292  0.5904
  189MOL   H14441880   5.892   4.668   4.064 -0.4009 -0.5363  1.2825
  189MOL   C14541881   6.039   4.676   4.231 -0.3025 -0.4021  0.6986
  189MOL   C14641882   6.152   4.750   4.294  0.5447  0.3798  0.1163
  189MOL   O14741883   6.133   4.781   4.406 -0.1297  0.0978 -0.7245
  189MOL   C14841884   6.271   4.797   4.222 -0.4579  0.3986 -0.1185
  189MOL   C14941885   6.059   4.522   4.229  0.1067  0.1869 -0.0685
  189MOL   H15041886   5.961   4.688   4.307  0.1778 -1.9546  1.4592
  189MOL   H15141887   6.311   4.720   4.157 -1.1721  1.6809 -2.1202
  189MOL   H15241888   6.261   4.890   4.165  0.8023  0.6894  0.1027
  189MOL   H15341889   6.353   4.815   4.292  0.1610  0.9084 -0.9664
  189MOL   H15441890   6.139   4.516   4.155 -1.1405  0.6017 -1.4696
  189MOL   H15541891   5.964   4.478   4.201  1.9427 -3.0172 -1.5442
  189MOL   C15641892   6.090   4.446   4.359  0.6242 -0.6945  0.5096
  189MOL   C15741893   6.233   4.456   4.398  0.2658 -0.0327 -0.2088
  189MOL   O15841894   6.320   4.456   4.315  0.2981  0.3260 -0.3916
  189MOL   C15941895   6.269   4.493   4.540 -0.5193  0.2429 -0.0892
  189MOL   C16041896   6.046   4.298   4.346 -0.6156 -0.4364 -0.3088
  189MOL   H16141897   6.029   4.493   4.436 -0.6692  0.0048 -0.9101
  189MOL   H16241898   6.373   4.492   4.570 -0.5818 -0.4395  0.1283
  189MOL   H16341899   6.235   4.596   4.549  0.4855  0.6244 -0.6924
  189MOL   H16441900   6.196   4.447   4.608 -2.7492  2.7963 -0.6816
  189MOL   H16541901   6.115   4.247   4.279 -0.3521 -0.4719 -0.0138
  189MOL   H16641902   5.952   4.285   4.292 -0.0401 -0.1678 -1.3904
  189MOL   C16741903   6.026   4.220   4.475  0.7472 -0.3579  0.1681
  189MOL   C16841904   6.064   4.065   4.453  0.3433  0.0252 -0.5946
  189MOL   O16941905   5.970   3.988   4.441 -0.1244  0.3700  0.5913
  189MOL   C17041906   6.209   4.016   4.441 -0.3435 -0.7758 -0.2396
  189MOL   C17141907   5.888   4.241   4.522  0.2639  0.5070 -0.2247
  189MOL   H17241908   6.107   4.251   4.542  1.8405 -0.7395 -0.9520
  189MOL   H17341909   6.209   3.910   4.418  1.9830 -0.5426 -1.4967
  189MOL   H17441910   6.261   4.063   4.357  1.0225 -3.1170 -0.7537
  189MOL   H17541911   6.260   4.033   4.535  1.6136  0.5610 -1.5086
  189MOL   H17641912   5.815   4.195   4.456  1.2071 -1.1557 -0.1256
  189MOL   H17741913   5.862   4.345   4.501 -0.6654 -0.1002 -2.2311
  189MOL   C17841914   5.870   4.218   4.671  0.2049 -0.3622  0.3631
  189MOL   C17941915   5.752   4.132   4.711  0.0429 -0.0798 -0.3168
  189MOL   O18041916   5.638   4.179   4.712 -0.4608  0.1023 -0.2682
  189MOL   C18141917   5.778   3.991   4.747 -0.2692 -0.5210  0.1274
  189MOL   C18241918   5.882   4.347   4.756  0.6439  0.6081  0.0472
  189MOL   H18341919   5.958   4.161   4.699 -0.4094 -1.7117 -0.3940
  189MOL   H18441920   5.716   3.965   4.833  0.2423 -3.0564 -0.2520
  189MOL   H18541921   5.751   3.924   4.666  2.3437  0.9419 -2.0369
  189MOL   H18641922   5.883   3.968   4.764 -0.3090 -0.0774  1.0619
  189MOL   H18741923   5.803   4.417   4.727 -0.6055 -1.1358 -0.8198
  189MOL   H18841924   5.975   4.402   4.742  0.1307  1.2865 -0.7011
  189MOL   C18941925   5.885   4.318   4.911 -0.1319  0.5964  0.9833
  189MOL   C19041926   5.839   4.440   4.997  0.1243 -0.1052  0.0115
  189MOL   O19141927   5.926   4.510   5.048  0.0698 -0.0812  0.4426
  189MOL   C19241928   5.690   4.477   5.004 -0.3294 -0.0043  0.9307
  189MOL   C19341929   6.029   4.268   4.939 -0.1682 -0.3334 -0.0304
  189MOL   H19441930   5.819   4.236   4.934  1.1901 -0.5354  0.8086
  189MOL   H19541931   5.670   4.578   5.041 -0.7492  0.2377  0.0483
  189MOL   H19641932   5.641   4.456   4.909  1.3541  0.2434 -0.0167
  189MOL   H19741933   5.646   4.411   5.079  1.0427 -0.6577  1.1860
  189MOL   H19841934   6.098   4.349   4.917  0.8362 -0.7711  1.4034
  189MOL   H19941935   6.048   4.183   4.872 -0.5436 -0.8460  0.5047
  189MOL   C20041936   6.040   4.200   5.075  0.0167 -0.5696 -0.5375
  189MOL   C20141937   6.184   4.203   5.138  0.5693 -0.1372  0.7603
  189MOL   O20241938   6.262   4.109   5.127  0.0003  0.2324 -0.2055
  189MOL   C20341939   6.229   4.340   5.192  0.0322  0.3586  0.4375
  189MOL   C20441940   5.985   4.053   5.072 -0.0769 -0.4319  0.1669
  189MOL   H20541941   5.964   4.250   5.136  1.5697 -1.1781  1.9968
  189MOL   H20641942   6.194   4.361   5.293 -0.5462  0.3184  0.2499
  189MOL   H20741943   6.337   4.342   5.183  0.0595 -3.4676 -0.9110
  189MOL   H20841944   6.194   4.414   5.120 -3.1892 -1.1878  0.3335
  189MOL   H20941945   6.038   3.986   5.005  0.8208 -1.5118  1.9275
  189MOL   H21041946   5.884   4.058   5.030  0.9623  0.1573 -2.3369
  189MOL   C21141947   5.973   3.990   5.214 -0.5822  0.4226 -0.7365
  189MOL   C21241948   5.925   3.848   5.186 -0.0319  0.0807  0.9660
  189MOL   O21341949   5.803   3.823   5.194 -0.2545  0.1153 -0.1981
  189MOL   C21441950   6.028   3.746   5.155  0.3127  0.8476  0.3561
  189MOL   C21541951   5.878   4.067   5.316  0.1323  0.4617  0.5690
  189MOL   H21641952   6.073   3.972   5.254 -0.2415 -1.3606 -2.2601
  189MOL   H21741953   6.109   3.770   5.087  1.8123 -1.3785  1.2978
  189MOL   H21841954   6.068   3.695   5.242 -0.7895  0.5605  0.7010
  189MOL   H21941955   5.968   3.680   5.091  0.3068  0.6799  0.5335
  189MOL   H22041956   5.774   4.062   5.284  0.9644 -1.9553 -1.9323
  189MOL   H22141957   5.894   4.174   5.333  1.1080  0.5381 -0.8084
  189MOL   H22241958   5.871   4.028   5.418  0.0202 -2.0087 -0.3549
  190MOL     C141959   2.641   0.488   7.773 -0.2997 -0.4278  0.6369
  190MOL     C241960   2.537   0.585   7.832 -0.6264  0.3533  0.0751
  190MOL     O341961   2.481   0.560   0.094 -0.3489 -0.2473  0.2976
  190MOL     C441962   2.499   0.694   7.737  0.4058 -0.6604  0.1058
  190MOL     C541963   2.769   0.474   0.019 -0.4037 -0.3365  0.0913
  190MOL     H641964   2.596   0.391   7.748  0.2899 -1.0382  1.9191
  190MOL     H741965   2.566   0.716   7.654  1.5108 -1.9072  0.6542
  190MOL     H841966   2.406   0.653   7.697  0.6490  0.9919 -2.3010
  190MOL     H941967   2.476   0.779   7.801  4.2624  0.5136  0.0516
  190MOL    H1041968   2.778   0.365   0.025  2.5678 -0.1614 -0.1906
  190MOL    H1141969   2.752   0.515   0.118 -1.2934  1.3567 -0.7357
  190MOL    H1241970   2.666   0.546   7.684 -0.9647  0.1944  0.8537
  190MOL    C1341971   2.895   0.532   7.804 -0.1752 -0.3036  0.1865
  190MOL    C1441972   2.952   0.470   7.677  0.8493  0.1892 -0.0870
  190MOL    O1541973   2.957   0.347   7.661  0.3964 -0.3904  0.0623
  190MOL    C1641974   2.991   0.558   7.559 -0.2090  0.4888  0.4514
  190MOL    C1741975   3.002   0.522   0.069 -0.0673  0.3284 -0.2415
  190MOL    H1841976   2.867   0.637   7.792 -1.6384 -0.5498  1.3513
  190MOL    H1941977   3.020   0.499   7.471 -2.0445  0.5673 -0.2162
  190MOL    H2041978   2.902   0.609   7.524 -0.3519  1.1851  1.7978
  190MOL    H2141979   3.072   0.629   7.580 -0.5015  0.6803  0.9195
  190MOL    H2241980   3.094   0.479   0.031  0.1316  1.5664 -1.1634
  190MOL    H2341981   2.980   0.443   0.142 -0.5645  2.1335  1.6150
  190MOL    C2441982   3.024   0.652   0.142 -0.3873  0.2933  0.0913
  190MOL    C2541983   3.105   0.758   0.061  0.1616 -0.4035  0.1313
  190MOL    O2641984   3.134   0.729   7.790 -0.5034 -0.4214  0.0709
  190MOL    C2741985   3.132   0.896   0.128 -0.2777 -0.2414  0.1876
  190MOL    C2841986   3.094   0.629   0.282 -0.3135  0.1868 -0.1413
  190MOL    H2941987   2.925   0.691   0.168 -0.5093 -0.3294  0.5591
  190MOL    H3041988   3.113   0.986   0.070  2.3151 -0.5448 -1.1960
  190MOL    H3141989   3.074   0.908   0.219  0.6997 -0.2379  0.8091
  190MOL    H3241990   3.237   0.898   0.156  0.0083  1.8326 -0.9262
  190MOL    H3341991   3.039   0.555   0.340 -0.8428 -0.6821 -1.7105
  190MOL    H3441992   3.064   0.720   0.333 -2.7736 -0.4463 -0.4252
  190MOL    C3541993   3.248   0.619   0.291  0.1013  0.4064 -0.2265
  190MOL    C3641994   3.299   0.485   0.248  0.4105  0.0653 -0.8387
  190MOL    O3741995   3.220   0.388   0.248 -0.1365 -0.1296 -0.0732
  190MOL    C3841996   3.447   0.469   0.224 -0.4249  0.0979  0.3218
  190MOL    C3941997   3.292   0.646   0.431  0.1160 -0.9864  0.2715
  190MOL    H4041998   3.295   0.689   0.222  0.6765  1.5094  1.2909
  190MOL    H4141999   3.498   0.417   0.305  1.1132 -1.5644 -1.6651
  190MOL    H4242000   3.468   0.409   0.136 -0.5134  0.5738 -0.0263
  190MOL    H4342001   3.495   0.566   0.209 -0.3763  0.2773  1.5997
  190MOL    H4442002   3.251   0.569   0.495  1.0103 -0.4680  1.4900
  190MOL    H4542003   3.236   0.734   0.463  0.1288 -0.9956  0.3185
  190MOL    C4642004   3.443   0.671   0.464  0.3504 -0.5222  0.4242
  190MOL    C4742005   3.459   0.683   0.616 -0.1138 -0.2516  0.0597
  190MOL    O4842006   3.465   0.797   0.668  0.2733 -0.1024  0.0300
  190MOL    C4942007   3.472   0.559   0.694 -0.5813  0.3866  0.0408
  190MOL    C5042008   3.490   0.800   0.395 -0.0085  0.0347 -0.0243
  190MOL    H5142009   3.502   0.585   0.433 -1.2910 -1.2982 -0.6211
  190MOL    H5242010   3.442   0.558   0.799  0.1163  0.6938  0.2470
  190MOL    H5342011   3.423   0.483   0.633  0.0014  2.6119 -3.3100
  190MOL    H5442012   3.578   0.534   0.694 -0.8782 -0.9394 -1.5342
  190MOL    H5542013   3.447   0.888   0.443  2.3225  0.4204  1.4613
  190MOL    H5642014   3.458   0.798   0.291 -1.9925 -4.1729  0.5966
  190MOL    C5742015   3.640   0.833   0.400  0.3312 -0.7521  0.2853
  190MOL    C5842016   3.663   0.987   0.391 -0.7807 -0.0433 -0.2874
  190MOL    O5942017   3.659   1.046   0.282 -0.2163 -0.5548  0.0788
  190MOL    C6042018   3.694   1.063   0.523 -0.3386  0.6488  0.6412
  190MOL    C6142019   3.720   0.749   0.296  0.4206  0.2726  0.0768
  190MOL    H6242020   3.676   0.793   0.495 -1.1109 -2.6474  0.0690
  190MOL    H6342021   3.605   1.081   0.583  0.1882  2.5746  0.8857
  190MOL    H6442022   3.765   1.014   0.590  0.2192 -1.0012 -1.1219
  190MOL    H6542023   3.731   1.163   0.501  1.6919 -0.0580  0.7737
  190MOL    H6642024   3.694   0.787   0.197  0.1834 -0.1209 -0.0116
  190MOL    H6742025   3.694   0.643   0.301  1.6561  0.0427  2.2893
  190MOL    C6842026   3.874   0.752   0.314  0.7210 -0.9412  0.0304
  190MOL    C6942027   3.948   0.716   0.185 -0.1724  0.2328  0.1381
  190MOL    O7042028   3.914   0.624   0.108  0.0379  0.1448  0.0102
  190MOL    C7142029   4.073   0.794   0.158  0.2406 -0.3320  0.6563
  190MOL    C7242030   3.936   0.679   0.439  0.8951 -0.2933  0.1108
  190MOL    H7342031   3.897   0.859   0.322  0.4435 -0.7880 -1.1168
  190MOL    H7442032   4.123   0.763   0.066 -1.7943  1.2950 -1.0614
  190MOL    H7542033   4.024   0.891   0.153 -2.1536 -1.4750  1.1008
  190MOL    H7642034   4.154   0.799   0.231  1.6044 -1.6195 -0.7109
  190MOL    H7742035   3.861   0.695   0.517 -0.1825 -0.8453 -0.7982
  190MOL    H7842036   4.031   0.726   0.463  1.1151 -0.5983 -0.1643
  190MOL    C7942037   3.963   0.521   0.442  0.3526  0.2345  0.5401
  190MOL    C8042038   3.850   0.440   0.403  0.4921  0.6106 -0.1228
  190MOL    O8142039   3.745   0.454   0.463 -0.0208 -0.4737  0.3537
  190MOL    C8242040   3.872   0.340   0.295 -0.2301 -0.0443 -0.0415
  190MOL    C8342041   4.022   0.476   0.581  0.3810  0.0496  0.5366
  190MOL    H8442042   4.035   0.510   0.362 -0.4943  2.0347 -0.5073
  190MOL    H8542043   3.835   0.245   0.333  1.6533  0.7353  3.9877
  190MOL    H8642044   3.822   0.373   0.204 -1.1074  2.6082  1.3567
  190MOL    H8742045   3.979   0.336   0.275 -0.1880 -2.6042  0.4500
  190MOL    H8842046   4.021   0.367   0.593 -0.2868  0.1769  1.6803
  190MOL    H8942047   3.956   0.511   0.660 -2.3447 -2.5903 -0.4479
  190MOL    C9042048   4.168   0.530   0.593  0.5766 -0.0914  0.1599
  190MOL    C9142049   4.268   0.453   0.507  0.1241 -0.3526  0.7290
  190MOL    O9242050   4.253   0.327   0.500  0.0450 -0.8009 -0.2614
  190MOL    C9342051   4.379   0.525   0.432  0.5235  0.9645 -0.3485
  190MOL    C9442052   4.208   0.534   0.749 -0.6506 -0.4945  0.1387
  190MOL    H9542053   4.186   0.634   0.565  0.8376  0.0961  0.9981
  190MOL    H9642054   4.444   0.563   0.511  1.1237 -1.9639  0.6650
  190MOL    H9742055   4.435   0.457   0.367  0.3199  0.1313  0.3309
  190MOL    H9842056   4.339   0.611   0.379 -1.1613 -0.0726 -0.8132
  190MOL    H9942057   4.306   0.490   0.764  0.1766  1.0932 -0.5133
  190MOL   H10042058   4.149   0.464   0.808  0.4881 -1.0606  0.6217
  190MOL   C10142059   4.207   0.675   0.816  0.4754 -0.0007  0.6766
  190MOL   C10242060   4.309   0.760   0.742 -0.0443 -0.0725  0.2740
  190MOL   O10342061   4.408   0.715   0.687  0.1925  0.1180 -0.1052
  190MOL   C10442062   4.305   0.905   0.787  0.6147  0.2049  0.6460
  190MOL   C10542063   4.223   0.667   0.968 -0.1706 -0.2789  0.3943
  190MOL   H10642064   4.108   0.714   0.793  0.9523  0.3256 -0.8549
  190MOL   H10742065   4.207   0.933   0.824 -2.1755 -2.0300 -4.5227
  190MOL   H10842066   4.379   0.932   0.862  0.3635 -2.0114  1.7516
  190MOL   H10942067   4.335   0.979   0.712 -0.8269 -2.0647 -2.2929
  190MOL   H11042068   4.256   0.765   1.004  0.9233  0.2170 -1.7983
  190MOL   H11142069   4.310   0.606   0.991  0.4406 -0.1760 -1.4922
  190MOL   C11242070   4.101   0.626   1.054 -0.1224  0.6763  0.4889
  190MOL   C11342071   3.993   0.728   1.032  0.3302 -0.3949 -0.0400
  190MOL   O11442072   3.999   0.840   1.083  0.4595 -0.3619 -0.1851
  190MOL   C11542073   3.868   0.676   0.948  0.6347  0.2949 -0.5157
  190MOL   C11642074   4.141   0.617   1.204  0.0755  0.1641 -0.3396
  190MOL   H11742075   4.064   0.529   1.024  2.1424 -0.0736 -0.0334
  190MOL   H11842076   3.904   0.588   0.894 -0.7625 -0.4526 -0.2578
  190MOL   H11942077   3.788   0.647   1.016  0.5553  1.3767 -0.1369
  190MOL   H12042078   3.843   0.759   0.882 -0.2642  1.4940  1.2937
  190MOL   H12142079   4.198   0.705   1.236 -0.3937 -0.0969  1.2116
  190MOL   H12242080   4.220   0.545   1.225  0.5479  0.8461  0.2731
  190MOL   C12342081   4.020   0.597   1.307 -0.0773 -0.4212  0.2996
  190MOL   C12442082   4.082   0.596   1.456  0.3293  0.0017  0.3672
  190MOL   O12542083   4.140   0.497   1.489 -0.3722  0.5507  0.0386
  190MOL   C12642084   4.066   0.716   1.555  0.6748 -0.4948  0.3196
  190MOL   C12742085   3.917   0.482   1.284 -0.1577 -0.4390 -0.5433
  190MOL   H12842086   3.966   0.692   1.309  1.3732  0.4240  0.1972
  190MOL   H12942087   4.051   0.802   1.489 -2.1622 -0.6103  0.7279
  190MOL   H13042088   3.986   0.684   1.622  0.6189  0.2926  0.6299
  190MOL   H13142089   4.157   0.718   1.614 -0.0567 -0.0125  1.4429
  190MOL   H13242090   3.864   0.502   1.190  0.4388 -0.0527 -0.7992
  190MOL   H13342091   3.843   0.483   1.364  1.4091  0.3591  0.9162
  190MOL   C13442092   3.971   0.340   1.290  0.5299 -0.0447 -0.3884
  190MOL   C13542093   4.041   0.302   1.163  0.4712 -0.3520  0.2078
  190MOL   O13642094   3.996   0.320   1.050 -0.2858 -0.5353  0.0794
  190MOL   C13742095   4.182   0.249   1.187 -0.1027  0.2374 -0.4633
  190MOL   C13842096   3.867   0.224   1.318  0.1250  0.1726  0.5825
  190MOL   H13942097   4.038   0.336   1.376 -1.8873  4.1455  1.8970
  190MOL   H14042098   4.232   0.210   1.099 -1.4324 -0.2320 -1.0108
  190MOL   H14142099   4.230   0.341   1.222  0.0524 -0.3860  1.0306
  190MOL   H14242100   4.202   0.176   1.265  0.8559  0.4927 -0.4626
  190MOL   H14342101   3.833   0.227   1.421 -2.7489  0.6360 -0.3171
  190MOL   H14442102   3.924   0.132   1.322  0.4412  0.3744  0.7036
  190MOL   C14542103   3.750   0.199   1.227  0.0806 -0.5129  0.6096
  190MOL   C14642104   3.642   0.312   1.233 -0.3419 -0.0535  0.9040
  190MOL   O14742105   3.571   0.334   1.329 -0.7834  0.2017 -0.1844
  190MOL   C14842106   3.632   0.405   1.110  0.0110 -1.0421  0.8001
  190MOL   C14942107   3.684   0.060   1.271 -0.4761 -1.0201 -0.3852
  190MOL   H15042108   3.800   0.198   1.130 -0.8336 -1.5475  0.1410
  190MOL   H15142109   3.723   0.398   1.050 -1.1780  0.3116 -1.2090
  190MOL   H15242110   3.552   0.376   1.043  0.0274  1.3203 -0.2863
  190MOL   H15342111   3.612   0.509   1.138 -0.4507 -0.6101 -1.0628
  190MOL   H15442112   3.636   0.086   1.366  2.5105  0.4850  0.7609
  190MOL   H15542113   3.765   7.833   1.293 -0.6347 -1.2349 -0.4794
  190MOL   C15642114   3.575   0.002   1.169 -0.4082 -0.3359 -0.3437
  190MOL   C15742115   3.464   7.759   1.233 -0.5789  0.3985 -0.4934
  190MOL   O15842116   3.488   7.675   1.324 -0.1442 -0.4844 -0.2536
  190MOL   C15942117   3.324   7.772   1.185 -0.2903  0.2222 -0.0371
  190MOL   C16042118   3.644   7.769   1.054  0.4544 -0.5773  0.4609
  190MOL   H16142119   3.516   0.084   1.126  0.6687 -0.1595 -1.5102
  190MOL   H16242120   3.307   7.764   1.077  2.0665  1.0028 -0.5085
  190MOL   H16342121   3.279   7.690   1.240 -0.1517  0.2970  0.1881
  190MOL   H16442122   3.285   0.028   1.212 -0.3194  1.4681 -4.1628
  190MOL   H16542123   3.674   7.677   1.104 -0.6484 -0.4206  1.4317
  190MOL   H16642124   3.738   7.814   1.023 -0.8044  1.0710 -1.1155
  190MOL   C16742125   3.557   7.729   0.928  0.2963 -0.6541  0.0221
  190MOL   C16842126   3.619   7.613   0.847 -0.7072 -0.4085  0.3070
  190MOL   O16942127   3.729   7.562   0.878 -0.1701  0.1129 -0.4315
  190MOL   C17042128   3.529   7.545   0.744 -0.1972  0.7191 -0.1330
  190MOL   C17142129   3.496   7.842   0.843  0.0078 -0.4074  0.1375
  190MOL   H17242130   3.468   7.684   0.972  2.0856 -1.0509  3.4369
  190MOL   H17342131   3.425   7.557   0.774 -0.0829 -0.9229  0.9810
  190MOL   H17442132   3.538   7.592   0.646  0.5717  0.9750  0.0545
  190MOL   H17542133   3.552   7.439   0.735 -0.1622  0.6199  1.0239
  190MOL   H17642134   3.451   0.064   0.918  2.2261  0.9549  0.3474
  190MOL   H17742135   3.419   7.787   0.789 -0.0205 -0.1407 -0.0916
  190MOL   C17842136   3.578   0.076   0.742 -0.4597 -0.0412 -0.3854
  190MOL   C17942137   3.695   0.161   0.785 -0.1457 -0.2355  0.3535
  190MOL   O18042138   3.712   0.198   0.901  0.5569 -0.0484  0.0208
  190MOL   C18142139   3.793   0.212   0.684 -0.0100 -0.1027 -0.5731
  190MOL   C18242140   3.472   0.176   0.679 -0.1084  0.2884 -1.0645
  190MOL   H18342141   3.621   0.015   0.663  0.7423  0.2719  0.0106
  190MOL   H18442142   3.890   0.203   0.732  0.0217  0.5944 -0.5008
  190MOL   H18542143   3.780   0.151   0.594 -0.7431 -0.3693 -0.2912
  190MOL   H18642144   3.769   0.316   0.662  1.6056  0.5738  0.8263
  190MOL   H18742145   3.527   0.258   0.631  0.3784 -0.0298 -1.0534
  190MOL   H18842146   3.405   0.227   0.748 -0.5137 -0.2291 -1.0764
  190MOL   C18942147   3.394   0.109   0.565  0.0406 -0.0810  0.8474
  190MOL   C19042148   3.482   0.059   0.445  0.2161 -0.8058  0.7163
  190MOL   O19142149   3.572   0.126   0.388  0.5061 -0.3713  0.0753
  190MOL   C19242150   3.447   7.771   0.392 -0.0756 -0.4974  0.8886
  190MOL   C19342151   3.281   0.195   0.510 -0.4591  0.1241 -0.0283
  190MOL   H19442152   3.342   0.023   0.608 -2.1866  0.6288 -0.3736
  190MOL   H19542153   3.494   7.685   0.440  0.0042 -1.0181 -0.0891
  190MOL   H19642154   3.340   7.771   0.413  0.3316 -1.1354  3.0275
  190MOL   H19742155   3.469   7.754   0.286  0.8983  0.4584  0.9296
  190MOL   H19842156   3.277   0.183   0.402 -3.0024 -0.3658  0.0826
  190MOL   H19942157   3.306   0.300   0.526  1.4532 -0.5909  1.8781
  190MOL   C20042158   3.144   0.172   0.562 -0.5277  0.3911  1.0189
  190MOL   C20142159   3.130   0.198   0.713  0.5050 -0.2206  0.5202
  190MOL   O20242160   3.131   0.098   0.787 -0.0493 -1.3967 -0.4101
  190MOL   C20342161   3.108   0.339   0.751  0.1913  0.0379  0.2365
  190MOL   C20442162   3.101   0.030   0.511  0.2546 -0.1589 -0.1573
  190MOL   H20542163   3.087   0.246   0.507  3.1010 -0.0046 -3.5312
  190MOL   H20642164   3.193   0.405   0.766  1.3754 -1.9030  2.2989
  190MOL   H20742165   3.044   0.381   0.674  1.0243  0.2409 -0.3552
  190MOL   H20842166   3.049   0.346   0.842 -0.1916  2.4735 -0.1466
  190MOL   H20942167   3.171   7.797   0.548  1.1818  1.0621  0.5901
  190MOL   H21042168   3.113   0.031   0.403 -1.6924  0.7916 -0.3798
  190MOL   C21142169   2.960   7.830   0.549  0.7324 -0.5489  0.4162
  190MOL   C21242170   2.954   7.716   0.648  0.1429  0.6926 -0.0246
  190MOL   O21342171   3.027   7.621   0.618 -0.0059 -0.5311  0.0036
  190MOL   C21442172   2.869   7.710   0.771  0.6652  0.0291  0.0635
  190MOL   C21542173   2.867   7.830   0.429  0.1361 -0.4230 -0.0280
  190MOL   H21642174   2.923   0.068   0.613  0.5726  0.1797 -0.5815
  190MOL   H21742175   2.862   7.611   0.817 -2.3604  0.9904  1.8057
  190MOL   H21842176   2.905   7.769   0.855 -0.7163 -1.1483  1.4980
  190MOL   H21942177   2.769   7.746   0.750  0.4492  0.6623  2.0520
  190MOL   H22042178   2.877   0.082   0.376  0.0247 -0.4554 -0.1073
  190MOL   H22142179   2.761   7.836   0.454 -0.1732 -0.1101 -1.4033
  190MOL   H22242180   2.892   7.747   0.364  2.5751 -1.0918  1.7061
  191MOL     C142181   1.018   0.967   7.709  0.1544 -0.1437 -0.3083
  191MOL     C242182   1.119   1.068   7.749 -0.2981  0.0521  0.0150
  191MOL     O342183   1.180   1.056   0.015 -0.5080  0.5086 -0.0644
  191MOL     C442184   1.138   1.197   7.669 -0.3210  0.5603  0.0787
  191MOL     C542185   1.044   0.828   7.760  0.7050 -0.0872 -0.0852
  191MOL     H642186   0.918   0.998   7.738  0.6330 -0.3087  1.5756
  191MOL     H742187   1.052   1.260   7.687 -2.2584 -2.7913  3.2102
  191MOL     H842188   1.226   1.255   7.698 -0.4639  0.3577  0.9302
  191MOL     H942189   1.148   1.177   7.562  1.2995 -0.4130  0.3803
  191MOL    H1042190   0.960   0.777   7.714 -0.3915  0.6463  1.0556
  191MOL    H1142191   1.011   0.826   0.022 -0.6612  1.5079 -0.4582
  191MOL    H1242192   1.025   0.967   7.600  2.2399  3.2379 -0.2600
  191MOL    C1342193   1.173   0.755   7.725  0.5988 -0.0766  0.1707
  191MOL    C1442194   1.144   0.640   7.621  0.0016  0.0836 -0.0055
  191MOL    O1542195   1.063   0.548   7.638  0.2378 -0.0070  0.3224
  191MOL    C1642196   1.224   0.657   7.490 -0.5016 -0.7376  0.2259
  191MOL    C1742197   1.253   0.716   0.008  0.1148 -0.0396  0.2274
  191MOL    H1842198   1.241   0.825   7.679  0.7169 -0.2665  0.0572
  191MOL    H1942199   1.200   0.754   7.446 -1.3470 -0.7046  0.7498
  191MOL    H2042200   1.331   0.641   7.499 -0.0341  2.0906 -0.0101
  191MOL    H2142201   1.184   0.581   7.422 -0.5262 -1.0256  0.5612
  191MOL    H2242202   1.291   0.802   0.064  1.0561 -1.9998  2.7133
  191MOL    H2342203   1.346   0.670   7.817 -0.3547  0.7984 -2.4051
  191MOL    C2442204   1.183   0.621   0.105  0.0662 -0.1926  0.4014
  191MOL    C2542205   1.199   0.670   0.251 -0.3446 -0.1034  0.5095
  191MOL    O2642206   1.290   0.624   0.323  0.4083  0.2286 -0.1192
  191MOL    C2742207   1.110   0.787   0.297  0.1849  0.6238 -0.4815
  191MOL    C2842208   1.211   0.471   0.078  1.2594  0.4365  0.3253
  191MOL    H2942209   1.078   0.626   0.075 -1.0369 -3.2926  3.4350
  191MOL    H3042210   1.009   0.747   0.288 -0.3776  1.7831  0.6600
  191MOL    H3142211   1.130   0.821   0.398  1.4965 -0.1730 -0.4552
  191MOL    H3242212   1.129   0.873   0.233  3.3642 -0.8623 -1.6374
  191MOL    H3342213   1.318   0.471   0.103  0.7447  0.7135  2.6324
  191MOL    H3442214   1.206   0.443   7.815 -0.0393 -1.6475  0.9109
  191MOL    C3542215   1.129   0.368   0.157  0.2431 -0.1812  0.3622
  191MOL    C3642216   1.230   0.260   0.202 -0.2075 -0.0892 -0.0739
  191MOL    O3742217   1.241   0.235   0.327  0.4418 -0.3204  0.1853
  191MOL    C3842218   1.324   0.193   0.098  0.1343 -0.4073 -0.0762
  191MOL    C3942219   1.014   0.314   0.063 -0.5228  0.2189  0.6291
  191MOL    H4042220   1.077   0.401   0.246 -0.5474  1.2642 -0.6169
  191MOL    H4142221   1.423   0.207   0.141  0.3133 -0.5698 -0.4316
  191MOL    H4242222   1.313   0.085   0.089 -1.2514 -0.2925  0.1945
  191MOL    H4342223   1.320   0.246   0.003 -0.8858  2.5837  1.5734
  191MOL    H4442224   1.066   0.268   7.822 -1.3685  1.5915 -0.7026
  191MOL    H4542225   0.965   0.407   0.033 -2.0570 -0.3302  1.3399
  191MOL    C4642226   0.908   0.222   0.124  0.7267 -0.0906  0.1300
  191MOL    C4742227   0.953   0.075   0.135 -0.1647 -0.2198  0.1779
  191MOL    O4842228   1.003   0.013   0.037 -0.1265 -0.2433 -0.0121
  191MOL    C4942229   0.944   0.009   0.272  0.0514  0.0167  0.4559
  191MOL    C5042230   0.770   0.233   0.057 -0.1493 -0.3565 -0.1408
  191MOL    H5142231   0.887   0.257   0.225 -0.8946  2.3786 -1.0164
  191MOL    H5242232   1.027   7.782   0.286 -1.7940 -2.2586  0.3358
  191MOL    H5342233   0.948   0.075   0.359  0.6510  0.2225  0.2774
  191MOL    H5442234   0.848   7.802   0.285  1.4508 -2.3123  2.2383
  191MOL    H5542235   0.702   0.158   0.098  0.0816 -0.4224  0.1202
  191MOL    H5642236   0.779   0.201   7.795  1.1244  2.9094 -1.0975
  191MOL    C5742237   0.687   0.360   0.071  0.0387 -0.0560  0.2404
  191MOL    C5842238   0.654   0.374   0.219  0.2100  0.5583  0.0545
  191MOL    O5942239   0.593   0.289   0.280 -0.1220  0.4071 -0.1315
  191MOL    C6042240   0.701   0.502   0.287  0.2887 -0.0874 -0.7547
  191MOL    C6142241   0.550   0.359   7.828  0.2977 -0.4468 -0.2656
  191MOL    H6242242   0.754   0.439   0.037  0.2199 -0.3272 -0.0404
  191MOL    H6342243   0.611   0.553   0.320  1.8856  1.9024  0.6762
  191MOL    H6442244   0.756   0.470   0.376 -0.3990 -0.1661 -0.3558
  191MOL    H6542245   0.770   0.561   0.227 -1.2501  0.1653 -2.3244
  191MOL    H6642246   0.480   0.436   0.015  1.1098  0.0027  0.5361
  191MOL    H6742247   0.495   0.265   7.825 -1.1116  0.3737 -0.3304
  191MOL    C6842248   0.580   0.389   7.675 -0.0961  0.0090  0.3425
  191MOL    C6942249   0.606   0.534   7.636  0.3817 -0.0082  0.1703
  191MOL    O7042250   0.518   0.618   7.649  0.2414  0.1453 -0.3304
  191MOL    C7142251   0.751   0.578   7.614  0.3241  0.2652  0.4566
  191MOL    C7242252   0.479   0.319   7.580  0.0837  0.0611 -0.6980
  191MOL    H7342253   0.669   0.333   7.649 -1.1019 -0.6441 -1.8084
  191MOL    H7442254   0.817   0.492   7.619  1.2839  0.8916 -0.9813
  191MOL    H7542255   0.761   0.619   7.513 -1.3424 -0.5550 -0.0657
  191MOL    H7642256   0.767   0.660   7.683  1.2330 -0.7535  1.4633
  191MOL    H7742257   0.385   0.376   7.582  0.5973  0.9254  2.5488
  191MOL    H7842258   0.453   0.223   7.625  1.1179  0.1219  0.0463
  191MOL    C7942259   0.531   0.309   7.435 -0.4961  0.0425  0.4466
  191MOL    C8042260   0.437   0.358   7.323 -0.3669 -0.4729  0.5217
  191MOL    O8142261   0.315   0.351   7.341  0.0013 -0.0338  0.8234
  191MOL    C8242262   0.492   0.398   7.187  0.0936  0.3910  0.0751
  191MOL    C8342263   0.577   0.166   7.413 -0.1060  0.0524 -0.2495
  191MOL    H8442264   0.621   0.371   7.426 -0.3123 -0.1402  0.9978
  191MOL    H8542265   0.466   0.322   7.114 -0.8639  0.8383 -0.0599
  191MOL    H8642266   0.437   0.489   7.164 -1.4258 -0.3986  0.5044
  191MOL    H8742267   0.598   0.422   7.189  0.7258 -2.2016 -0.4291
  191MOL    H8842268   0.583   0.133   7.309  3.2174 -1.1689  0.2708
  191MOL    H8942269   0.486   0.110   7.437  0.4042 -0.4567  0.5107
  191MOL    C9042270   0.696   0.120   7.493 -0.1051 -1.1924  0.3941
  191MOL    C9142271   0.824   0.190   7.444 -0.2566 -0.5477 -0.5787
  191MOL    O9242272   0.833   0.234   7.325  0.7039 -0.3321 -0.2088
  191MOL    C9342273   0.942   0.189   7.533 -0.3838  0.3455  0.5627
  191MOL    C9442274   0.705   7.815   7.497 -0.5326 -0.5347 -0.0109
  191MOL    H9542275   0.683   0.160   7.594 -0.9697  1.4783 -0.7353
  191MOL    H9642276   0.901   0.214   7.630 -0.0874  2.4470  0.1682
  191MOL    H9742277   0.994   0.094   7.517 -1.1954  0.1924 -1.2821
  191MOL    H9842278   1.002   0.270   7.492  1.5689 -0.4497  1.7697
  191MOL    H9942279   0.797   7.780   7.544  0.5268  1.1377 -0.7712
  191MOL   H10042280   0.703   7.772   7.397  0.3853 -2.1283  0.6362
  191MOL   C10142281   0.595   7.723   7.543  0.6790 -0.2473 -0.3236
  191MOL   C10242282   0.533   7.767   7.675  0.0260 -1.0434  0.0148
  191MOL   O10342283   0.602   7.811   7.767  0.1915  0.7832 -0.2784
  191MOL   C10442284   0.384   7.735   7.689 -0.7929  0.1607 -0.4667
  191MOL   C10542285   0.647   7.575   7.553  0.1681  0.0427 -0.3081
  191MOL   H10642286   0.515   7.730   7.470 -1.7684 -1.9545  2.0827
  191MOL   H10742287   0.352   7.819   7.750 -0.0367 -0.3572  0.6524
  191MOL   H10842288   0.329   7.729   7.595 -0.7041 -2.0044 -0.3999
  191MOL   H10942289   0.372   7.645   7.748  1.2443 -0.2226 -0.5773
  191MOL   H11042290   0.558   7.514   7.564  0.4178 -0.1318  0.8479
  191MOL   H11142291   0.704   7.557   7.644 -1.5267  1.2374  1.0186
  191MOL   C11242292   0.718   7.515   7.425  0.0533  0.6595 -0.3160
  191MOL   C11342293   0.623   7.509   7.306 -0.3531 -0.2436 -0.4541
  191MOL   O11442294   0.505   7.490   7.316  0.2447  0.4142 -0.2845
  191MOL   C11542295   0.680   7.535   7.168 -0.2812  0.4389  0.6906
  191MOL   C11642296   0.771   7.366   7.451  0.3268  0.7004  0.4039
  191MOL   H11742297   0.795   7.582   7.389 -0.3844  0.4435 -1.6999
  191MOL   H11842298   0.636   7.468   7.095 -1.1022  1.8279 -0.1236
  191MOL   H11942299   0.657   7.638   7.139 -0.6751  0.3026  0.5165
  191MOL   H12042300   0.788   7.520   7.168 -0.4274 -0.5927 -0.0950
  191MOL   H12142301   0.766   7.311   7.357  1.0153  1.3198 -0.0087
  191MOL   H12242302   0.702   7.318   7.519  0.6660  0.4869  0.5981
  191MOL   C12342303   0.914   7.366   7.508  0.4754 -0.1476  0.3016
  191MOL   C12442304   1.023   7.428   7.410 -0.3540  0.2048 -0.5842
  191MOL   O12542305   1.044   7.376   7.303  0.1984  0.1429  0.5282
  191MOL   C12642306   1.110   7.547   7.456  0.1459 -0.1012  0.3341
  191MOL   C12742307   0.971   7.226   7.555  0.1532 -0.1851  0.3260
  191MOL   H12842308   0.919   7.443   7.585  0.0995  0.7948 -0.6121
  191MOL   H12942309   1.189   7.506   7.518  1.2085 -0.8490 -1.4499
  191MOL   H13042310   1.152   7.597   7.369 -0.8553  0.3829  0.1130
  191MOL   H13142311   1.051   7.623   7.507 -1.6552 -1.9939  1.1446
  191MOL   H13242312   1.016   7.187   7.464 -0.2122 -0.1094  0.1143
  191MOL   H13342313   0.894   7.155   7.584  0.2768  0.8435  3.3673
  191MOL   C13442314   1.083   7.233   7.667  0.0301  0.1665 -0.1674
  191MOL   C13542315   1.193   7.137   7.636  0.0093 -0.3904 -0.1089
  191MOL   O13642316   1.211   7.041   7.706  0.1034 -0.0374  0.2945
  191MOL   C13742317   1.271   7.156   7.511 -0.9553  0.2193 -0.5969
  191MOL   C13842318   1.023   7.214   7.811 -0.0335 -0.1268  0.6697
  191MOL   H13942319   1.134   7.329   7.665  1.0928 -0.3338  1.8688
  191MOL   H14042320   1.218   7.122   7.421  0.4084  0.3824 -1.4720
  191MOL   H14142321   1.306   7.259   7.505 -2.4822  0.8801  1.4391
  191MOL   H14242322   1.362   7.096   7.509 -0.3159  1.1232  0.9718
  191MOL   H14342323   1.041   7.113   0.007  0.6266  0.0799  0.9176
  191MOL   H14442324   0.916   7.232   7.810 -0.1420 -0.7650 -0.7088
  191MOL   C14542325   1.069   7.320   0.076 -0.6014  0.7963  0.2052
  191MOL   C14642326   1.036   7.458   0.031 -0.1334 -0.0093  0.4355
  191MOL   O14742327   1.111   7.529   7.803 -0.0246  0.1074 -0.2596
  191MOL   C14842328   0.892   7.504   0.033 -0.0318 -0.4508  1.2040
  191MOL   C14942329   1.219   7.302   0.114 -0.9588  0.9307 -0.6665
  191MOL   H15042330   0.999   7.310   0.159  0.7036  0.4727  1.2867
  191MOL   H15142331   0.840   7.495   7.780  1.6570 -0.2535  0.2479
  191MOL   H15242332   0.836   7.456   0.113 -1.2632 -1.7794 -0.4074
  191MOL   H15342333   0.880   7.611   0.044  1.7329 -0.0463 -0.5507
  191MOL   H15442334   1.245   7.392   0.171  0.6826  1.1737 -1.7605
  191MOL   H15542335   1.276   7.309   0.021  0.8494  0.5825  0.4053
  191MOL   C15642336   1.251   7.184   0.208  0.3389 -0.4786  0.5947
  191MOL   C15742337   1.171   7.196   0.337 -0.5849  0.5334  0.0103
  191MOL   O15842338   1.113   7.298   0.378  0.0636 -0.2311 -0.3426
  191MOL   C15942339   1.169   7.081   0.433  0.0644 -0.0504 -0.5736
  191MOL   C16042340   1.401   7.183   0.250 -0.5348 -0.4610 -0.4370
  191MOL   H16142341   1.235   7.087   0.161 -1.4252  0.0481  0.0381
  191MOL   H16242342   1.068   7.061   0.468  0.8157  0.4947  2.0282
  191MOL   H16342343   1.202   6.990   0.384 -1.4575 -1.8756  1.6914
  191MOL   H16442344   1.225   7.103   0.524 -0.7464 -0.9775  0.1576
  191MOL   H16542345   1.419   7.143   0.350  0.5427 -0.7941 -0.7565
  191MOL   H16642346   1.445   7.283   0.258 -0.1461 -0.8687  3.7901
  191MOL   C16742347   1.501   7.110   0.156 -0.8145  1.1767  0.0980
  191MOL   C16842348   1.508   6.954   0.173  0.0631 -0.2071  0.2858
  191MOL   O16942349   1.492   6.903   0.284  0.1571 -0.0554 -1.0020
  191MOL   C17042350   1.543   6.875   0.047  0.3466 -0.6525  0.2001
  191MOL   C17142351   1.648   7.160   0.158  0.0824 -0.5163  0.1666
  191MOL   H17242352   1.470   7.134   0.054 -1.1705  1.5855  0.3027
  191MOL   H17342353   1.565   6.940   7.803 -1.2228  0.2294  0.4536
  191MOL   H17442354   1.623   6.806   0.074 -0.0804 -1.1785  0.1241
  191MOL   H17542355   1.451   6.827   0.015 -0.1481 -0.9045  2.0073
  191MOL   H17642356   1.640   7.268   0.142 -1.8628 -0.4256  1.5754
  191MOL   H17742357   1.703   7.120   0.073  0.0107  0.8016 -0.5124
  191MOL   C17842358   1.733   7.142   0.292 -0.3490  0.0794 -0.2764
  191MOL   C17942359   1.818   7.265   0.311 -0.0774 -0.0369 -0.3068
  191MOL   O18042360   1.835   7.324   0.417  0.1976  0.0831  0.2805
  191MOL   C18142361   1.903   7.314   0.200  0.3861 -0.0079 -0.0378
  191MOL   C18242362   1.833   7.015   0.295  0.5075 -0.4119 -0.2612
  191MOL   H18342363   1.658   7.131   0.370  0.5693  0.6158  0.7001
  191MOL   H18442364   1.940   7.235   0.133  1.2258  0.2502  0.1138
  191MOL   H18542365   1.841   7.389   0.152 -0.6308 -0.8792 -0.1050
  191MOL   H18642366   1.993   7.354   0.246 -0.2256  2.6717 -1.1067
  191MOL   H18742367   1.918   7.053   0.239  1.0971 -0.2451  0.7388
  191MOL   H18842368   1.800   6.925   0.244  0.9522 -1.2617  0.9524
  191MOL   C18942369   1.883   6.973   0.440  1.1734  0.1526 -0.0054
  191MOL   C19042370   1.995   6.873   0.439  0.2913  0.0103  0.0175
  191MOL   O19142371   2.022   6.799   0.339  0.1529  0.4243 -0.1943
  191MOL   C19242372   2.068   6.851   0.561 -0.0267 -0.3798  0.1715
  191MOL   C19342373   1.760   6.923   0.521  0.1220 -0.0515  0.4707
  191MOL   H19442374   1.920   7.067   0.480  1.1812  0.5530 -0.9286
  191MOL   H19542375   2.175   6.842   0.541  0.0154 -0.6501  0.5053
  191MOL   H19642376   2.055   6.931   0.634  0.4857  0.3210 -0.4985
  191MOL   H19742377   2.043   6.757   0.611  0.7561 -0.6631  0.0487
  191MOL   H19842378   1.780   6.836   0.583  0.3882 -0.1631  0.2330
  191MOL   H19942379   1.704   6.869   0.445 -0.0576  0.3119  0.3435
  191MOL   C20042380   1.686   7.031   0.610 -0.4880  0.2745  0.1922
  191MOL   C20142381   1.764   7.071   0.736  0.1500  0.1761  0.0890
  191MOL   O20242382   1.855   6.996   0.777  0.3624 -0.2745  0.0881
  191MOL   C20342383   1.729   7.201   0.812  0.1735 -0.8862 -0.3894
  191MOL   C20442384   1.546   6.975   0.656 -0.3875 -0.4534 -0.6217
  191MOL   H20542385   1.670   7.125   0.558 -3.8102  2.0937  4.1959
  191MOL   H20642386   1.763   7.203   0.916  2.3727 -0.3386 -1.0887
  191MOL   H20742387   1.764   7.293   0.766  1.6438 -0.8268  0.8114
  191MOL   H20842388   1.621   7.215   0.815  0.4343  1.1373  0.7836
  191MOL   H20942389   1.505   6.951   0.557 -0.5913 -3.6776  0.2010
  191MOL   H21042390   1.482   7.055   0.693  0.0624 -0.0156 -0.7799
  191MOL   C21142391   1.544   6.846   0.735  0.2631  0.0169 -0.0549
  191MOL   C21242392   1.455   6.733   0.687  0.1971 -0.0469 -0.3661
  191MOL   O21342393   1.371   6.672   0.754  0.1953  0.0498 -0.3642
  191MOL   C21442394   1.489   6.680   0.551  0.0629 -0.0496  0.0643
  191MOL   C21542395   1.509   6.866   0.887  0.8251  0.0140 -0.1303
  191MOL   H21642396   1.644   6.808   0.753  0.0197 -1.3370 -1.5148
  191MOL   H21742397   1.436   6.758   0.496 -0.9054 -1.0333 -0.4167
  191MOL   H21842398   1.593   6.681   0.518 -0.1148  0.0581 -0.4978
  191MOL   H21942399   1.452   6.581   0.527  1.0060  0.1319 -2.2564
  191MOL   H22042400   1.544   6.956   0.937  1.0865 -0.1504 -0.0173
  191MOL   H22142401   1.537   6.779   0.947 -0.4664 -0.6096 -0.4156
  191MOL   H22242402   1.401   6.877   0.893  0.9267  1.1023 -0.1333
  192MOL     C142403   2.472   7.466   6.658  0.1332 -0.5584 -0.4462
  192MOL     C242404   2.408   7.381   6.769  0.6134  0.5009  0.4062
  192MOL     O342405   2.304   7.321   6.737  0.1780 -0.9007  0.0624
  192MOL     C442406   2.470   7.371   6.910  0.1674 -0.0227  0.0077
  192MOL     C542407   2.433   7.614   6.669 -0.1365  0.1091 -0.4150
  192MOL     H642408   2.578   7.456   6.682  0.2221 -1.4783 -1.2069
  192MOL     H742409   2.387   7.361   6.981 -2.8257 -0.6669 -3.4177
  192MOL     H842410   2.533   7.282   6.909 -1.8983 -1.5438  0.7413
  192MOL     H942411   2.532   7.459   6.925 -0.0385  0.2892 -0.9659
  192MOL    H1042412   2.512   7.668   6.618  1.1054 -1.5911 -0.3359
  192MOL    H1142413   2.458   7.646   6.770  1.3668  2.6339 -1.5486
  192MOL    H1242414   2.453   7.421   6.561  3.0229 -0.9366 -0.8890
  192MOL    C1342415   2.282   7.654   6.649  0.2291 -0.1052 -0.2524
  192MOL    C1442416   2.217   7.594   6.520  0.2971 -0.8416 -0.0410
  192MOL    O1542417   2.277   7.591   6.415 -0.0361  0.1232 -0.2637
  192MOL    C1642418   2.090   7.518   6.526 -0.3556  0.1112 -0.5047
  192MOL    C1742419   2.272   7.810   6.635 -0.3831 -0.5030  0.2625
  192MOL    H1842420   2.221   7.635   6.738 -1.0506  0.1819 -1.0550
  192MOL    H1942421   2.005   7.579   6.558 -0.0262 -0.1656  0.9652
  192MOL    H2042422   2.061   7.461   6.438 -2.4503 -2.1890  1.5859
  192MOL    H2142423   2.106   7.445   6.606  0.4213  1.4911  0.6217
  192MOL    H2242424   2.318   7.832   6.539 -0.0487 -1.1780  0.2635
  192MOL    H2342425   2.343   0.012   6.705 -0.0031  1.2498 -1.1780
  192MOL    C2442426   2.142   0.050   6.671  0.4527  1.0355 -0.0214
  192MOL    C2542427   2.158   0.194   6.623  0.1539 -0.1188  0.1049
  192MOL    O2642428   2.168   0.291   6.700 -0.1864 -0.4637  0.2188
  192MOL    C2742429   2.184   0.215   6.475 -0.7002 -0.0670  0.0933
  192MOL    C2842430   2.110   0.044   6.829 -0.4110 -0.1260 -0.7657
  192MOL    H2942431   2.059   0.008   6.614  0.8383  1.4494 -0.8910
  192MOL    H3042432   2.185   0.319   6.444 -0.6321 -0.3248 -0.7800
  192MOL    H3142433   2.267   0.156   6.438 -2.0835 -4.1300  3.1013
  192MOL    H3242434   2.103   0.173   6.414 -0.6944  0.3088 -0.1765
  192MOL    H3342435   2.139   0.134   6.883  0.7197  0.2658 -2.0056
  192MOL    H3442436   2.176   7.809   6.868 -0.6950  0.5592  1.0994
  192MOL    C3542437   1.956   0.007   6.852 -0.1323  0.1137 -0.3576
  192MOL    C3642438   1.863   0.124   6.820  0.3542  0.4702  0.0640
  192MOL    O3742439   1.787   0.112   6.728 -0.3444 -0.4449  0.0659
  192MOL    C3842440   1.868   0.257   6.899 -0.9195  0.2448  0.5426
  192MOL    C3942441   1.927   7.782   6.991  0.3986 -0.2949  0.4852
  192MOL    H4042442   1.934   7.773   6.778  0.1800  0.4907 -0.8386
  192MOL    H4142443   1.954   0.242   6.965 -0.5877  1.1028  0.3148
  192MOL    H4242444   1.887   0.342   6.834 -1.1456  1.4140  1.9761
  192MOL    H4342445   1.777   0.268   6.957 -0.7159 -2.8738  1.5774
  192MOL    H4442446   1.863   0.010   7.044  2.2147  0.1563  2.1154
  192MOL    H4542447   2.018   7.779   7.050  0.1281  0.1219  0.9286
  192MOL    C4642448   1.880   7.634   6.990 -0.2645 -0.2144 -0.4374
  192MOL    C4742449   1.993   7.543   6.938 -0.2183  0.0756  0.2522
  192MOL    O4842450   1.987   7.505   6.823  0.0653  0.4342 -0.0541
  192MOL    C4942451   2.093   7.483   7.033 -0.1659  0.2395  0.1188
  192MOL    C5042452   1.745   7.620   6.917  0.1668 -0.1012 -0.5021
  192MOL    H5142453   1.867   7.602   7.093  0.9357 -0.9798 -0.5115
  192MOL    H5242454   2.062   7.506   7.135 -3.3100  0.1748 -0.7683
  192MOL    H5342455   2.102   7.376   7.012 -0.6426  0.7724 -3.0887
  192MOL    H5442456   2.183   7.542   7.014 -1.0764  1.7341  0.3722
  192MOL    H5542457   1.732   7.514   6.895  1.9232 -0.4262 -0.0981
  192MOL    H5642458   1.750   7.664   6.817 -1.2659  4.2486  1.2152
  192MOL    C5742459   1.625   7.682   6.995  0.2047  0.4450 -0.2613
  192MOL    C5842460   1.581   7.593   7.110 -0.6842  0.1635  0.1359
  192MOL    O5942461   1.491   7.509   7.098 -0.4891 -0.5241  0.1806
  192MOL    C6042462   1.653   7.618   7.244  0.0882  0.4847 -0.8266
  192MOL    C6142463   1.510   7.721   6.899  0.3202 -0.1699 -0.2655
  192MOL    H6242464   1.663   7.771   7.046 -2.9926  1.2696  0.7781
  192MOL    H6342465   1.739   7.552   7.254  0.8343  1.7014  0.9812
  192MOL    H6442466   1.705   7.714   7.245  1.7187 -0.3694  1.3377
  192MOL    H6542467   1.598   7.615   7.338  0.9601  0.0795 -0.3253
  192MOL    H6642468   1.443   7.639   6.873  0.0074  0.8649 -2.9172
  192MOL    H6742469   1.556   7.737   6.801 -0.6732  0.4150 -0.6506
  192MOL    C6842470   1.413   7.841   6.951  0.2578  0.0328 -0.3136
  192MOL    C6942471   1.482   0.132   6.938  0.1600 -0.6838  0.1564
  192MOL    O7042472   1.562   0.180   7.024 -0.7965 -0.0983  0.5121
  192MOL    C7142473   1.468   0.213   6.806  0.8989  0.2593  0.0793
  192MOL    C7242474   1.354   7.825   7.092  0.2013  0.2505 -0.8497
  192MOL    H7342475   1.328   7.839   6.883  1.0420 -1.7505 -1.3027
  192MOL    H7442476   1.372   0.205   6.756  1.1270 -3.1385  0.0776
  192MOL    H7542477   1.496   0.318   6.815  0.9438  0.0803  2.3058
  192MOL    H7642478   1.532   0.160   6.735  1.5035  0.1567  0.6992
  192MOL    H7742479   1.439   7.832   7.161  1.6115  2.6548 -2.7650
  192MOL    H7842480   1.317   7.723   7.109  3.1893 -1.0811 -1.8881
  192MOL    C7942481   1.243   0.077   7.129 -0.6841 -0.3868 -0.1652
  192MOL    C8042482   1.202   0.073   7.274 -0.1865 -0.6271 -0.6463
  192MOL    O8142483   1.105   0.018   7.318 -0.5931 -0.3216  0.3447
  192MOL    C8242484   1.300   0.150   7.368  0.0486 -0.3502  0.0674
  192MOL    C8342485   1.114   0.057   7.041  0.5786  0.1544 -0.1745
  192MOL    H8442486   1.277   0.178   7.106 -0.7503 -0.4721 -0.6381
  192MOL    H8542487   1.396   0.099   7.381  0.2578 -0.4735 -1.7923
  192MOL    H8642488   1.312   0.249   7.323  0.3321  0.4884  1.9478
  192MOL    H8742489   1.258   0.156   7.469 -0.5949 -0.9714 -0.1591
  192MOL    H8842490   1.056   7.811   7.069  1.9303 -0.1590  1.7491
  192MOL    H8942491   1.139   0.042   6.936 -1.3180 -3.9919 -0.1422
  192MOL    C9042492   1.011   0.171   7.051  0.3005 -0.2086  0.1599
  192MOL    C9142493   0.885   0.137   6.971 -0.0594 -0.1283 -0.0320
  192MOL    O9242494   0.891   0.121   6.852 -0.2397 -0.5067 -0.0395
  192MOL    C9342495   0.752   0.127   7.050 -0.5695 -0.5266 -0.7378
  192MOL    C9442496   1.063   0.306   6.988 -0.3488 -0.0416  0.2221
  192MOL    H9542497   0.992   0.183   7.157 -0.3379 -2.4219  0.3133
  192MOL    H9642498   0.763   0.089   7.151  2.7052  0.8796 -0.5170
  192MOL    H9742499   0.706   0.226   7.051 -2.5085 -1.3973  1.0320
  192MOL    H9842500   0.683   0.062   6.996 -0.2864  0.0632 -1.8310
  192MOL    H9942501   1.009   0.342   6.900  0.3272  1.8433  0.5578
  192MOL   H10042502   1.168   0.290   6.964  0.2423  1.4125  1.7187
  192MOL   C10142503   1.070   0.417   7.087 -0.5807 -0.1220 -0.1668
  192MOL   C10242504   0.937   0.484   7.127 -0.0816 -0.1880 -0.4938
  192MOL   O10342505   0.830   0.468   7.064  0.2453 -0.4921 -0.1701
  192MOL   C10442506   0.935   0.567   7.252  0.5490 -0.6160 -0.0046
  192MOL   C10542507   1.181   0.517   7.054  0.4318 -0.6118  1.5002
  192MOL   H10642508   1.099   0.372   7.181 -2.0004 -0.5967  0.0681
  192MOL   H10742509   1.035   0.607   7.269  0.1423  0.0021  1.0193
  192MOL   H10842510   0.854   0.638   7.234 -0.8374 -1.7055  1.7110
  192MOL   H10942511   0.916   0.502   7.338 -0.4610 -1.0485 -0.5475
  192MOL   H11042512   1.275   0.466   7.035 -0.0838 -1.6981  1.8081
  192MOL   H11142513   1.199   0.573   7.146 -0.3676  2.7236 -0.2832
  192MOL   C11242514   1.152   0.618   6.937 -0.4645  0.2267  0.0051
  192MOL   C11342515   1.154   0.556   6.798  0.0055 -0.1519  0.2609
  192MOL   O11442516   1.251   0.499   6.755  0.1466  0.4748  0.4908
  192MOL   C11542517   1.025   0.580   6.718  0.4891  0.6127  0.5941
  192MOL   C11642518   1.278   0.719   6.932 -0.1138  0.9301 -0.4086
  192MOL   H11742519   1.053   0.662   6.941 -0.8299 -0.5297 -0.5955
  192MOL   H11842520   1.016   0.500   6.644 -1.4034  0.3538  1.0912
  192MOL   H11942521   0.942   0.567   6.787 -0.2850  0.1521 -0.4041
  192MOL   H12042522   1.025   0.679   6.673 -0.5194  0.8451  1.0950
  192MOL   H12142523   1.263   0.791   6.851 -0.1195  0.3179 -0.9566
  192MOL   H12242524   1.368   0.659   6.913 -0.7053 -0.1807  0.2607
  192MOL   C12342525   1.300   0.795   7.070  0.3720  1.0100  0.5241
  192MOL   C12442526   1.184   0.890   7.105  0.1876  0.6563  0.0653
  192MOL   O12542527   1.133   0.892   7.219 -0.3818 -0.1121  0.1106
  192MOL   C12642528   1.138   0.988   6.995  0.4013  0.3389  0.0655
  192MOL   C12742529   1.430   0.881   7.068  0.8864  0.4398 -0.1401
  192MOL   H12842530   1.320   0.723   7.150  1.1960  1.1414  0.4344
  192MOL   H12942531   1.224   1.046   6.962 -0.6686  0.5381 -2.4282
  192MOL   H13042532   1.089   0.924   6.921 -0.3798 -0.5670  1.3320
  192MOL   H13142533   1.062   1.053   7.038 -0.6054  0.1960 -1.4883
  192MOL   H13242534   1.421   0.987   7.093 -0.0973  0.2645  0.2422
  192MOL   H13342535   1.459   0.880   6.963  2.2698  1.9298  0.1931
  192MOL   C13442536   1.550   0.837   7.149 -0.5338  0.1151  0.0131
  192MOL   C13542537   1.609   0.696   7.107  0.0981 -0.0023  0.4570
  192MOL   O13642538   1.569   0.594   7.169 -0.5968  0.3483 -0.1035
  192MOL   C13742539   1.722   0.692   7.002 -0.6211  0.3858  0.0634
  192MOL   C13842540   1.528   0.836   7.299  0.2559 -0.8705 -0.2166
  192MOL   H13942541   1.636   0.902   7.129 -0.7921  1.1686  2.2128
  192MOL   H14042542   1.799   0.756   7.046  1.0365 -1.6617  0.1960
  192MOL   H14142543   1.741   0.590   6.971  2.0347  0.0306  2.6578
  192MOL   H14242544   1.678   0.742   6.916  0.4692 -0.8060 -1.1927
  192MOL   H14342545   1.611   0.785   7.349 -2.0972 -2.3831  2.3300
  192MOL   H14442546   1.444   0.768   7.317 -1.3151  0.9816 -0.4588
  192MOL   C14542547   1.488   0.975   7.364 -0.4285 -0.4212  0.3670
  192MOL   C14642548   1.600   1.079   7.334  0.0034 -0.4674  0.8062
  192MOL   O14742549   1.721   1.055   7.353 -0.0836 -0.0959  0.3643
  192MOL   C14842550   1.554   1.219   7.290 -0.8854 -0.2387  0.1022
  192MOL   C14942551   1.438   0.994   7.512  0.3204  0.2700 -0.2024
  192MOL   H15042552   1.407   1.009   7.300  1.5185  0.9966 -1.4297
  192MOL   H15142553   1.525   1.275   7.379 -1.2240 -0.1016 -0.0937
  192MOL   H15242554   1.638   1.262   7.236 -2.2723  0.6653 -1.3750
  192MOL   H15342555   1.472   1.219   7.218 -1.6043 -0.5076  0.9144
  192MOL   H15442556   1.348   0.936   7.533 -1.1267  1.8292 -1.9637
  192MOL   H15542557   1.409   1.099   7.514 -1.6305 -0.2410 -0.3236
  192MOL   C15642558   1.546   0.973   7.625 -0.8813 -0.3310  0.5865
  192MOL   C15742559   1.612   0.836   7.616  0.1994 -0.4585 -0.4821
  192MOL   O15842560   1.552   0.729   7.631 -0.2873  0.5172 -0.6458
  192MOL   C15942561   1.765   0.837   7.591  0.2878  0.6392 -0.0849
  192MOL   C16042562   1.501   1.007   7.769  0.2870 -0.1074  0.1002
  192MOL   H16142563   1.623   1.047   7.603  0.0560 -1.0995  1.2106
  192MOL   H16242564   1.801   0.939   7.606  4.2956 -0.8340  0.9833
  192MOL   H16342565   1.831   0.778   7.655  0.7222  0.9443 -0.2462
  192MOL   H16442566   1.791   0.806   7.490 -0.4339  1.0502 -0.3951
  192MOL   H16542567   1.490   0.910   7.818  2.0817 -0.7026 -0.6518
  192MOL   H16642568   1.410   1.067   7.760  0.0307 -0.4733  0.2249
  192MOL   C16742569   1.590   1.098   0.020  0.4889  0.7260  0.6062
  192MOL   C16842570   1.614   1.242   7.801  0.4515 -0.2821 -0.3219
  192MOL   O16942571   1.589   1.265   7.687 -0.6679  0.1272  0.0351
  192MOL   C17042572   1.649   1.354   0.051 -0.0689  0.3168  0.5216
  192MOL   C17142573   1.722   1.029   0.051  0.1252  0.0408 -0.1901
  192MOL   H17242574   1.539   1.111   0.115  0.8132 -0.6810  0.9844
  192MOL   H17342575   1.749   1.383   0.017  0.9140 -3.5822 -0.2300
  192MOL   H17442576   1.591   1.443   0.027  0.5890  0.6541  0.1489
  192MOL   H17542577   1.634   1.336   0.157  1.7754 -0.1472  0.7216
  192MOL   H17642578   1.787   1.050   7.808 -0.6297  2.2020 -0.2431
  192MOL   H17742579   1.702   0.921   0.047 -1.2524  0.1093  2.9933
  192MOL   C17842580   1.787   1.058   0.184  1.0085  0.2061 -0.3860
  192MOL   C17942581   1.923   0.973   0.182 -0.0715  0.7646 -0.0227
  192MOL   O18042582   1.919   0.853   0.160  0.2763  0.0722 -0.2034
  192MOL   C18142583   2.051   1.050   0.204 -0.1108  0.3376 -0.1252
  192MOL   C18242584   1.700   1.032   0.318 -0.0318 -0.8470  0.2494
  192MOL   H18342585   1.812   1.164   0.177 -3.2710  1.3598  0.2256
  192MOL   H18442586   2.086   1.096   0.112  1.9466  2.2914  1.5825
  192MOL   H18542587   2.030   1.128   0.277  0.2615  0.7591 -0.4737
  192MOL   H18642588   2.128   0.985   0.246 -1.2127 -1.3162 -0.5844
  192MOL   H18742589   1.597   1.065   0.309  0.0255 -1.1258 -1.8027
  192MOL   H18842590   1.745   1.095   0.395  0.5524 -0.4359 -0.4177
  192MOL   C18942591   1.694   0.884   0.370 -1.1245  0.9336  0.0323
  192MOL   C19042592   1.610   0.795   0.280  0.5565 -0.3954 -0.4443
  192MOL   O19142593   1.517   0.841   0.218 -0.3866  0.1787 -0.1093
  192MOL   C19242594   1.672   0.664   0.243 -0.3503 -0.5547  0.5585
  192MOL   C19342595   1.648   0.880   0.523 -0.4636  0.4894 -0.7512
  192MOL   H19442596   1.797   0.850   0.371 -1.3162  0.3281  2.0253
  192MOL   H19542597   1.639   0.578   0.302  0.9956 -2.3758 -1.2575
  192MOL   H19642598   1.624   0.639   0.148  1.1219 -0.0797 -0.3293
  192MOL   H19742599   1.780   0.659   0.233 -0.5768 -2.5050 -1.1614
  192MOL   H19842600   1.555   0.933   0.542 -0.7664 -0.8053  1.4616
  192MOL   H19942601   1.729   0.945   0.558  0.6245  0.2640 -2.7656
  192MOL   C20042602   1.651   0.749   0.599  0.6388 -0.4238  0.0281
  192MOL   C20142603   1.547   0.743   0.712  0.3099  0.5123 -0.3589
  192MOL   O20242604   1.532   0.840   0.790  0.2663 -0.1369 -0.4549
  192MOL   C20342605   1.465   0.618   0.720  0.6195  0.0458  0.2721
  192MOL   C20442606   1.793   0.712   0.647  0.0950  0.2332  0.3156
  192MOL   H20542607   1.611   0.671   0.535 -0.2536 -0.4550  0.6142
  192MOL   H20642608   1.393   0.623   0.639  0.5803 -0.9032  0.2431
  192MOL   H20742609   1.522   0.526   0.711  2.5357  1.2918 -0.7421
  192MOL   H20842610   1.403   0.618   0.810 -0.5228 -0.6928 -0.4999
  192MOL   H20942611   1.831   0.790   0.713  0.3052  1.6710 -1.4796
  192MOL   H21042612   1.864   0.733   0.567  1.5241 -0.1554  1.4499
  192MOL   C21142613   1.816   0.566   0.698  0.5269 -0.3544 -0.5510
  192MOL   C21242614   1.945   0.549   0.773 -0.2140 -0.0453  0.2514
  192MOL   O21342615   2.053   0.596   0.737  0.2194 -0.5992 -0.0394
  192MOL   C21442616   1.931   0.478   0.907 -0.1395 -0.0562  0.4787
  192MOL   C21542617   1.798   0.457   0.590  1.0662 -1.0169  0.3970
  192MOL   H21642618   1.746   0.551   0.780 -0.0212  3.2595 -0.2639
  192MOL   H21742619   1.862   0.394   0.900 -0.9633  0.6088  0.5346
  192MOL   H21842620   2.027   0.445   0.947  0.5584 -0.6910 -1.6254
  192MOL   H21942621   1.877   0.556   0.960 -0.8723 -0.1833 -0.0707
  192MOL   H22042622   1.695   0.441   0.559  0.4600 -0.2751  1.9230
  192MOL   H22142623   1.849   0.364   0.613  0.3084 -2.1724 -2.3990
  192MOL   H22242624   1.849   0.492   0.500  0.6510  1.8978  1.2226
  193MOL     C142625   3.932   4.463   2.077  1.1702  0.1986 -0.1414
  193MOL     C242626   3.949   4.619   2.087 -0.4902  0.0562  0.3309
  193MOL     O342627   3.875   4.702   2.030  0.2596 -0.1176  0.0773
  193MOL     C442628   4.073   4.661   2.167  0.2091  0.0788  0.2591
  193MOL     C542629   3.851   4.419   1.945 -0.3384 -0.4094  0.0286
  193MOL     H642630   4.027   4.411   2.094  1.7236 -0.5753 -4.8364
  193MOL     H742631   4.096   4.588   2.245  1.1507  1.0857  0.9472
  193MOL     H842632   4.167   4.657   2.111  2.0328  0.3957  3.1800
  193MOL     H942633   4.062   4.757   2.219 -0.0454 -0.5214  1.3321
  193MOL    H1042634   3.883   4.476   1.858  1.6825 -0.5898  0.6217
  193MOL    H1142635   3.745   4.445   1.944 -0.0730  0.7004 -1.8212
  193MOL    H1242636   3.864   4.447   2.160  0.2808 -1.3466 -1.1373
  193MOL    C1342637   3.855   4.267   1.921 -0.2511  0.1081  0.0967
  193MOL    C1442638   3.758   4.197   2.019 -0.4077  0.0407 -0.1581
  193MOL    O1542639   3.807   4.121   2.103 -0.4132 -0.1292 -0.2466
  193MOL    C1642640   3.607   4.228   2.026 -0.8519 -0.2228  0.1170
  193MOL    C1742641   3.994   4.201   1.919 -0.2822 -0.3429 -0.6399
  193MOL    H1842642   3.821   4.251   1.819 -2.2296 -2.0814  1.0521
  193MOL    H1942643   3.559   4.182   2.112 -2.2269 -0.1191 -0.5750
  193MOL    H2042644   3.591   4.335   2.040  0.6521  0.1386 -0.8270
  193MOL    H2142645   3.565   4.203   1.929  2.4139 -0.0995 -1.4016
  193MOL    H2242646   4.035   4.208   2.020  0.0362 -0.4059 -0.7647
  193MOL    H2342647   4.072   4.259   1.871  0.6599 -0.1102  1.1247
  193MOL    C2442648   4.001   4.062   1.867 -0.7232  0.4772  0.3789
  193MOL    C2542649   4.106   3.967   1.932 -0.0939 -0.0988  0.1354
  193MOL    O2642650   4.188   3.902   1.866  0.2910  0.4447  0.2176
  193MOL    C2742651   4.109   3.946   2.077  0.2475  0.6444 -0.2334
  193MOL    C2842652   4.028   4.064   1.717 -0.0854 -0.5763  0.2968
  193MOL    H2942653   3.911   4.002   1.883 -1.3899  0.6831 -2.3673
  193MOL    H3042654   4.015   3.925   2.128  0.4873 -0.6573 -0.3349
  193MOL    H3142655   4.180   3.864   2.080 -1.2672 -0.6808  0.2068
  193MOL    H3242656   4.154   4.022   2.140  2.5407 -2.5674  2.1411
  193MOL    H3342657   4.134   4.083   1.704 -0.2989 -0.4171 -1.2692
  193MOL    H3442658   3.985   4.150   1.666 -1.0562 -1.5341 -0.5445
  193MOL    C3542659   3.988   3.937   1.640 -0.2189  0.3177  0.2042
  193MOL    C3642660   4.038   3.952   1.496  0.1912  0.3350  0.7372
  193MOL    O3742661   4.069   4.056   1.444 -0.3686 -0.1044  0.3373
  193MOL    C3842662   4.051   3.825   1.419  0.2779  0.2648  0.0711
  193MOL    C3942663   3.836   3.908   1.643 -0.1805  1.1606 -0.2458
  193MOL    H4042664   4.039   3.849   1.678  0.8619  0.3242 -1.2138
  193MOL    H4142665   4.008   3.748   1.482  0.5134 -0.6294 -0.8583
  193MOL    H4242666   4.005   3.812   1.321 -0.5912  0.3907  0.4624
  193MOL    H4342667   4.149   3.779   1.403  0.2895  0.2287  0.2449
  193MOL    H4442668   3.801   3.899   1.746  3.3225  1.0686  1.0120
  193MOL    H4542669   3.814   3.812   1.598 -0.0379  1.0321 -0.0407
  193MOL    C4642670   3.752   4.014   1.560  0.2723  0.2936  0.4191
  193MOL    C4742671   3.633   4.078   1.634  0.1493  0.0987 -0.5599
  193MOL    O4842672   3.632   4.197   1.641 -0.4575 -0.1084  0.5281
  193MOL    C4942673   3.521   3.991   1.691 -0.2787 -0.0187  0.4831
  193MOL    C5042674   3.690   3.954   1.429  0.0411 -0.5951 -0.1521
  193MOL    H5142675   3.811   4.099   1.526  0.9963 -0.6340 -0.6447
  193MOL    H5242676   3.546   3.995   1.797  0.7669  1.3831  0.1862
  193MOL    H5342677   3.425   4.036   1.666 -1.0372 -2.2973 -0.8860
  193MOL    H5442678   3.523   3.887   1.656  3.2431  0.5192 -1.0696
  193MOL    H5542679   3.608   3.885   1.448  0.4427 -1.6167 -1.9714
  193MOL    H5642680   3.764   3.886   1.386  4.2271  3.1425  0.7408
  193MOL    C5742681   3.657   4.056   1.319  0.3566 -0.1141 -0.0393
  193MOL    C5842682   3.575   3.989   1.207  0.0222 -0.5913  0.0608
  193MOL    O5942683   3.637   3.911   1.130  0.3291 -0.0061 -0.1532
  193MOL    C6042684   3.425   4.015   1.189 -0.7180 -0.4714 -0.2562
  193MOL    C6142685   3.784   4.137   1.272  0.5217  0.6419 -0.1468
  193MOL    H6242686   3.579   4.123   1.355 -0.1109 -1.1700  0.9280
  193MOL    H6342687   3.391   4.051   1.286  0.9171  1.2746 -0.3132
  193MOL    H6442688   3.398   4.085   1.110  1.3857 -0.8084 -1.3031
  193MOL    H6542689   3.385   3.918   1.158 -1.5719 -0.1371 -0.2082
  193MOL    H6642690   3.832   4.106   1.179 -0.2336  1.5121 -0.8328
  193MOL    H6742691   3.873   4.126   1.335  0.4524  3.2583  0.4481
  193MOL    C6842692   3.762   4.287   1.276 -0.1944  0.3671 -0.0962
  193MOL    C6942693   3.683   4.344   1.158 -0.0751 -0.8517  0.0159
  193MOL    O7042694   3.568   4.388   1.171  0.2822 -0.0814  0.0905
  193MOL    C7142695   3.761   4.363   1.026  0.7845  0.5282  0.5967
  193MOL    C7242696   3.886   4.375   1.305  0.2601 -0.0073 -0.4542
  193MOL    H7342697   3.715   4.304   1.373 -1.6802  3.1544 -1.2318
  193MOL    H7442698   3.721   4.303   0.944  1.7257 -1.1139  1.3338
  193MOL    H7542699   3.769   4.468   0.999 -0.4345  0.5280  0.2001
  193MOL    H7642700   3.861   4.323   1.041  0.9330  0.4946 -0.4614
  193MOL    H7742701   3.945   4.365   1.214 -0.0801  1.6834 -0.8645
  193MOL    H7842702   3.944   4.335   1.388 -1.1505 -0.7393  0.1996
  193MOL    C7942703   3.851   4.525   1.329 -0.0955  0.3386  0.6511
  193MOL    C8042704   3.981   4.608   1.316 -0.6998 -0.0581  0.0698
  193MOL    O8142705   4.097   4.560   1.332  0.4799  0.0632 -0.2973
  193MOL    C8242706   3.967   4.759   1.283  1.3222  0.5355 -0.7252
  193MOL    C8342707   3.788   4.538   1.473 -0.3793  0.5773  0.0525
  193MOL    H8442708   3.781   4.554   1.251  0.3415 -3.4281 -1.2774
  193MOL    H8542709   4.065   4.792   1.248  2.8103  0.0877  2.7647
  193MOL    H8642710   3.887   4.758   1.210  1.2088  0.3633 -0.5975
  193MOL    H8742711   3.939   4.819   1.370 -0.4296 -1.0862 -0.1464
  193MOL    H8842712   3.838   4.608   1.540 -0.4409  0.1678  0.5210
  193MOL    H8942713   3.804   4.436   1.506  0.5451 -0.3310 -2.9855
  193MOL    C9042714   3.634   4.551   1.476  0.1173 -0.2779  0.4650
  193MOL    C9142715   3.588   4.674   1.394 -0.1318 -0.3197  0.0550
  193MOL    O9242716   3.669   4.766   1.375  0.1731 -0.8649 -0.2306
  193MOL    C9342717   3.461   4.668   1.322  0.2295  0.5554  0.3967
  193MOL    C9442718   3.595   4.567   1.624  0.5242 -0.2985 -0.1314
  193MOL    H9542719   3.601   4.456   1.435  0.7033 -1.6974  3.2145
  193MOL    H9642720   3.395   4.587   1.351 -1.0881  1.6214  0.4225
  193MOL    H9742721   3.404   4.759   1.339  0.1955  0.8405 -1.1531
  193MOL    H9842722   3.472   4.664   1.214  0.0842 -0.3552  0.4176
  193MOL    H9942723   3.619   4.667   1.661  2.3243 -0.0369 -1.9183
  193MOL   H10042724   3.664   4.504   1.682  3.2548  1.5628 -1.2792
  193MOL   C10142725   3.446   4.553   1.666  0.0319 -0.0595  0.0243
  193MOL   C10242726   3.431   4.590   1.820 -0.0073 -0.0642  0.3424
  193MOL   O10342727   3.449   4.504   1.906 -0.3043 -0.4295  0.1321
  193MOL   C10442728   3.367   4.719   1.852  0.4768  0.7211 -0.6612
  193MOL   C10542729   3.388   4.413   1.637 -0.2834 -0.4441 -0.6213
  193MOL   H10642730   3.386   4.626   1.612  0.8389 -0.1386 -0.9996
  193MOL   H10742731   3.435   4.776   1.915 -2.8804  2.7073  1.3275
  193MOL   H10842732   3.346   4.781   1.765 -3.5109  0.5573  0.1082
  193MOL   H10942733   3.279   4.704   1.915  0.3100 -0.9649 -1.2726
  193MOL   H11042734   3.428   4.345   1.713 -2.8828 -0.0016  1.1855
  193MOL   H11142735   3.424   4.380   1.539  0.7631  1.3799 -0.8739
  193MOL   C11242736   3.230   4.396   1.643 -0.1131 -0.5935 -0.7555
  193MOL   C11342737   3.196   4.250   1.657  0.1859  0.4388 -0.7168
  193MOL   O11442738   3.182   4.177   1.556  0.0970 -0.1765  0.5620
  193MOL   C11542739   3.166   4.197   1.797 -0.4397  0.2999  0.2508
  193MOL   C11642740   3.155   4.457   1.533 -0.0989  0.0269 -0.3529
  193MOL   H11742741   3.203   4.443   1.738  0.0559  0.2436 -1.1142
  193MOL   H11842742   3.069   4.146   1.796 -0.8183  1.0104  0.5642
  193MOL   H11942743   3.238   4.130   1.843  0.5078  0.3887 -1.0819
  193MOL   H12042744   3.149   4.284   1.860 -0.3117  0.2442  0.3603
  193MOL   H12142745   3.144   4.391   1.447 -1.3098  0.3910 -0.4765
  193MOL   H12242746   3.220   4.540   1.505 -0.5725  0.3684 -0.4315
  193MOL   C12342747   3.016   4.517   1.570  0.2356 -0.2597  0.3977
  193MOL   C12442748   2.905   4.417   1.580 -1.4166 -0.1806 -0.3313
  193MOL   O12542749   2.845   4.401   1.688 -0.1732  0.0442  0.2528
  193MOL   C12642750   2.846   4.346   1.458  0.0596  0.0445 -0.2982
  193MOL   C12742751   2.985   4.630   1.475 -0.1944  0.4083  0.0740
  193MOL   H12842752   3.019   4.559   1.671 -1.3534 -0.7384  0.6557
  193MOL   H12942753   2.771   4.272   1.484  0.3880 -0.3742 -0.5300
  193MOL   H13042754   2.792   4.412   1.389 -0.6469 -0.7340 -0.4951
  193MOL   H13142755   2.917   4.285   1.402 -0.6166 -1.1705  0.1388
  193MOL   H13242756   2.886   4.620   1.430  0.6434  0.1069 -1.7446
  193MOL   H13342757   3.040   4.625   1.381  0.4773  1.4192  0.4157
  193MOL   C13442758   2.967   4.770   1.537 -0.2641 -0.4101 -0.4050
  193MOL   C13542759   3.089   4.809   1.619  0.1449 -0.0487  0.1714
  193MOL   O13642760   3.086   4.816   1.741  0.8480 -0.0564  0.6148
  193MOL   C13742761   3.218   4.834   1.538  0.0561  0.4170  0.7416
  193MOL   C13842762   2.845   4.787   1.619  0.4430 -0.4374 -0.5129
  193MOL   H13942763   2.961   4.840   1.453  0.3080 -0.5705 -0.5791
  193MOL   H14042764   3.193   4.884   1.444 -1.4102 -0.4255  0.6642
  193MOL   H14142765   3.299   4.878   1.596 -0.5196 -1.4101  3.0152
  193MOL   H14242766   3.256   4.743   1.493  0.7209  1.0289  0.0617
  193MOL   H14342767   2.858   4.868   1.691 -2.3219 -0.0536 -0.4070
  193MOL   H14442768   2.842   4.694   1.677 -0.8349 -0.8465 -1.2118
  193MOL   C14542769   2.708   4.814   1.554 -0.0165  0.0142 -0.0779
  193MOL   C14642770   2.701   4.959   1.515  0.2362 -0.3390  0.2793
  193MOL   O14742771   2.632   5.042   1.577 -0.1795  0.3141 -0.6872
  193MOL   C14842772   2.762   5.001   1.383  0.6406  0.3558  0.3694
  193MOL   C14942773   2.587   4.784   1.657  0.4582  0.0932  0.5551
  193MOL   H15042774   2.685   4.768   1.458 -1.3445 -0.2188  0.3455
  193MOL   H15142775   2.830   5.085   1.400  2.4207 -1.2108  1.1417
  193MOL   H15242776   2.815   4.927   1.322  0.5293 -0.2638  1.0245
  193MOL   H15342777   2.677   5.031   1.322 -2.1620 -3.2242  2.3675
  193MOL   H15442778   2.493   4.799   1.603  1.5854 -4.7195 -3.0256
  193MOL   H15542779   2.583   4.863   1.732  1.1254 -0.6378  1.3568
  193MOL   C15642780   2.576   4.641   1.715  0.0030 -0.1346  0.1848
  193MOL   C15742781   2.558   4.534   1.604  0.1672  0.4621  0.2300
  193MOL   O15842782   2.566   4.561   1.487 -0.1238  0.4505 -0.9696
  193MOL   C15942783   2.535   4.384   1.649  0.4670  0.4150  0.3378
  193MOL   C16042784   2.479   4.640   1.834  0.3454 -0.3840  0.4550
  193MOL   H16142785   2.670   4.609   1.761  0.2969 -2.0810 -1.6799
  193MOL   H16242786   2.611   4.314   1.617  0.7333  0.7092  0.3249
  193MOL   H16342787   2.529   4.395   1.757  0.8149  1.3713  0.2650
  193MOL   H16442788   2.433   4.349   1.630  0.6280 -0.7411  1.5721
  193MOL   H16542789   2.390   4.605   1.782  0.8604 -0.9436 -0.0642
  193MOL   H16642790   2.455   4.744   1.856  1.1470 -0.0633 -0.1476
  193MOL   C16742791   2.518   4.556   1.955 -0.2034  0.4601 -0.4168
  193MOL   C16842792   2.409   4.452   2.005 -0.1460  0.1469 -0.0432
  193MOL   O16942793   2.448   4.340   2.029  0.2370 -0.2545 -0.0210
  193MOL   C17042794   2.262   4.483   2.010 -0.1546  0.0618  0.2553
  193MOL   C17142795   2.550   4.648   2.077 -1.1366  0.2000 -0.7150
  193MOL   H17242796   2.605   4.498   1.922  0.3533  1.7921 -1.3371
  193MOL   H17342797   2.219   4.421   1.932 -0.6117  1.7205 -0.8389
  193MOL   H17442798   2.211   4.447   2.100 -0.7390 -0.7368 -0.3906
  193MOL   H17542799   2.239   4.585   1.978 -1.3588 -0.4366 -0.5061
  193MOL   H17642800   2.571   4.588   2.165 -0.1286 -0.2249 -1.2362
  193MOL   H17742801   2.467   4.712   2.105 -1.1594 -0.3266  0.4356
  193MOL   C17842802   2.674   4.736   2.064  0.2139 -0.1133 -0.3131
  193MOL   C17942803   2.801   4.653   2.063  0.6057  1.0418  0.1379
  193MOL   O18042804   2.829   4.570   2.156  0.2050  0.1648  0.2181
  193MOL   C18142805   2.899   4.675   1.948 -0.7270 -0.0003 -0.0434
  193MOL   C18242806   2.674   4.842   2.176 -0.1453  0.2850  0.2110
  193MOL   H18342807   2.661   4.781   1.965  0.0451 -0.2396 -0.3473
  193MOL   H18442808   2.933   4.577   1.915 -1.0766 -0.7197  1.6793
  193MOL   H18542809   2.847   4.731   1.870 -1.6269 -1.6721 -0.6714
  193MOL   H18642810   2.981   4.733   1.990 -0.0487  0.3771 -1.8558
  193MOL   H18742811   2.712   4.799   2.268 -4.4388 -0.5179  1.7502
  193MOL   H18842812   2.570   4.873   2.191  0.1355  1.3982 -0.0406
  193MOL   C18942813   2.757   4.971   2.144 -0.0985  0.5464 -0.1121
  193MOL   C19042814   2.800   5.046   2.273 -0.2436 -0.6078  0.2262
  193MOL   O19142815   2.739   5.151   2.305  0.8185 -0.3285  0.3359
  193MOL   C19242816   2.917   4.979   2.348 -0.1568 -0.0898  0.3126
  193MOL   C19342817   2.690   5.062   2.038  0.5697 -0.1738  0.1975
  193MOL   H19442818   2.851   4.936   2.099  0.7110  0.5497  1.5463
  193MOL   H19542819   2.951   4.884   2.306  1.0686  0.2857  0.4433
  193MOL   H19642820   3.015   5.026   2.343  0.0556 -0.6104 -0.6004
  193MOL   H19742821   2.896   4.962   2.453 -1.1249 -1.1339 -0.0340
  193MOL   H19842822   2.601   5.109   2.079 -0.3861 -0.6415 -1.3079
  193MOL   H19942823   2.651   5.000   1.958 -0.7236 -0.2996  0.9243
  193MOL   C20042824   2.789   5.170   1.987  0.2480  0.3200 -0.3528
  193MOL   C20142825   2.708   5.293   1.943  0.0454  0.0740  0.3813
  193MOL   O20242826   2.641   5.296   1.841 -0.0827 -0.2815  0.3243
  193MOL   C20342827   2.730   5.433   2.009  0.1114  0.0919  1.1348
  193MOL   C20442828   2.878   5.108   1.870  0.5276  0.2322  0.2266
  193MOL   H20542829   2.848   5.204   2.072  0.2535  0.1305 -0.2803
  193MOL   H20642830   2.732   5.404   2.114 -2.7117 -0.0970  1.1577
  193MOL   H20742831   2.827   5.481   1.993  1.4048 -2.5590  0.7203
  193MOL   H20842832   2.652   5.507   1.995  0.0810 -0.1830 -0.3056
  193MOL   H20942833   2.812   5.081   1.788  0.4255  0.2222  0.3127
  193MOL   H21042834   2.921   5.013   1.901  0.2232  0.3575  1.0340
  193MOL   C21142835   2.993   5.191   1.812 -0.4919 -0.6134 -0.0255
  193MOL   C21242836   3.007   5.206   1.657  0.1325  0.1459 -0.8623
  193MOL   O21342837   3.084   5.138   1.583  0.1927  1.1060 -0.4943
  193MOL   C21442838   2.915   5.309   1.597  0.0917 -0.3463  0.1764
  193MOL   C21542839   3.128   5.155   1.880  0.6680 -0.2567  0.1646
  193MOL   H21642840   2.963   5.290   1.848  0.3355 -0.8639  1.3816
  193MOL   H21742841   2.877   5.382   1.668  1.3531  1.0875 -0.5942
  193MOL   H21842842   2.977   5.368   1.529  0.6512  0.2369  1.1802
  193MOL   H21942843   2.836   5.270   1.532  0.6696  0.5870 -1.1160
  193MOL   H22042844   3.101   5.093   1.966  1.2327  0.1407  0.6296
  193MOL   H22142845   3.172   5.249   1.913 -0.0379  0.3212 -0.5235
  193MOL   H22242846   3.190   5.088   1.821 -0.9127 -0.3936 -1.3607
  194MOL     C142847   2.710   3.075   0.488 -1.2180  0.3866 -0.7500
  194MOL     C242848   2.573   3.014   0.502 -0.1553  0.8307  0.2990
  194MOL     O342849   2.559   2.890   0.503 -0.1039 -0.1248 -0.0725
  194MOL     C442850   2.458   3.115   0.522 -0.7240 -0.0237  0.0547
  194MOL     C542851   2.826   2.989   0.547 -0.1192 -0.4038  0.2232
  194MOL     H642852   2.730   3.099   0.384 -1.3627 -0.9474 -1.0959
  194MOL     H742853   2.366   3.055   0.522 -1.3723  0.9349 -1.7095
  194MOL     H842854   2.478   3.163   0.618 -0.7381 -1.2409  0.6819
  194MOL     H942855   2.448   3.179   0.435 -1.6281  0.7435  0.6971
  194MOL    H1042856   2.848   2.918   0.467 -1.0809  0.0734 -0.4679
  194MOL    H1142857   2.809   2.934   0.639 -0.2634 -1.4925 -0.4407
  194MOL    H1242858   2.698   3.169   0.541  1.9647  1.0371 -1.1069
  194MOL    C1342859   2.950   3.078   0.560  0.4330  0.0971 -0.0633
  194MOL    C1442860   3.001   3.117   0.419  0.3020 -0.5328 -0.6186
  194MOL    O1542861   3.066   3.034   0.355  0.3345 -0.1330 -0.0770
  194MOL    C1642862   2.981   3.249   0.365 -0.1543  0.4816  0.2965
  194MOL    C1742863   3.061   3.030   0.656 -0.3537 -0.2328 -0.1144
  194MOL    H1842864   2.915   3.173   0.602 -0.4419  0.4126 -1.4567
  194MOL    H1942865   2.986   3.329   0.440 -3.1955  1.3695 -0.3722
  194MOL    H2042866   3.072   3.274   0.310 -1.5757 -1.0315 -2.8803
  194MOL    H2142867   2.891   3.260   0.305 -0.6672  0.2369  1.0186
  194MOL    H2242868   3.095   2.935   0.617 -0.4143 -0.6024  0.7217
  194MOL    H2342869   3.008   3.012   0.750  1.1379  0.0641  0.7989
  194MOL    C2442870   3.177   3.127   0.691  0.5837  0.3384 -0.6490
  194MOL    C2542871   3.130   3.264   0.736  0.1428 -0.0936 -0.4391
  194MOL    O2642872   3.152   3.357   0.658 -0.2932  0.3347  0.7917
  194MOL    C2742873   3.084   3.283   0.880 -1.0786 -0.1050  0.1061
  194MOL    C2842874   3.294   3.127   0.592  1.1591  0.1539 -0.1502
  194MOL    H2942875   3.226   3.086   0.780 -2.0333  0.1079  0.7430
  194MOL    H3042876   2.991   3.234   0.910 -0.6799 -1.1684 -0.3829
  194MOL    H3142877   3.168   3.261   0.946  0.6549 -0.3523 -2.1292
  194MOL    H3242878   3.063   3.389   0.894 -2.4326 -0.2164 -0.9672
  194MOL    H3342879   3.306   3.226   0.547 -0.0230  0.6825  0.6766
  194MOL    H3442880   3.266   3.066   0.506  4.9527 -1.5687 -0.2561
  194MOL    C3542881   3.425   3.080   0.649  0.6406  1.1161  0.2557
  194MOL    C3642882   3.431   2.934   0.690  0.8772  0.4333 -0.4873
  194MOL    O3742883   3.417   2.898   0.808  0.1497 -0.0649 -0.5040
  194MOL    C3842884   3.443   2.834   0.573  0.0376  0.2794  0.2195
  194MOL    C3942885   3.478   3.167   0.765  0.1593  0.8999 -0.0230
  194MOL    H4042886   3.494   3.086   0.565 -1.2428 -0.9845 -1.4974
  194MOL    H4142887   3.364   2.841   0.498  1.6009  1.1278 -1.3809
  194MOL    H4242888   3.537   2.857   0.523  0.2671 -0.6401  0.2251
  194MOL    H4342889   3.451   2.729   0.601 -0.5356 -0.0633 -0.8523
  194MOL    H4442890   3.571   3.118   0.796 -0.6399 -0.1944  0.6595
  194MOL    H4542891   3.413   3.161   0.852 -0.2637  1.9228 -0.2627
  194MOL    C4642892   3.497   3.319   0.740 -0.3653  0.6044  0.2684
  194MOL    C4742893   3.590   3.342   0.621 -0.6169  0.4509  0.3203
  194MOL    O4842894   3.700   3.279   0.610  0.7167  0.7875 -0.6087
  194MOL    C4942895   3.556   3.460   0.528 -0.0206 -0.0076 -0.3533
  194MOL    C5042896   3.565   3.398   0.862  0.7302 -0.6665  0.7775
  194MOL    H5142897   3.401   3.364   0.715 -0.0785  1.6415  1.0517
  194MOL    H5242898   3.454   3.497   0.515 -0.5130 -1.3710 -0.4303
  194MOL    H5342899   3.628   3.537   0.555  0.1845 -0.7663  1.2961
  194MOL    H5442900   3.591   3.419   0.433  0.2472 -2.3064  0.7103
  194MOL    H5542901   3.615   3.486   0.819 -0.3266  0.1100  1.1212
  194MOL    H5642902   3.646   3.341   0.906  0.1778 -1.5638  0.6384
  194MOL    C5742903   3.464   3.432   0.978  0.5638 -0.3650  0.4227
  194MOL    C5842904   3.382   3.562   0.950  0.0318  0.3817 -0.0170
  194MOL    O5942905   3.260   3.555   0.913  0.0267 -0.0750 -0.2643
  194MOL    C6042906   3.449   3.698   0.966  0.4977  0.4289  0.1421
  194MOL    C6142907   3.533   3.432   1.117 -0.5749  0.0691  0.3466
  194MOL    H6242908   3.393   3.350   0.975  0.0703  0.0962 -1.3873
  194MOL    H6342909   3.453   3.767   0.882 -0.8071 -1.3676 -1.4272
  194MOL    H6442910   3.389   3.736   1.049 -1.3093 -0.1182 -0.8953
  194MOL    H6542911   3.553   3.698   0.998  1.1669  1.4377 -1.9330
  194MOL    H6642912   3.485   3.498   1.189 -2.1885  1.7007 -2.1193
  194MOL    H6742913   3.631   3.479   1.104 -0.3938 -0.1620  0.8819
  194MOL    C6842914   3.540   3.286   1.163 -0.4210  1.0710  0.0804
  194MOL    C6942915   3.413   3.244   1.237  0.2302 -0.2173 -0.6645
  194MOL    O7042916   3.332   3.325   1.274 -0.5465  0.1092  0.0163
  194MOL    C7142917   3.385   3.094   1.243  0.0192 -0.1210 -0.4465
  194MOL    C7242918   3.662   3.261   1.254 -0.5372  0.2187  0.9782
  194MOL    H7342919   3.544   3.223   1.074  0.8332  1.8137 -0.4103
  194MOL    H7442920   3.281   3.081   1.273 -0.7022  1.9450 -1.9918
  194MOL    H7542921   3.386   3.045   1.146 -0.5972 -0.5601 -0.2412
  194MOL    H7642922   3.448   3.050   1.321 -0.3824 -1.5849 -0.9339
  194MOL    H7742923   3.650   3.167   1.307  0.1474 -0.8009 -0.6320
  194MOL    H7842924   3.657   3.336   1.333  0.2590 -0.6452  1.8637
  194MOL    C7942925   3.799   3.256   1.184  0.1586 -0.1057 -0.4248
  194MOL    C8042926   3.819   3.139   1.077  0.5663 -0.6734 -0.3948
  194MOL    O8142927   3.732   3.051   1.067  0.5343 -0.8781  0.5286
  194MOL    C8242928   3.940   3.156   0.992 -0.2902  0.5140 -0.1495
  194MOL    C8342929   3.923   3.248   1.277  0.2307  0.0141  0.9522
  194MOL    H8442930   3.818   3.348   1.127 -2.1948  1.3948  1.1630
  194MOL    H8542931   4.011   3.073   0.998 -1.7979 -0.7002  1.5598
  194MOL    H8642932   3.914   3.153   0.886 -0.7807  1.0242 -0.0481
  194MOL    H8742933   3.990   3.246   1.025 -0.3984  0.6933 -0.4762
  194MOL    H8842934   4.015   3.223   1.223 -0.3596  0.1310 -0.1198
  194MOL    H8942935   3.902   3.161   1.339  0.3160  0.0351  1.0113
  194MOL    C9042936   3.952   3.364   1.365  0.5778  0.1111 -0.3002
  194MOL    C9142937   3.979   3.501   1.297 -0.9884  0.1201 -0.4236
  194MOL    O9242938   3.892   3.589   1.310 -0.0171 -0.3779 -1.2286
  194MOL    C9342939   4.095   3.512   1.192  0.0787 -0.1125 -0.0561
  194MOL    C9442940   4.037   3.328   1.488  0.2258 -0.1907 -0.0688
  194MOL    H9542941   3.853   3.384   1.407 -0.1853  0.9707 -2.4173
  194MOL    H9642942   4.177   3.569   1.236 -0.0129  1.8759 -2.2986
  194MOL    H9742943   4.120   3.417   1.145  0.5702  0.4260 -0.8961
  194MOL    H9842944   4.062   3.573   1.107  0.9097 -0.3156 -0.5295
  194MOL    H9942945   4.030   3.224   1.518 -1.3522 -0.6324 -1.8252
  194MOL   H10042946   3.993   3.385   1.570  0.7753 -0.6431  0.5372
  194MOL   C10142947   4.189   3.352   1.488  0.3497 -0.0755  0.0329
  194MOL   C10242948   4.266   3.264   1.393  0.1770 -0.1721  0.0179
  194MOL   O10342949   4.232   3.149   1.381 -0.0097 -0.0920  0.1938
  194MOL   C10442950   4.404   3.317   1.340 -0.0656  0.1929 -0.2586
  194MOL   C10542951   4.257   3.330   1.625  0.5693 -0.6977  0.3631
  194MOL   H10642952   4.209   3.451   1.446 -0.5204 -0.7505 -2.0013
  194MOL   H10742953   4.435   3.417   1.371 -0.1277  0.0204  0.3727
  194MOL   H10842954   4.475   3.240   1.370 -1.6706 -0.7378  1.2578
  194MOL   H10942955   4.398   3.325   1.232  1.8106  4.0721 -0.1801
  194MOL   H11042956   4.363   3.355   1.626  0.3622  0.2026  0.8482
  194MOL   H11142957   4.242   3.226   1.653  0.4628 -0.8161 -0.1382
  194MOL   C11242958   4.207   3.413   1.750 -0.0637  0.2589 -0.3859
  194MOL   C11342959   4.172   3.561   1.719  0.1299  0.0008  0.7529
  194MOL   O11442960   4.061   3.603   1.697  0.3003 -0.1583  0.2751
  194MOL   C11542961   4.291   3.653   1.709 -0.7606 -0.3265 -0.0591
  194MOL   C11642962   4.311   3.398   1.872 -0.4413  0.2374 -0.2509
  194MOL   H11742963   4.114   3.365   1.781  0.9323 -1.2251  0.3393
  194MOL   H11842964   4.369   3.601   1.653 -0.3303  1.1610 -0.8672
  194MOL   H11942965   4.264   3.736   1.645 -0.9945  0.4299  0.9977
  194MOL   H12042966   4.339   3.687   1.801 -0.2996  0.1932 -0.4916
  194MOL   H12142967   4.399   3.452   1.838 -1.1737  1.6344  0.0255
  194MOL   H12242968   4.343   3.295   1.887  0.3266  0.4004 -0.7423
  194MOL   C12342969   4.259   3.457   2.000  0.3968 -0.1391 -0.4221
  194MOL   C12442970   4.365   3.509   2.094  0.2385 -0.0231  0.2420
  194MOL   O12542971   4.435   3.427   2.156  0.2798  0.0309 -0.0301
  194MOL   C12642972   4.373   3.661   2.121  0.5027 -0.7604 -0.5082
  194MOL   C12742973   4.163   3.354   2.065 -0.1426 -0.2427  0.0163
  194MOL   H12842974   4.195   3.543   1.981  1.5546  1.1251  1.2527
  194MOL   H12942975   4.281   3.710   2.153  0.7430 -1.6650  1.6784
  194MOL   H13042976   4.441   3.675   2.205  1.2032 -1.2261 -0.9943
  194MOL   H13142977   4.415   3.727   2.045 -0.3354  0.6071  0.1942
  194MOL   H13242978   4.226   3.271   2.096  1.4107  0.0606 -2.1817
  194MOL   H13342979   4.099   3.306   1.990 -2.2986  2.7448 -0.1230
  194MOL   C13442980   4.087   3.404   2.198  0.8672  0.1906 -0.3373
  194MOL   C13542981   4.123   3.323   2.321  0.0260  0.1098  0.2182
  194MOL   O13642982   4.086   3.205   2.329  0.1206 -0.8324  0.3981
  194MOL   C13742983   4.198   3.385   2.439  0.3070 -1.1824 -0.1028
  194MOL   C13842984   3.931   3.388   2.184  0.1993  0.2946 -0.8045
  194MOL   H13942985   4.121   3.503   2.227  0.4358  0.5780 -1.1470
  194MOL   H14042986   4.249   3.473   2.402 -0.0344 -0.8856  0.1328
  194MOL   H14142987   4.133   3.411   2.523  1.5198 -1.5502  0.9771
  194MOL   H14242988   4.279   3.319   2.472  2.5207  0.7355 -1.5043
  194MOL   H14342989   3.881   3.403   2.279 -1.0337  0.5937 -1.4886
  194MOL   H14442990   3.906   3.288   2.149  0.0507  0.3771 -0.9351
  194MOL   C14542991   3.850   3.478   2.082 -0.2928 -0.3206 -0.3369
  194MOL   C14642992   3.887   3.628   2.090  0.1670 -0.6177  0.0190
  194MOL   O14742993   3.928   3.690   2.192 -0.1143 -0.1997  0.2218
  194MOL   C14842994   3.864   3.705   1.966  0.4815  1.3944  0.1637
  194MOL   C14942995   3.693   3.458   2.096 -0.0004 -0.3633  0.0848
  194MOL   H15042996   3.876   3.453   1.979 -0.3804  2.1424 -0.9798
  194MOL   H15142997   3.804   3.647   1.897 -1.2540  1.6774  1.3925
  194MOL   H15242998   3.813   3.799   1.989 -1.2445  0.6751 -0.6798
  194MOL   H15342999   3.959   3.710   1.913  0.7396  0.3127  0.5292
  194MOL   H15443000   3.647   3.545   2.049  1.4148 -0.2726 -1.1485
  194MOL   H15543001   3.673   3.472   2.202 -2.1427  1.1360 -0.4764
  194MOL   C15643002   3.624   3.333   2.028  0.2087  0.9656  0.0082
  194MOL   C15743003   3.623   3.217   2.120 -0.6181  1.0179 -0.1743
  194MOL   O15843004   3.702   3.123   2.103 -1.1537  0.2079 -0.3177
  194MOL   C15943005   3.536   3.232   2.239  0.4976 -0.2361  0.7489
  194MOL   C16043006   3.691   3.301   1.891 -0.5079 -0.6024  0.3244
  194MOL   H16143007   3.519   3.356   2.011 -0.6093 -0.5771  2.5684
  194MOL   H16243008   3.430   3.236   2.212  0.1048 -0.0720  2.2223
  194MOL   H16343009   3.548   3.142   2.300 -2.2111 -2.4082 -1.7417
  194MOL   H16443010   3.564   3.322   2.294  0.5753 -0.2893  0.7966
  194MOL   H16543011   3.788   3.255   1.909 -0.5250 -1.2083 -1.1010
  194MOL   H16643012   3.713   3.397   1.844 -1.7649  0.3682  1.6601
  194MOL   C16743013   3.601   3.210   1.800 -0.1315  0.2364 -0.4912
  194MOL   C16843014   3.666   3.166   1.670 -0.1600 -0.7842 -0.3290
  194MOL   O16943015   3.775   3.218   1.647  1.2797  1.1119  1.0682
  194MOL   C17043016   3.599   3.072   1.580 -0.4272  0.2102 -0.0126
  194MOL   C17143017   3.460   3.268   1.789 -0.3268  0.4424 -0.0144
  194MOL   H17243018   3.587   3.114   1.850 -0.6692  0.9540  0.7412
  194MOL   H17343019   3.525   3.013   1.635  0.1738 -1.4305 -0.9363
  194MOL   H17443020   3.547   3.134   1.508  1.3853 -1.2293 -2.6425
  194MOL   H17543021   3.657   2.998   1.526 -2.7789 -0.5807 -1.5387
  194MOL   H17643022   3.404   3.293   1.880  0.7906 -0.2874  0.8891
  194MOL   H17743023   3.401   3.182   1.759 -0.5831  0.3586  0.7188
  194MOL   C17843024   3.435   3.376   1.676 -0.9575 -0.3631  0.3094
  194MOL   C17943025   3.526   3.507   1.697 -0.3326 -0.0827 -0.4177
  194MOL   O18043026   3.534   3.566   1.803  0.0904 -0.0394  0.3748
  194MOL   C18143027   3.622   3.540   1.583 -0.2365  0.3366 -0.3498
  194MOL   C18243028   3.281   3.409   1.662  0.1896 -0.2448  0.0763
  194MOL   H18343029   3.470   3.331   1.584  1.6507 -1.2444  1.6791
  194MOL   H18443030   3.702   3.604   1.621 -2.5651  1.8428  2.1040
  194MOL   H18543031   3.659   3.446   1.541  0.0801 -0.5363  1.7936
  194MOL   H18643032   3.569   3.588   1.501  0.0077  0.7652 -0.2583
  194MOL   H18743033   3.234   3.334   1.600  2.2531 -0.7087 -0.9750
  194MOL   H18843034   3.266   3.493   1.594 -2.5104 -1.6968 -1.1930
  194MOL   C18943035   3.193   3.418   1.789 -0.6340 -0.3817  0.1933
  194MOL   C19043036   3.123   3.284   1.826  0.9481 -0.0206  0.6648
  194MOL   O19143037   3.067   3.226   1.738  0.1792  0.2279  0.5343
  194MOL   C19243038   3.133   3.231   1.965 -0.1968  0.2508 -0.2430
  194MOL   C19343039   3.088   3.525   1.771  0.6116 -1.0642 -0.4641
  194MOL   H19443040   3.246   3.448   1.879 -0.4815 -2.5012  0.8529
  194MOL   H19543041   3.059   3.151   1.969  0.9048 -0.8147 -0.7939
  194MOL   H19643042   3.234   3.189   1.966  0.1641  1.1090  0.1441
  194MOL   H19743043   3.112   3.314   2.033 -0.1518  1.0952 -1.2501
  194MOL   H19843044   3.027   3.516   1.860 -0.8275  2.7571 -0.9540
  194MOL   H19943045   3.026   3.504   1.684  0.1623 -0.8953 -0.1837
  194MOL   C20043046   3.151   3.667   1.768 -0.5874 -0.1171 -0.1612
  194MOL   C20143047   3.153   3.738   1.908  0.6502 -0.4807 -0.1013
  194MOL   O20243048   3.047   3.766   1.959  0.6460 -0.7997 -0.2894
  194MOL   C20343049   3.283   3.808   1.950 -0.3927 -0.5073 -0.5641
  194MOL   C20443050   3.088   3.758   1.655 -0.4364 -0.4816  0.3700
  194MOL   H20543051   3.256   3.660   1.742 -0.1463  0.5621  1.4248
  194MOL   H20643052   3.371   3.754   1.915 -0.3368 -2.0186  1.8124
  194MOL   H20743053   3.281   3.914   1.925  1.2953 -0.3443 -0.0199
  194MOL   H20843054   3.296   3.802   2.058 -1.0949  3.7640 -0.1556
  194MOL   H20943055   3.121   3.858   1.685 -0.6302 -0.5394  0.7856
  194MOL   H21043056   2.980   3.759   1.643 -0.4589  2.6858  0.2704
  194MOL   C21143057   3.132   3.734   1.511  0.3022  0.1981  0.3934
  194MOL   C21243058   3.284   3.741   1.484  0.0553  0.1975  0.4769
  194MOL   O21343059   3.351   3.802   1.561  0.0996  0.4111 -0.1959
  194MOL   C21443060   3.342   3.681   1.355 -0.0475 -0.4186 -0.5818
  194MOL   C21543061   3.056   3.826   1.419  0.4055  0.4383  0.1150
  194MOL   H21643062   3.098   3.634   1.484  0.6959  0.0506  0.4458
  194MOL   H21743063   3.390   3.587   1.382 -0.7559 -0.2887  1.2168
  194MOL   H21843064   3.256   3.664   1.290  1.0037 -0.0973 -2.0526
  194MOL   H21943065   3.413   3.749   1.309  0.1269 -2.3870 -3.3447
  194MOL   H22043066   2.949   3.808   1.417  0.5940 -0.5930 -3.4276
  194MOL   H22143067   3.082   3.814   1.314  0.6416  0.6862  0.1450
  194MOL   H22243068   3.074   3.928   1.453  0.9750 -0.0110  1.1793
  195MOL     C143069   3.590   7.400   4.141  0.1992 -0.4216 -0.1304
  195MOL     C243070   3.491   7.426   4.021 -0.1428 -1.0310 -0.2202
  195MOL     O343071   3.502   7.530   3.957  0.3168  0.6017  0.4068
  195MOL     C443072   3.386   7.320   3.991  0.5140  0.0623  0.3526
  195MOL     C543073   3.677   7.525   4.167 -0.6533 -0.2215 -0.2020
  195MOL     H643074   3.531   7.374   4.229 -2.9886 -1.5656 -2.5116
  195MOL     H743075   3.438   7.229   3.961 -0.1408 -0.5468  1.0288
  195MOL     H843076   3.330   7.304   4.083  0.5826  2.6376  0.8888
  195MOL     H943077   3.312   7.339   3.913 -3.0767  1.3929  3.9451
  195MOL    H1043078   3.614   7.615   4.168  0.4570  0.5651  1.5570
  195MOL    H1143079   3.753   7.550   4.093  0.7907 -1.1449  0.9482
  195MOL    H1243080   3.666   7.327   4.113 -0.7030  0.0521 -4.1843
  195MOL    C1343081   3.766   7.518   4.295  0.5258 -0.7107 -0.1865
  195MOL    C1443082   3.901   7.456   4.279 -0.1850 -0.0468  0.2692
  195MOL    O1543083   3.917   7.350   4.217 -0.2279 -0.0778  0.0999
  195MOL    C1643084   4.020   7.514   4.353 -0.3517  0.3681  0.5683
  195MOL    C1743085   3.692   7.483   4.424 -0.0643 -0.2882 -0.2792
  195MOL    H1843086   3.795   7.623   4.304  0.7127 -0.6991 -0.8845
  195MOL    H1943087   3.997   7.525   4.459 -1.0954 -1.1371  0.5731
  195MOL    H2043088   4.106   7.447   4.354 -0.6345  0.0072  0.7364
  195MOL    H2143089   4.055   7.607   4.308  1.1053 -0.0387  0.8300
  195MOL    H2243090   3.765   7.473   4.504 -1.5153 -0.7835  1.0025
  195MOL    H2343091   3.632   7.392   4.420  1.2313 -1.1124 -2.1354
  195MOL    C2443092   3.604   7.599   4.480  0.0198 -0.2817  0.7159
  195MOL    C2543093   3.687   7.716   4.539  0.0137 -0.6128 -0.6868
  195MOL    O2643094   3.791   7.701   4.601 -0.8332  0.5139 -0.0122
  195MOL    C2743095   3.634   0.015   4.516  0.3440 -0.0633 -0.3954
  195MOL    C2843096   3.500   7.550   4.586  0.9088 -0.1974  0.3257
  195MOL    H2943097   3.552   7.630   4.389  1.3252  1.7168  0.6008
  195MOL    H3043098   3.652   0.079   4.602 -1.1513  1.2795 -1.0564
  195MOL    H3143099   3.691   0.055   4.433  1.5836  0.0867  0.5170
  195MOL    H3243100   3.526   0.005   4.499  0.1749 -1.6440  1.4079
  195MOL    H3343101   3.543   7.557   4.686 -1.2135 -1.8508  1.4007
  195MOL    H3443102   3.486   7.445   4.561  1.5826 -0.6489  1.7660
  195MOL    C3543103   3.354   7.622   4.561 -0.4428 -0.0208 -1.0185
  195MOL    C3643104   3.334   7.752   4.646 -0.1254 -0.8471 -0.1798
  195MOL    O3743105   3.399   7.797   4.742  0.1687  0.0817 -0.1658
  195MOL    C3843106   3.218   7.833   4.597  0.4075  0.4240 -1.0488
  195MOL    C3943107   3.240   7.518   4.576 -0.0320  0.1222  0.3191
  195MOL    H4043108   3.353   7.657   4.458 -1.7173 -0.2787 -1.1105
  195MOL    H4143109   3.180   0.036   4.689 -0.7386 -2.7212  0.0984
  195MOL    H4243110   3.247   0.061   4.519 -0.4553  2.3191  0.3011
  195MOL    H4343111   3.137   7.768   4.565  1.0912 -1.5681  1.0986
  195MOL    H4443112   3.147   7.570   4.596  0.4495  1.5793 -1.1086
  195MOL    H4543113   3.258   7.457   4.665 -0.3643  1.9157  1.6521
  195MOL    C4643114   3.216   7.422   4.454  0.2993 -0.8550 -0.0548
  195MOL    C4743115   3.158   7.494   4.335  0.4719 -0.4761  0.8000
  195MOL    O4843116   3.220   7.513   4.236 -0.1483 -0.3838  0.1980
  195MOL    C4943117   3.024   7.570   4.339 -0.2496 -0.4158  0.2297
  195MOL    C5043118   3.120   7.313   4.515 -0.8552  0.1813 -0.2295
  195MOL    H5143119   3.301   7.365   4.417  0.6957 -0.4453  0.2272
  195MOL    H5243120   3.041   7.661   4.395  0.3837  1.2775 -2.6282
  195MOL    H5343121   2.978   7.593   4.243  0.1785  0.3351  0.2072
  195MOL    H5443122   2.962   7.500   4.395  2.0316 -1.6760  1.2505
  195MOL    H5543123   3.031   7.363   4.552  0.2883  3.3573 -1.5584
  195MOL    H5643124   3.167   7.268   4.603 -1.5805 -0.6745 -0.2735
  195MOL    C5743125   3.064   7.196   4.434 -0.7089 -0.6774 -0.2155
  195MOL    C5843126   2.944   7.132   4.502 -0.2349  0.1924  0.0119
  195MOL    O5943127   2.957   7.026   4.569  0.0189  0.1201 -0.1754
  195MOL    C6043128   2.810   7.203   4.497 -0.2857 -0.3724 -0.7090
  195MOL    C6143129   3.171   7.099   4.394 -0.1717  0.6167  0.0924
  195MOL    H6243130   3.018   7.229   4.341 -1.7402 -1.7319 -0.1046
  195MOL    H6343131   2.727   7.132   4.500  1.8637 -2.9670 -0.5143
  195MOL    H6443132   2.806   7.265   4.587 -0.6448 -2.4569  0.7438
  195MOL    H6543133   2.806   7.263   4.405  2.0007  1.0099  0.0570
  195MOL    H6643134   3.218   7.147   4.308 -2.1410  1.4670 -0.5408
  195MOL    H6743135   3.120   7.015   4.345 -2.7901  0.9544  2.1302
  195MOL    C6843136   3.275   7.036   4.493 -0.6814 -0.3435 -0.0301
  195MOL    C6943137   3.402   7.116   4.491  0.2903 -0.6160 -0.1802
  195MOL    O7043138   3.435   7.161   4.384  0.3641 -0.1819 -0.0830
  195MOL    C7143139   3.477   7.122   4.625  0.0295  0.3320 -0.9239
  195MOL    C7243140   3.319   6.884   4.470 -0.5597 -0.9918  0.2263
  195MOL    H7343141   3.243   7.041   4.597  2.1737  1.4546  0.8124
  195MOL    H7443142   3.410   7.077   4.699 -0.0674  0.6095 -0.8442
  195MOL    H7543143   3.570   7.066   4.623  0.2607  0.7315 -1.3286
  195MOL    H7643144   3.491   7.225   4.659 -2.5241  0.2438  0.5593
  195MOL    H7743145   3.418   6.856   4.505  0.3724  2.4014  0.4691
  195MOL    H7843146   3.334   6.865   4.364 -0.9927  2.9474 -0.5982
  195MOL    C7943147   3.219   6.782   4.526 -0.4242  0.1674  0.5792
  195MOL    C8043148   3.220   6.782   4.680 -0.2539  0.5966 -0.2439
  195MOL    O8143149   3.329   6.796   4.739 -0.2870  0.2415 -0.3543
  195MOL    C8243150   3.091   6.775   4.753 -0.0319 -0.8163 -0.0454
  195MOL    C8343151   3.240   6.639   4.481  0.1458  0.2303  0.0496
  195MOL    H8443152   3.122   6.817   4.490  0.7015  0.5773 -2.2420
  195MOL    H8543153   3.067   6.669   4.748 -0.8184 -0.6670  0.7029
  195MOL    H8643154   3.111   6.813   4.853  0.8590 -1.1169 -0.1010
  195MOL    H8743155   3.007   6.825   4.704  0.1026 -0.4048  0.1420
  195MOL    H8843156   3.162   6.577   4.526 -1.3129  1.3837 -0.8734
  195MOL    H8943157   3.330   6.594   4.524 -0.5530  0.7651  2.0931
  195MOL    C9043158   3.235   6.618   4.327 -0.3081 -0.4231 -0.0444
  195MOL    C9143159   3.108   6.677   4.258 -0.1048  0.2538 -0.1334
  195MOL    O9243160   2.999   6.628   4.275  0.6103 -0.0739  0.0226
  195MOL    C9343161   3.127   6.769   4.134  0.0708  0.0728  0.2628
  195MOL    C9443162   3.261   6.466   4.294  0.7064 -0.3516 -0.6530
  195MOL    H9543163   3.324   6.673   4.297  0.6344 -1.9986 -0.1684
  195MOL    H9643164   3.107   6.696   4.056 -1.5549  0.2423  0.5211
  195MOL    H9743165   3.053   6.847   4.117  0.4663  0.0427 -1.6789
  195MOL    H9843166   3.232   6.797   4.119  0.4518 -0.9646  0.9291
  195MOL    H9943167   3.187   6.420   4.358  0.0676  1.2337 -0.2171
  195MOL   H10043168   3.355   6.438   4.343 -0.6946 -2.2163  1.0466
  195MOL   C10143169   3.248   6.413   4.153  0.4479 -0.3669 -0.2698
  195MOL   C10243170   3.231   6.262   4.157  0.9801 -1.1971 -0.0345
  195MOL   O10343171   3.122   6.206   4.129 -0.2275 -0.0954 -0.0502
  195MOL   C10443172   3.347   6.179   4.208  0.4698  0.1714  0.2643
  195MOL   C10543173   3.365   6.456   4.060 -1.0781  0.5483 -0.0310
  195MOL   H10643174   3.153   6.449   4.114  1.4092  0.3415 -2.0097
  195MOL   H10743175   3.325   6.073   4.223  0.8223 -0.4328 -3.1663
  195MOL   H10843176   3.442   6.181   4.155  0.3503  1.3835  0.0986
  195MOL   H10943177   3.380   6.209   4.308  1.6045  1.2589 -0.4339
  195MOL   H11043178   3.452   6.393   4.078 -0.5569  2.0765  3.0879
  195MOL   H11143179   3.397   6.556   4.088 -0.5817  0.4149 -0.1059
  195MOL   C11243180   3.337   6.431   3.911  0.0783  0.7643 -0.2375
  195MOL   C11343181   3.452   6.483   3.825  0.2076  0.1060  0.2838
  195MOL   O11443182   3.500   6.589   3.839  0.0374 -0.3168 -0.4609
  195MOL   C11543183   3.508   6.393   3.714 -0.6301 -0.1288 -0.0867
  195MOL   C11643184   3.210   6.491   3.854 -0.7238 -0.7475 -0.8334
  195MOL   H11743185   3.346   6.324   3.893  2.3530  0.6255  1.5755
  195MOL   H11843186   3.440   6.397   3.628  1.4506  0.7937 -1.7413
  195MOL   H11943187   3.610   6.428   3.695 -1.0892  0.9197 -0.6651
  195MOL   H12043188   3.508   6.291   3.751  0.1180  0.2406  0.9417
  195MOL   H12143189   3.221   6.540   3.758 -4.3305 -0.8360 -1.3249
  195MOL   H12243190   3.183   6.570   3.924  0.0834  0.6129 -2.0439
  195MOL   C12343191   3.089   6.392   3.850  0.5169  0.0078  0.0321
  195MOL   C12443192   3.117   6.264   3.769 -0.0405 -0.0237 -0.2320
  195MOL   O12543193   3.211   6.253   3.687  0.0976  0.0471  0.5284
  195MOL   C12643194   3.037   6.136   3.797  0.4975 -0.2597  0.0669
  195MOL   C12743195   2.958   6.457   3.813 -0.8425 -0.8061 -0.5230
  195MOL   H12843196   3.072   6.348   3.949  0.3094 -0.1356 -0.0671
  195MOL   H12943197   2.938   6.154   3.838  1.0298  1.8590  0.5016
  195MOL   H13043198   3.010   6.100   3.698  1.2011  0.2484 -0.3211
  195MOL   H13143199   3.088   6.071   3.868 -1.2025  0.0753  1.6370
  195MOL   H13243200   2.915   6.399   3.731 -3.3395  0.5139 -0.1970
  195MOL   H13343201   2.987   6.553   3.772  1.7353  0.0348  3.0186
  195MOL   C13443202   2.844   6.471   3.931 -0.7930 -0.3632  0.1644
  195MOL   C13543203   2.785   6.343   3.977  0.0064  0.5150  0.5489
  195MOL   O13643204   2.706   6.275   3.907  0.2439 -0.3635  0.0188
  195MOL   C13743205   2.841   6.290   4.109  0.5025  0.8173  0.0455
  195MOL   C13843206   2.737   6.583   3.900 -0.1742 -0.1420 -0.0233
  195MOL   H13943207   2.889   6.510   4.022 -2.2856  0.6133  0.4984
  195MOL   H14043208   2.926   6.347   4.145  0.2030  1.2291  0.1125
  195MOL   H14143209   2.756   6.295   4.178  0.0491  0.3141 -0.4629
  195MOL   H14243210   2.872   6.186   4.099  0.4869  1.0491 -2.6127
  195MOL   H14343211   2.670   6.553   3.820 -1.3371  2.3082  0.0033
  195MOL   H14443212   2.797   6.666   3.863  0.7843 -1.1250 -0.6843
  195MOL   C14543213   2.654   6.620   4.026 -0.6075  0.0540 -0.1400
  195MOL   C14643214   2.514   6.564   4.016  0.1780 -0.3048 -0.7389
  195MOL   O14743215   2.426   6.625   3.952 -0.8580 -0.2896  0.0450
  195MOL   C14843216   2.477   6.458   4.126  0.2853  0.4716 -0.0240
  195MOL   C14943217   2.652   6.776   4.048 -0.7858 -0.1188 -0.1115
  195MOL   H15043218   2.701   6.585   4.118 -1.3312  0.9860  0.5919
  195MOL   H15143219   2.557   6.429   4.194 -2.2729 -0.5090  2.7081
  195MOL   H15243220   2.406   6.502   4.196  0.1967  0.5583 -0.1692
  195MOL   H15343221   2.445   6.371   4.068  1.3999 -0.5923  0.9207
  195MOL   H15443222   2.609   6.827   3.962  0.7461 -0.3202 -1.0160
  195MOL   H15543223   2.757   6.806   4.045 -0.9842  0.5184 -0.8753
  195MOL   C15643224   2.585   6.827   4.178 -0.2904  0.4527 -0.7333
  195MOL   C15743225   2.535   6.974   4.170  0.0859  0.6282 -0.3956
  195MOL   O15843226   2.613   7.071   4.162  0.1011 -0.0897 -0.4099
  195MOL   C15943227   2.385   6.988   4.179  0.1932 -0.4277  0.3606
  195MOL   C16043228   2.682   6.804   4.296 -0.0361  0.4251  0.4448
  195MOL   H16143229   2.498   6.762   4.180 -0.4926  0.7397 -0.3897
  195MOL   H16243230   2.356   7.070   4.113 -1.3883 -1.6313 -0.4590
  195MOL   H16343231   2.318   6.905   4.161 -1.0840  0.3385  1.4650
  195MOL   H16443232   2.367   7.024   4.281 -1.2275  0.4986 -0.1982
  195MOL   H16543233   2.747   6.884   4.330  0.8052 -0.7887  1.7719
  195MOL   H16643234   2.756   6.733   4.258 -1.9201 -0.2779 -1.9893
  195MOL   C16743235   2.620   6.741   4.428  0.0186 -0.6460  0.1487
  195MOL   C16843236   2.517   6.823   4.500  0.8436 -0.5083  0.0703
  195MOL   O16943237   2.544   6.944   4.522 -0.2534  0.4260 -0.2331
  195MOL   C17043238   2.380   6.761   4.517 -0.1219  0.0581 -0.2663
  195MOL   C17143239   2.736   6.708   4.522 -0.2594  0.6057 -0.1825
  195MOL   H17243240   2.579   6.648   4.388  2.1978 -0.2184 -3.3313
  195MOL   H17343241   2.366   6.731   4.621  1.1804 -0.6288 -0.2760
  195MOL   H17443242   2.302   6.836   4.505 -1.6028 -1.4145 -0.0177
  195MOL   H17543243   2.352   6.677   4.454 -1.2454  0.6051 -0.4998
  195MOL   H17643244   2.744   6.779   4.604  0.0796 -1.1930  1.3743
  195MOL   H17743245   2.829   6.738   4.475 -1.6069  2.1610 -1.9470
  195MOL   C17843246   2.749   6.560   4.574 -0.8330  0.0523  0.0962
  195MOL   C17943247   2.791   6.466   4.456 -0.0185  0.2046 -0.3824
  195MOL   O18043248   2.723   6.469   4.351  0.2942  0.0451 -0.5395
  195MOL   C18143249   2.911   6.371   4.470 -0.0254 -0.1180 -0.0976
  195MOL   C18243250   2.615   6.504   4.644  0.0213  0.3166  0.4876
  195MOL   H18343251   2.821   6.582   4.653 -2.6426 -0.7287  2.0209
  195MOL   H18443252   2.999   6.418   4.425  1.0187 -1.1561  0.8099
  195MOL   H18543253   2.937   6.358   4.575 -1.5898  0.7198  0.4075
  195MOL   H18643254   2.898   6.269   4.433 -0.1319 -0.2827  0.3820
  195MOL   H18743255   2.542   6.479   4.566  0.1399  0.4600  0.3299
  195MOL   H18843256   2.584   6.592   4.700 -1.2206 -0.3747  0.9165
  195MOL   C18943257   2.646   6.383   4.735 -0.2544  0.5201 -0.5614
  195MOL   C19043258   2.550   6.264   4.716 -0.3003 -0.9429 -0.7097
  195MOL   O19143259   2.465   6.232   4.802  0.2182  0.4279 -0.3369
  195MOL   C19243260   2.566   6.197   4.585  0.2013 -0.4382 -0.2429
  195MOL   C19343261   2.646   6.433   4.885 -0.5099  0.4624 -0.7737
  195MOL   H19443262   2.743   6.341   4.711 -1.6398 -1.6147 -2.5549
  195MOL   H19543263   2.535   6.092   4.584 -1.2949 -0.0166  0.6349
  195MOL   H19643264   2.500   6.250   4.517  0.0132  0.2224  0.4564
  195MOL   H19743265   2.664   6.216   4.543  0.0699  3.0158  0.8664
  195MOL   H19843266   2.623   6.342   4.941  1.1129 -0.4721 -1.6005
  195MOL   H19943267   2.550   6.486   4.891 -0.6695  0.0040  0.7413
  195MOL   C20043268   2.757   6.519   4.950  0.2892  0.0377  0.3450
  195MOL   C20143269   2.874   6.420   4.985  0.3476 -0.5763 -0.0473
  195MOL   O20243270   2.877   6.304   4.939 -0.0523  0.4633 -0.0369
  195MOL   C20343271   3.002   6.469   5.048 -0.2577 -0.3934 -0.6263
  195MOL   C20443272   2.711   6.594   5.079 -0.1823 -0.2552  0.1507
  195MOL   H20543273   2.792   6.589   4.873  0.6609 -0.2073  0.2900
  195MOL   H20643274   2.993   6.564   5.098 -1.6042 -1.9438  2.1738
  195MOL   H20743275   3.040   6.402   5.125 -0.0230 -1.1043 -1.3413
  195MOL   H20843276   3.087   6.466   4.979  0.5104  0.0961  0.3012
  195MOL   H20943277   2.800   6.635   5.126  0.6828 -0.2422 -1.4411
  195MOL   H21043278   2.674   6.514   5.143  1.4031 -0.4745  0.7976
  195MOL   C21143279   2.609   6.713   5.056  0.1171  0.6560 -0.0495
  195MOL   C21243280   2.680   6.846   5.004  0.3012  0.6732  0.4908
  195MOL   O21343281   2.767   6.905   5.068  0.2584  0.6333 -0.1454
  195MOL   C21443282   2.635   6.906   4.872  0.4110 -0.5850 -0.4610
  195MOL   C21543283   2.536   6.752   5.178 -0.8350 -0.2763 -0.8089
  195MOL   H21643284   2.544   6.685   4.974 -0.1112  2.7585 -0.6065
  195MOL   H21743285   2.550   6.853   4.830 -0.1994  0.0343 -0.0140
  195MOL   H21843286   2.614   7.013   4.871  1.7746 -0.3146 -2.3924
  195MOL   H21943287   2.713   6.915   4.796  0.8246  3.8008  0.3340
  195MOL   H22043288   2.481   6.666   5.217 -3.5453  1.4160 -0.7414
  195MOL   H22143289   2.467   6.833   5.154  1.0137  1.7592  0.5011
  195MOL   H22243290   2.594   6.797   5.258 -1.6228 -0.4346 -0.1486
  196MOL     C143291   7.014   0.622   5.002 -0.7804  0.1276  0.1897
  196MOL     C243292   7.036   0.763   5.048  0.4060  0.1965 -0.5417
  196MOL     O343293   7.133   0.832   5.009  0.2260 -0.2381  0.5265
  196MOL     C443294   6.931   0.815   5.151  0.1463 -0.2357  0.7298
  196MOL     C543295   7.082   0.587   4.864  0.3399 -0.1317 -0.4134
  196MOL     H643296   7.055   0.548   5.070 -0.5001  0.1133  0.0044
  196MOL     H743297   6.964   0.901   5.209  0.8425  0.0095 -0.0108
  196MOL     H843298   6.837   0.814   5.096  1.2801 -4.2168 -1.3650
  196MOL     H943299   6.911   0.734   5.221 -0.9047 -1.4144 -0.9152
  196MOL    H1043300   7.098   0.480   4.852  0.0741 -0.5098  2.2003
  196MOL    H1143301   7.185   0.619   4.881 -0.0435  0.7211  0.3710
  196MOL    H1243302   6.906   0.607   5.011 -0.4136 -1.3014  2.6149
  196MOL    C1343303   7.001   0.649   4.748  0.4102 -0.0384  0.0916
  196MOL    C1443304   6.858   0.585   4.748 -0.6544 -0.1952 -0.4937
  196MOL    O1543305   6.834   0.465   4.776  0.0465 -0.2303 -0.2176
  196MOL    C1643306   6.752   0.668   4.691  0.7641 -0.1440 -0.3450
  196MOL    C1743307   7.067   0.631   4.614 -0.4091 -0.1959  0.9902
  196MOL    H1843308   6.993   0.756   4.768  0.1387  0.0649 -0.5679
  196MOL    H1943309   6.671   0.600   4.666  1.6393 -2.1390  1.9805
  196MOL    H2043310   6.716   0.747   4.757 -1.7622 -2.0596  0.6775
  196MOL    H2143311   6.785   0.708   4.596  3.6710 -3.0877 -0.6637
  196MOL    H2243312   7.021   0.691   4.535  1.1442 -1.4671 -0.9374
  196MOL    H2343313   7.053   0.531   4.573 -0.4164  0.3946 -0.5152
  196MOL    C2443314   7.211   0.675   4.603 -0.1892  0.1105 -0.2002
  196MOL    C2543315   7.229   0.823   4.620  1.3626  0.4863 -0.4536
  196MOL    O2643316   7.197   0.904   4.529 -0.4337  0.2692  0.0789
  196MOL    C2743317   7.291   0.875   4.746  0.3886 -0.4610 -0.3845
  196MOL    C2843318   7.285   0.623   4.475 -0.0268 -0.2258 -0.0416
  196MOL    H2943319   7.258   0.634   4.692  1.1868  1.5773 -0.2407
  196MOL    H3043320   7.382   0.929   4.719  1.1229 -2.0080 -1.0384
  196MOL    H3143321   7.225   0.953   4.786  0.9167 -0.7595  1.1015
  196MOL    H3243322   7.303   0.794   4.818  2.1199 -0.4221 -0.6173
  196MOL    H3343323   7.366   0.695   4.460 -0.2932  0.2909  0.9525
  196MOL    H3443324   7.218   0.629   4.389  0.3329  0.6584 -0.2754
  196MOL    C3543325   7.349   0.480   4.477 -0.2653  0.4569  0.5447
  196MOL    C3643326   7.432   0.465   4.603  0.5624  0.4743  0.0348
  196MOL    O3743327   7.501   0.551   4.652  0.3194  0.8478  0.6066
  196MOL    C3843328   7.402   0.349   4.699 -0.3931 -0.2685  0.3365
  196MOL    C3943329   7.421   0.429   4.352  0.3888 -0.1752  0.6976
  196MOL    H4043330   7.267   0.410   4.493  0.2669  0.0049  1.3271
  196MOL    H4143331   7.342   0.379   4.785  0.5831  0.7787  0.6681
  196MOL    H4243332   7.339   0.269   4.659 -0.5246  0.8974 -1.8454
  196MOL    H4343333   7.490   0.292   4.729 -0.5698 -1.9371 -2.1651
  196MOL    H4443334   7.346   0.421   4.273  0.5140  2.7099  0.2340
  196MOL    H4543335   7.452   0.327   4.373  2.9215  1.2335  4.2098
  196MOL    C4643336   7.540   0.521   4.301 -0.0190 -0.0382  0.1879
  196MOL    C4743337   7.500   0.641   4.214 -0.1444  0.8825  0.2005
  196MOL    O4843338   7.438   0.639   4.107  1.0090  0.6805  0.0763
  196MOL    C4943339   7.538   0.774   4.267 -0.8568  0.1745  0.1351
  196MOL    C5043340   7.638   0.423   4.229  0.3439 -0.1886  0.1426
  196MOL    H5143341   7.583   0.565   4.391 -0.8304  1.8288 -0.3040
  196MOL    H5243342   7.504   0.785   4.369 -0.4179 -1.4904  0.4789
  196MOL    H5343343   7.646   0.789   4.253 -0.9270 -1.8393 -3.1436
  196MOL    H5443344   7.493   0.861   4.219  0.0346  0.6292  0.0954
  196MOL    H5543345   7.607   0.399   4.127  0.9202  0.8656 -0.2887
  196MOL    H5643346   7.655   0.338   4.296  3.1424 -1.9227 -2.6524
  196MOL    C5743347   7.785   0.471   4.218 -0.6418 -0.4181  0.3293
  196MOL    C5843348   0.006   0.511   4.353  0.3760  0.1327  0.1913
  196MOL    O5943349   0.026   0.630   4.377  0.3351 -0.7023 -0.2797
  196MOL    C6043350   0.014   0.409   4.467  0.6427 -0.8882  0.0887
  196MOL    C6143351   7.812   0.569   4.099 -0.1847  0.3660 -0.4106
  196MOL    H6243352   7.823   0.375   4.185 -0.5049 -0.3746  0.3640
  196MOL    H6343353   0.111   0.429   4.514  0.8945  1.3885 -1.3075
  196MOL    H6443354   7.770   0.421   4.533  1.5716 -0.6425  1.2938
  196MOL    H6543355   0.014   0.305   4.436 -0.2080 -1.3554  1.5781
  196MOL    H6643356   7.771   0.666   4.129  0.6959  0.8696 -0.8100
  196MOL    H6743357   7.741   0.538   4.023  0.0201  4.5163 -2.4299
  196MOL    C6843358   0.114   0.588   4.032  1.0621  0.2294 -0.3318
  196MOL    C6943359   0.160   0.458   3.966  0.3418  0.1252 -0.5044
  196MOL    O7043360   0.231   0.383   4.037 -0.2481  0.0233 -0.2634
  196MOL    C7143361   0.094   0.408   3.836 -0.0369 -0.1214 -0.3812
  196MOL    C7243362   0.224   0.657   4.125 -0.7590 -0.3919  0.5291
  196MOL    H7343363   0.090   0.651   3.946  2.0644  0.4701 -0.4463
  196MOL    H7443364   7.830   0.433   3.843  0.3377  2.8351 -3.5956
  196MOL    H7543365   0.149   0.445   3.749 -0.1561 -1.2692 -0.9509
  196MOL    H7643366   0.092   0.300   3.823  1.0051 -0.0724 -1.0289
  196MOL    H7743367   0.245   0.590   4.208 -0.0694  0.2622  0.8836
  196MOL    H7843368   0.181   0.744   4.174  1.6187  1.1326 -0.0078
  196MOL    C7943369   0.358   0.716   4.065 -0.1580  0.6322  0.4182
  196MOL    C8043370   0.341   0.807   3.942 -0.5551 -0.1607 -0.1095
  196MOL    O8143371   0.280   0.766   3.842  0.0314  0.1206 -0.5736
  196MOL    C8243372   0.374   0.953   3.967  0.2551 -0.4248  0.1195
  196MOL    C8343373   0.458   0.605   4.025 -0.2956 -0.2364  0.0279
  196MOL    H8443374   0.401   0.773   4.147  1.1812 -1.7774  1.4414
  196MOL    H8543375   0.370   0.978   4.073  0.5961  0.7603 -0.1463
  196MOL    H8643376   0.472   0.984   3.930 -0.0374  2.5691  1.7136
  196MOL    H8743377   0.292   1.004   3.917 -0.4827 -2.0215 -0.3416
  196MOL    H8843378   0.538   0.649   3.965 -1.6706  1.0186 -0.9575
  196MOL    H8943379   0.407   0.536   3.957  1.0646  1.1360 -2.4837
  196MOL    C9043380   0.514   0.520   4.137 -0.1061  0.4496  0.5669
  196MOL    C9143381   0.609   0.589   4.239 -0.1648  0.3797 -0.3801
  196MOL    O9243382   0.720   0.633   4.202 -0.0562  0.5223  0.2611
  196MOL    C9343383   0.562   0.593   4.385  0.0080  0.0236  0.0426
  196MOL    C9443384   0.583   0.394   4.073  0.4396  0.6564 -0.6582
  196MOL    H9543385   0.439   0.479   4.204 -0.5516  0.4401  0.0719
  196MOL    H9643386   0.476   0.531   4.410 -1.0129  1.2514 -0.3825
  196MOL    H9743387   0.650   0.564   4.443 -1.2665  0.1719  2.0997
  196MOL    H9843388   0.538   0.695   4.414  4.1004  0.4541  2.3307
  196MOL    H9943389   0.690   0.408   4.088  0.7582 -1.4015 -0.8359
  196MOL   H10043390   0.577   0.383   3.965  0.2435  1.2666 -0.7128
  196MOL   C10143391   0.545   0.250   4.121  0.1037  0.7107  0.4255
  196MOL   C10243392   0.586   0.216   4.264 -0.0934 -0.6221  0.3015
  196MOL   O10343393   0.504   0.218   4.352  0.3548 -0.1108 -0.2937
  196MOL   C10443394   0.726   0.172   4.297  0.2654 -0.2296  0.1535
  196MOL   C10543395   0.570   0.140   4.016  0.2209  0.5307  0.4970
  196MOL   H10643396   0.436   0.259   4.119  0.1740  1.2742 -1.6098
  196MOL   H10743397   0.777   0.259   4.338  2.3732 -2.2375  1.9114
  196MOL   H10843398   0.721   0.107   4.384 -0.2231 -1.1469 -0.5481
  196MOL   H10943399   0.773   0.118   4.214 -0.7932 -2.3801  0.9229
  196MOL   H11043400   0.679   0.141   4.004  0.3828 -0.7265  1.7607
  196MOL   H11143401   0.532   0.171   3.919 -2.2542  3.9866  2.4363
  196MOL   C11243402   0.521   7.838   4.054 -0.3289 -0.4867 -1.1973
  196MOL   C11343403   0.572   7.740   3.950 -0.3780 -0.5522  0.2397
  196MOL   O11443404   0.521   7.739   3.834 -0.2452 -0.0244  0.3746
  196MOL   C11543405   0.695   7.657   3.982  0.7632 -1.5642  0.8065
  196MOL   C11643406   0.369   7.825   4.058 -0.0018  0.3971 -0.3567
  196MOL   H11743407   0.563   7.794   4.145 -0.2610  0.5598 -0.7195
  196MOL   H11843408   0.665   7.570   4.041  0.2761 -0.9070  1.5233
  196MOL   H11943409   0.748   7.616   3.895  0.0839 -0.5546 -0.0893
  196MOL   H12043410   0.766   7.715   4.041  0.5979 -3.6835  3.1466
  196MOL   H12143411   0.342   7.722   4.036  1.6633 -0.3013  0.6850
  196MOL   H12243412   0.315   0.050   3.991 -0.4624  0.4139  0.0299
  196MOL   C12343413   0.321   0.004   4.203  0.3749 -0.0084 -0.1770
  196MOL   C12443414   0.367   7.731   4.299 -0.3923 -0.2089 -0.2681
  196MOL   O12543415   0.406   7.618   4.263  0.1757  0.3177 -0.1563
  196MOL   C12643416   0.378   7.761   4.451 -0.7098 -0.0499 -0.3816
  196MOL   C12743417   0.169   0.026   4.229  1.0167  0.4395 -0.7765
  196MOL   H12843418   0.360   0.101   4.235 -1.8877  0.7950  0.2680
  196MOL   H12943419   0.292   7.719   4.504 -0.1826  0.7408  1.1466
  196MOL   H13043420   0.462   7.713   4.501 -0.3607  2.1742  1.3059
  196MOL   H13143421   0.380   0.027   4.471  2.9848 -0.4075  1.6789
  196MOL   H13243422   0.144   0.121   4.183  0.2954  0.2698 -0.7419
  196MOL   H13343423   0.148   0.021   4.336  1.3293  1.9958 -0.6366
  196MOL   C13443424   0.086   7.756   4.156 -0.3429  0.5300  0.1618
  196MOL   C13543425   0.053   7.801   4.006 -0.2568 -0.2338  0.2686
  196MOL   O13643426   7.840   0.060   3.973 -0.3018 -0.2969 -0.5518
  196MOL   C13743427   0.101   7.701   3.909  0.2436  0.5196 -0.5813
  196MOL   C13843428   7.797   7.734   4.231 -0.2000 -0.6373  0.7780
  196MOL   H13943429   0.141   7.662   4.152  0.0249  0.7521 -0.1109
  196MOL   H14043430   0.058   7.730   3.813 -2.1933 -0.6977  0.1186
  196MOL   H14143431   0.210   7.703   3.900  0.3322 -0.3503  0.2394
  196MOL   H14243432   0.069   7.603   3.944 -1.5974  0.5261 -2.2161
  196MOL   H14343433   7.720   7.687   4.170  1.9134 -0.1534 -2.3221
  196MOL   H14443434   7.771   7.835   4.260 -0.2438 -0.5244  0.3291
  196MOL   C14543435   7.825   7.629   4.343 -0.1283  0.6240 -0.5339
  196MOL   C14643436   0.004   7.484   4.288  0.8326  0.2213 -0.4701
  196MOL   O14743437   7.808   7.444   4.179  0.7931 -0.0149 -0.0676
  196MOL   C14843438   0.089   7.388   4.372 -0.5029 -1.1898  0.2891
  196MOL   C14943439   7.701   7.617   4.450 -0.6680  0.8489 -0.5423
  196MOL   H15043440   0.073   7.658   4.398  0.2289 -0.4285 -0.5549
  196MOL   H15143441   0.065   7.385   4.478  0.4297 -2.2709  0.4795
  196MOL   H15243442   0.064   7.288   4.336 -1.2129  0.1362 -3.1299
  196MOL   H15343443   0.196   7.404   4.361 -0.2417 -2.8982  0.0819
  196MOL   H15443444   7.683   7.512   4.474  2.2525  0.4086 -0.0440
  196MOL   H15543445   7.609   7.640   4.397 -1.2907  0.5694  0.4011
  196MOL   C15643446   7.698   7.708   4.575  0.4914  0.0263 -1.5886
  196MOL   C15743447   7.725   0.014   4.539  0.1709  0.3785 -0.5023
  196MOL   O15843448   0.003   0.047   4.529 -0.0733 -0.7527 -0.1214
  196MOL   C15943449   7.609   0.109   4.520 -0.4564  0.4284 -0.0261
  196MOL   C16043450   7.799   7.667   4.690  0.4350 -0.2402 -0.1900
  196MOL   H16143451   7.601   7.690   4.621  0.0617  0.2270 -2.4019
  196MOL   H16243452   7.563   0.127   4.617 -0.0596  2.1610 -0.1412
  196MOL   H16343453   7.640   0.205   4.479  2.0957 -0.8087 -1.0534
  196MOL   H16443454   7.527   0.061   4.466 -1.1569  0.0443  1.3527
  196MOL   H16543455   0.056   7.678   4.645  0.9405 -3.2719  0.0709
  196MOL   H16643456   7.793   7.559   4.694  1.7664 -0.3780 -1.2154
  196MOL   C16743457   7.788   7.725   4.836  0.6265 -0.4422  0.0197
  196MOL   C16843458   0.083   7.725   4.903  0.5057  0.4599  0.3427
  196MOL   O16943459   0.109   7.631   4.979  0.6488 -0.3305 -0.2631
  196MOL   C17043460   0.187   7.832   4.867  0.1551  0.2796 -0.0905
  196MOL   C17143461   7.678   7.653   4.910  0.1515  0.0974  0.2362
  196MOL   H17243462   7.754   7.827   4.820  0.3368 -0.9799 -3.0680
  196MOL   H17343463   0.235   0.014   4.962 -1.1305  3.1466 -0.1201
  196MOL   H17443464   0.262   7.798   4.796  0.9399 -0.7410  1.1977
  196MOL   H17543465   0.125   0.076   4.840  1.0043  0.7226 -0.6606
  196MOL   H17643466   7.708   7.550   4.927  2.2685  0.3902 -1.4358
  196MOL   H17743467   7.590   7.637   4.847  0.8660 -0.7759 -0.5569
  196MOL   C17843468   7.641   7.722   5.040 -0.2168  0.5979  0.7694
  196MOL   C17943469   7.582   7.611   5.133  0.4646 -0.9937 -0.0783
  196MOL   O18043470   7.465   7.583   5.129 -0.3937 -0.3515 -0.2374
  196MOL   C18143471   7.682   7.547   5.229 -0.5243 -0.2788 -0.0816
  196MOL   C18243472   7.550   0.010   5.021 -0.9689  0.3582  0.3105
  196MOL   H18343473   7.730   7.749   5.097  0.6742 -0.1967 -0.2300
  196MOL   H18443474   7.714   7.450   5.191  2.3857  1.1220 -1.3303
  196MOL   H18543475   7.775   7.601   5.248  0.2624 -1.2243 -1.1819
  196MOL   H18643476   7.645   7.542   5.331  3.0141  1.2241  1.3652
  196MOL   H18743477   7.461   7.811   4.973 -1.0301 -1.0135  1.5495
  196MOL   H18843478   7.604   0.073   4.950 -1.8555 -0.2706 -0.9530
  196MOL   C18943479   7.514   0.088   5.145  0.7054  0.1222 -0.0254
  196MOL   C19043480   7.388   0.169   5.108  0.6331  0.0947 -0.6418
  196MOL   O19143481   7.354   0.206   4.996  0.1869  0.8152  0.1251
  196MOL   C19243482   7.289   0.202   5.224 -0.3365  0.3235 -0.1539
  196MOL   C19343483   7.620   0.166   5.223 -0.6108  0.6964 -0.9007
  196MOL   H19443484   7.459   0.018   5.208 -1.4757  1.0584 -0.8294
  196MOL   H19543485   7.250   0.301   5.201  1.4631  1.1710  0.3342
  196MOL   H19643486   7.201   0.138   5.233 -0.1443  0.0088 -0.4711
  196MOL   H19743487   7.344   0.210   5.318 -0.9806 -0.1343  0.2739
  196MOL   H19843488   7.698   0.105   5.269 -4.4243 -2.4115  1.6970
  196MOL   H19943489   7.572   0.205   5.312  2.1499  0.8141  0.6095
  196MOL   C20043490   7.687   0.280   5.139  0.3626  0.3151  0.4283
  196MOL   C20143491   7.797   0.238   5.045  0.5775 -0.2733 -0.0286
  196MOL   O20243492   0.050   0.172   5.081 -0.2857 -0.3740  0.5947
  196MOL   C20343493   7.815   0.314   4.907 -0.0126  0.7965 -0.2057
  196MOL   C20443494   7.720   0.400   5.220 -1.1011  0.3039  0.6790
  196MOL   H20543495   7.611   0.305   5.065  1.9304  2.4302 -0.5039
  196MOL   H20643496   7.733   0.281   4.844 -0.5256  1.7859 -0.0617
  196MOL   H20743497   7.812   0.423   4.916  1.7573  0.7516  1.1455
  196MOL   H20843498   0.064   0.285   4.854 -0.1721 -1.4486  0.6917
  196MOL   H20943499   7.810   0.457   5.195 -1.7611  0.5244 -1.3293
  196MOL   H21043500   7.749   0.375   5.322  0.5340  1.7458  0.5846
  196MOL   C21143501   7.598   0.489   5.231  0.2023 -0.0575 -0.0855
  196MOL   C21243502   7.560   0.552   5.100  0.1550 -0.9156  0.2439
  196MOL   O21343503   7.643   0.575   5.012 -0.2030  0.1824 -0.0742
  196MOL   C21443504   7.420   0.603   5.084  0.4517 -0.1857  0.2721
  196MOL   C21543505   7.620   0.610   5.337 -0.5146  0.5159  0.4452
  196MOL   H21643506   7.511   0.432   5.264 -0.2683  0.7666  0.1137
  196MOL   H21743507   7.401   0.640   4.984  2.1354 -1.4556 -0.5373
  196MOL   H21843508   7.355   0.517   5.100 -0.9520 -0.3702 -5.3401
  196MOL   H21943509   7.397   0.684   5.154 -1.1752 -0.6120  0.2491
  196MOL   H22043510   7.643   0.573   5.437  0.8440 -1.9578 -0.7324
  196MOL   H22143511   7.531   0.672   5.353 -1.2226 -0.3709 -0.0604
  196MOL   H22243512   7.697   0.682   5.307 -1.8745  1.9025  0.2255
  197MOL     C143513   3.985   1.589   4.740  0.6626 -0.1204  0.5015
  197MOL     C243514   4.020   1.732   4.691 -0.6291 -0.4425  0.3803
  197MOL     O343515   4.013   1.762   4.572  0.0473 -0.4753  0.4901
  197MOL     C443516   4.053   1.834   4.796 -0.7567 -0.2763 -0.1310
  197MOL     C543517   3.832   1.564   4.755  0.2948  0.1552 -0.3371
  197MOL     H643518   4.033   1.519   4.671  0.3297  1.0549 -0.9687
  197MOL     H743519   4.161   1.837   4.806 -0.9845  0.7901  2.4036
  197MOL     H843520   4.010   1.932   4.773  1.5723  0.7115 -0.3971
  197MOL     H943521   4.019   1.798   4.893  1.5572  1.4788  1.3851
  197MOL    H1043522   3.779   1.554   4.661  2.4059 -4.2932 -1.1659
  197MOL    H1143523   3.797   1.656   4.801  1.3209 -0.3136  1.4178
  197MOL    H1243524   4.031   1.563   4.835  0.6317  0.8905  0.7911
  197MOL    C1343525   3.810   1.437   4.841 -0.3360 -0.2690 -0.4284
  197MOL    C1443526   3.878   1.306   4.793  0.1045 -0.9260  0.1201
  197MOL    O1543527   3.857   1.274   4.677 -0.0928 -0.0028  0.4368
  197MOL    C1643528   3.964   1.233   4.889  0.2897 -0.0203  0.4433
  197MOL    C1743529   3.661   1.410   4.891 -0.5654  0.1927 -0.2215
  197MOL    H1843530   3.863   1.451   4.935 -3.2481 -0.0555  1.2351
  197MOL    H1943531   4.064   1.275   4.886  0.9835 -1.6919 -0.3292
  197MOL    H2043532   3.916   1.241   4.987 -2.0479  0.1736 -0.6790
  197MOL    H2143533   3.980   1.127   4.868  0.2244 -0.4525  2.4211
  197MOL    H2243534   3.649   1.314   4.940  0.9875 -0.5802 -1.2887
  197MOL    H2343535   3.596   1.397   4.805  1.0219  0.1848 -1.4523
  197MOL    C2443536   3.607   1.531   4.972  0.5912 -0.2350  0.7219
  197MOL    C2543537   3.594   1.504   5.123  0.1723  0.6017 -0.1725
  197MOL    O2643538   3.489   1.484   5.182  0.2617  0.0137  0.0123
  197MOL    C2743539   3.727   1.495   5.197  0.7883 -0.1988 -0.2154
  197MOL    C2843540   3.470   1.589   4.914  0.4892 -0.0823  0.3506
  197MOL    H2943541   3.669   1.621   4.961 -0.3534  0.6157  2.2006
  197MOL    H3043542   3.801   1.571   5.170  0.9020  0.7395  2.5811
  197MOL    H3143543   3.720   1.520   5.303 -1.2651 -4.0775  0.6613
  197MOL    H3243544   3.756   1.389   5.199  0.5206 -0.3016 -1.3462
  197MOL    H3343545   3.414   1.648   4.987 -1.3264 -0.1465 -0.9361
  197MOL    H3443546   3.411   1.498   4.902 -1.4100  1.2940 -1.0706
  197MOL    C3543547   3.462   1.667   4.782 -0.2460  0.1383 -0.2614
  197MOL    C3643548   3.535   1.802   4.794 -0.6529 -0.3857  0.1509
  197MOL    O3743549   3.516   1.877   4.886 -0.3925  0.6227 -0.6373
  197MOL    C3843550   3.613   1.842   4.663 -0.2130  0.5434 -0.5511
  197MOL    C3943551   3.315   1.686   4.746  0.4996  0.0114 -0.0009
  197MOL    H4043552   3.519   1.611   4.707  1.0098  2.2840 -0.9400
  197MOL    H4143553   3.670   1.757   4.626 -1.2667 -0.2988 -0.2410
  197MOL    H4243554   3.527   1.861   4.598 -1.5576  1.9769  1.5665
  197MOL    H4343555   3.678   1.927   4.685 -1.9185  2.0714 -1.2390
  197MOL    H4443556   3.321   1.764   4.670 -0.7242 -0.9279 -1.0813
  197MOL    H4543557   3.250   1.723   4.826  1.3031 -0.7767  1.0173
  197MOL    C4643558   3.240   1.571   4.676  0.0998 -0.1965  0.3755
  197MOL    C4743559   3.308   1.529   4.542  0.1974 -0.1775 -0.7791
  197MOL    O4843560   3.355   1.613   4.468  0.4065  0.0104 -0.4303
  197MOL    C4943561   3.309   1.379   4.513 -1.4981 -0.3078  0.6437
  197MOL    C5043562   3.096   1.623   4.639 -1.3068 -0.3971 -0.5263
  197MOL    H5143563   3.220   1.480   4.732 -0.3606  0.3735  1.1648
  197MOL    H5243564   3.351   1.320   4.594 -2.6889  0.4442  1.8505
  197MOL    H5343565   3.211   1.332   4.503  0.2902 -3.9518 -0.6027
  197MOL    H5443566   3.372   1.355   4.428  1.5817 -0.7479  2.9553
  197MOL    H5543567   3.100   1.700   4.562  4.5329 -0.0308 -0.0658
  197MOL    H5643568   3.057   1.674   4.728 -0.1584 -1.9373  0.9012
  197MOL    C5743569   3.003   1.513   4.580  0.3915 -0.2896  0.2206
  197MOL    C5843570   2.876   1.586   4.525  0.3502 -0.0168 -0.1020
  197MOL    O5943571   2.798   1.645   4.593 -0.2046 -0.2605 -0.2137
  197MOL    C6043572   2.844   1.588   4.376  0.4999 -0.2412 -0.5386
  197MOL    C6143573   2.961   1.400   4.672 -0.1054 -0.3577 -0.2108
  197MOL    H6243574   3.058   1.460   4.502 -1.8278 -1.4083 -0.6471
  197MOL    H6343575   2.804   1.490   4.348 -0.4351 -0.6322  1.9884
  197MOL    H6443576   2.770   1.658   4.339  1.3486  0.4304 -0.9634
  197MOL    H6543577   2.929   1.608   4.311  1.5705 -0.3555  0.7922
  197MOL    H6643578   3.048   1.336   4.687  1.3476  1.8559  1.2740
  197MOL    H6743579   2.889   1.337   4.621  0.0209 -2.7212  2.3748
  197MOL    C6843580   2.916   1.443   4.818  0.8255 -0.6037 -0.6427
  197MOL    C6943581   3.028   1.425   4.919 -0.5027 -0.7220  0.4875
  197MOL    O7043582   3.111   1.337   4.906  0.1972 -0.1830 -0.7094
  197MOL    C7143583   3.042   1.520   5.037 -0.0203  0.4789  0.5629
  197MOL    C7243584   2.801   1.356   4.864  0.6718 -0.7891 -0.7693
  197MOL    H7343585   2.897   1.551   4.820 -0.6008 -0.7998 -2.3637
  197MOL    H7443586   3.033   1.624   5.007 -0.2589  0.4090  0.3988
  197MOL    H7543587   2.972   1.508   5.120 -0.8507 -2.0001 -0.4809
  197MOL    H7643588   3.149   1.517   5.060  0.3900  0.4247 -1.3052
  197MOL    H7743589   2.781   1.355   4.972  3.4066  2.3656 -0.1678
  197MOL    H7843590   2.821   1.251   4.842  3.0562 -0.1795 -1.6398
  197MOL    C7943591   2.672   1.406   4.796 -0.6401 -0.0510  0.3856
  197MOL    C8043592   2.619   1.536   4.863  0.2583 -0.6324 -0.0444
  197MOL    O8143593   2.641   1.562   4.987  0.7614  0.1135  0.1051
  197MOL    C8243594   2.523   1.626   4.781  0.3745 -0.1011  0.4031
  197MOL    C8343595   2.566   1.293   4.795 -0.4330  0.7365 -0.0333
  197MOL    H8443596   2.680   1.432   4.691 -3.2118  1.1920  0.4513
  197MOL    H8543597   2.488   1.574   4.692  2.7173 -1.6778  0.3317
  197MOL    H8643598   2.434   1.668   4.828  0.0367  0.2612 -0.5455
  197MOL    H8743599   2.575   1.715   4.745  1.5016 -0.3283  1.4317
  197MOL    H8843600   2.610   1.208   4.742  1.1697  1.4333  0.1639
  197MOL    H8943601   2.480   1.328   4.739 -1.5039 -0.0267  1.0871
  197MOL    C9043602   2.521   1.233   4.931  0.8423 -0.1126  0.2227
  197MOL    C9143603   2.575   1.093   4.958  0.1166  0.1835  0.6244
  197MOL    O9243604   2.573   1.003   4.870  0.3867  0.0969  0.5936
  197MOL    C9343605   2.606   1.064   5.098  0.2630 -0.3430 -0.7493
  197MOL    C9443606   2.367   1.223   4.966 -0.5515  0.1023  0.2746
  197MOL    H9543607   2.558   1.303   5.005 -0.3955  0.4046  0.3550
  197MOL    H9643608   2.528   1.001   5.139 -1.6717  1.1216 -2.1292
  197MOL    H9743609   2.702   1.013   5.114  0.0897 -1.3137 -2.7162
  197MOL    H9843610   2.621   1.155   5.156 -0.7055 -1.3611  1.1799
  197MOL    H9943611   2.344   1.145   5.038 -2.5382 -0.4607 -0.9325
  197MOL   H10043612   2.319   1.195   4.872  0.9777 -0.1945 -0.4438
  197MOL   C10143613   2.307   1.359   5.005 -0.1441  0.1488 -0.5949
  197MOL   C10243614   2.346   1.410   5.145 -0.1344  0.6776  0.4321
  197MOL   O10343615   2.397   1.520   5.152  0.7054  0.3153 -0.2403
  197MOL   C10443616   2.336   1.319   5.268  0.3890  0.0576  0.2172
  197MOL   C10543617   2.147   1.362   4.984 -0.4599  0.5378 -0.6517
  197MOL   H10643618   2.348   1.431   4.936 -0.8001  0.7498 -0.3617
  197MOL   H10743619   2.274   1.362   5.347 -0.2214 -0.2552 -0.0968
  197MOL   H10843620   2.297   1.222   5.238 -0.8112 -0.0814  2.1346
  197MOL   H10943621   2.436   1.308   5.312  1.4674 -2.1777 -2.6451
  197MOL   H11043622   2.098   1.349   5.081  0.7386 -1.4345 -0.2781
  197MOL   H11143623   2.113   1.282   4.919 -0.6450 -0.0225  0.1174
  197MOL   C11243624   2.088   1.488   4.924 -0.6543 -0.1092  0.7205
  197MOL   C11343625   2.065   1.604   5.017 -0.0254 -0.4755 -0.1687
  197MOL   O11443626   2.016   1.581   5.126 -0.0425 -0.0393  0.2608
  197MOL   C11543627   2.106   1.740   4.979  0.8070  0.3073 -0.4405
  197MOL   C11643628   1.963   1.469   4.826  0.1397  0.5901  0.5321
  197MOL   H11743629   2.169   1.527   4.862 -0.3486  0.7257  1.6378
  197MOL   H11843630   2.082   1.766   4.876  0.8440 -1.0594 -0.8065
  197MOL   H11943631   2.065   1.815   5.046 -0.5436  0.0153 -0.9110
  197MOL   H12043632   2.215   1.744   4.986  0.7945 -0.8264  0.6560
  197MOL   H12143633   1.977   1.387   4.755  0.1551  1.7379 -0.8098
  197MOL   H12243634   1.954   1.550   4.753 -1.3138 -0.6763 -0.7484
  197MOL   C12343635   1.827   1.436   4.894 -0.1436  0.8233  0.2176
  197MOL   C12443636   1.818   1.298   4.950  0.1937  0.0012  0.3057
  197MOL   O12543637   1.845   1.199   4.875 -0.0324 -0.7383 -0.2772
  197MOL   C12643638   1.789   1.294   5.091 -0.5557  0.0104  0.2132
  197MOL   C12743639   1.703   1.453   4.794  0.7260  0.0014 -0.0307
  197MOL   H12843640   1.816   1.508   4.976  3.4578 -0.5813  2.0424
  197MOL   H12943641   1.771   1.187   5.103  1.3597 -0.5625 -1.6283
  197MOL   H13043642   1.878   1.331   5.143 -0.4931  1.3431 -0.8076
  197MOL   H13143643   1.692   1.333   5.123 -0.1023  1.3259  0.0115
  197MOL   H13243644   1.702   1.374   4.719 -0.7114  0.7121 -0.7861
  197MOL   H13343645   1.717   1.545   4.737 -2.5353 -0.1045 -1.1592
  197MOL   C13443646   1.555   1.482   4.853  0.0844  0.0807 -0.2076
  197MOL   C13543647   1.567   1.612   4.945  0.2320  0.5858  0.1237
  197MOL   O13643648   1.578   1.605   5.065  0.4593  0.0582 -0.2518
  197MOL   C13743649   1.578   1.743   4.879  0.5949  0.2555 -0.6762
  197MOL   C13843650   1.469   1.375   4.928  0.0000  0.4775  0.3833
  197MOL   H13943651   1.504   1.523   4.766 -1.3555 -2.3227 -0.5365
  197MOL   H14043652   1.505   1.756   4.799  0.4912 -0.0401 -0.6323
  197MOL   H14143653   1.562   1.820   4.954 -0.0359 -1.8488  1.4067
  197MOL   H14243654   1.673   1.767   4.831 -0.3783  1.1662 -2.1825
  197MOL   H14343655   1.521   1.362   5.023  0.5783 -0.3794 -0.0423
  197MOL   H14443656   1.487   1.287   4.866 -2.9923  0.2395 -0.2120
  197MOL   C14543657   1.310   1.380   4.939  0.2594  0.0986  0.2070
  197MOL   C14643658   1.249   1.409   4.801 -0.3896  1.1837  0.4283
  197MOL   O14743659   1.255   1.521   4.749 -0.1402 -0.1368  0.1920
  197MOL   C14843660   1.198   1.286   4.735  0.4295 -0.0185  0.4517
  197MOL   C14943661   1.267   1.484   5.052 -0.4754 -0.8090  0.2560
  197MOL   H15043662   1.269   1.286   4.977 -0.9563  0.9318  0.9756
  197MOL   H15143663   1.278   1.216   4.712  0.8412  0.5495  0.1390
  197MOL   H15243664   1.113   1.247   4.791  0.5145 -0.0726  0.5419
  197MOL   H15343665   1.160   1.324   4.640  1.5105  0.4458  0.1935
  197MOL   H15443666   1.304   1.582   5.021 -0.2174 -1.0052 -0.0641
  197MOL   H15543667   1.316   1.472   5.148  1.6931  0.6381 -0.6293
  197MOL   C15643668   1.111   1.507   5.069  0.1921 -0.7176  0.8761
  197MOL   C15743669   1.063   1.644   5.135  0.5077 -0.2486 -0.2367
  197MOL   O15843670   0.981   1.650   5.230  0.2060  0.3577 -0.0418
  197MOL   C15943671   1.128   1.766   5.091  0.6356 -0.2399  1.2369
  197MOL   C16043672   1.047   1.382   5.125 -1.0234 -0.3976  0.0619
  197MOL   H16143673   1.071   1.513   4.968 -0.8446  3.1015  1.4289
  197MOL   H16243674   1.064   1.845   5.129 -0.8435 -0.8760  0.0943
  197MOL   H16343675   1.231   1.778   5.126  0.8215 -0.8601  0.9144
  197MOL   H16443676   1.132   1.771   4.982 -1.8649  0.1454  1.1358
  197MOL   H16543677   1.067   1.298   5.059  1.4895 -0.4047  0.7829
  197MOL   H16643678   0.940   1.387   5.105 -1.2135 -1.5596  0.7488
  197MOL   C16743679   1.071   1.347   5.274 -0.6268  0.3343 -0.0209
  197MOL   C16843680   1.169   1.232   5.288  0.2643  0.3364 -0.8860
  197MOL   O16943681   1.155   1.114   5.244  0.3369  0.0193  0.3973
  197MOL   C17043682   1.304   1.275   5.332 -0.1370  0.0181  0.1735
  197MOL   C17143683   0.940   1.306   5.337 -0.1488  0.3697  0.4592
  197MOL   H17243684   1.099   1.430   5.340 -1.5594 -0.4806  1.4430
  197MOL   H17343685   1.339   1.195   5.397  0.1281 -0.1497 -0.1692
  197MOL   H17443686   1.363   1.265   5.240  1.7087  0.7242  1.2497
  197MOL   H17543687   1.320   1.368   5.386  0.9033 -0.7053  1.1324
  197MOL   H17643688   0.891   1.222   5.288 -0.8367  1.8663 -1.4941
  197MOL   H17743689   0.871   1.387   5.313  0.9256  1.2932  0.4848
  197MOL   C17843690   0.939   1.302   5.494  0.5054 -0.0408 -0.2310
  197MOL   C17943691   0.957   1.161   5.543  0.2072 -0.2896  0.2920
  197MOL   O18043692   0.887   1.072   5.501 -0.0562 -1.0490  0.4176
  197MOL   C18143693   1.057   1.133   5.653 -0.4015  0.8870  0.1647
  197MOL   C18243694   0.811   1.364   5.554  0.0895  0.0364  0.3904
  197MOL   H18343695   1.024   1.352   5.538  0.5761  0.9215 -1.4322
  197MOL   H18443696   1.157   1.102   5.622  0.3472  1.4440  1.9710
  197MOL   H18543697   1.087   1.221   5.710  0.8149  0.4352  0.2328
  197MOL   H18643698   1.015   1.058   5.720  1.2868 -1.0928 -0.9177
  197MOL   H18743699   0.805   1.367   5.663  1.9286  1.1140  0.4852
  197MOL   H18843700   0.719   1.313   5.525 -0.4007  1.3489 -0.4331
  197MOL   C18943701   0.800   1.514   5.532  0.3712 -0.2563 -0.3090
  197MOL   C19043702   0.913   1.590   5.606  0.3163 -0.1044 -0.1260
  197MOL   O19143703   0.975   1.543   5.708 -0.0031  0.2347  0.0991
  197MOL   C19243704   0.938   1.734   5.566 -0.2668 -0.3081 -0.6005
  197MOL   C19343705   0.657   1.568   5.573  0.8241 -0.2164 -0.0174
  197MOL   H19443706   0.805   1.539   5.426  1.0751 -1.7438 -0.6293
  197MOL   H19543707   0.953   1.807   5.645 -0.5968 -0.4697 -0.3863
  197MOL   H19643708   1.030   1.737   5.509 -0.9441 -1.0104 -1.7539
  197MOL   H19743709   0.846   1.774   5.521 -0.6685  1.3737  1.6414
  197MOL   H19843710   0.588   1.495   5.532  0.6839  0.2139 -0.5585
  197MOL   H19943711   0.639   1.656   5.511 -0.0329 -0.6464 -0.3771
  197MOL   C20043712   0.647   1.593   5.729  0.2451  0.1553  0.1210
  197MOL   C20143713   0.609   1.463   5.802 -0.0665 -0.5567  0.1846
  197MOL   O20243714   0.518   1.391   5.759  0.0249 -0.5001  0.1564
  197MOL   C20343715   0.684   1.420   5.931 -0.0158 -0.3375 -0.1377
  197MOL   C20443716   0.535   1.710   5.754  0.5462 -0.3966 -0.0092
  197MOL   H20543717   0.745   1.621   5.767  0.4138  1.1731 -1.0233
  197MOL   H20643718   0.688   1.312   5.940  0.6021 -0.4991 -2.2003
  197MOL   H20743719   0.788   1.451   5.922  0.2943 -1.3670 -0.1688
  197MOL   H20843720   0.636   1.464   6.019  0.1010  0.9732 -0.7115
  197MOL   H20943721   0.437   1.666   5.766 -0.3246  1.2989 -0.7429
  197MOL   H21043722   0.524   1.758   5.657 -2.1472 -0.4251  0.2665
  197MOL   C21143723   0.567   1.815   5.861 -0.2368 -0.6347  0.9139
  197MOL   C21243724   0.660   1.924   5.805 -0.2362 -0.1253  1.1293
  197MOL   O21343725   0.782   1.913   5.815 -0.5437 -0.4582  0.1105
  197MOL   C21443726   0.599   2.044   5.736 -0.6768  0.0444 -0.7655
  197MOL   C21543727   0.619   1.753   5.990  0.3468  0.1836 -0.7692
  197MOL   H21643728   0.474   1.870   5.877 -0.7426 -0.5527 -2.0525
  197MOL   H21743729   0.619   2.141   5.784 -0.9621  0.1119 -0.7801
  197MOL   H21843730   0.631   2.042   5.632 -0.6900  1.7841 -0.8284
  197MOL   H21943731   0.494   2.035   5.765 -0.8595  0.8409 -1.1731
  197MOL   H22043732   0.545   1.682   6.026 -0.1684  0.4020 -1.3935
  197MOL   H22143733   0.616   1.823   6.073  2.7139 -0.9225  0.2873
  197MOL   H22243734   0.716   1.704   6.005 -0.5626 -1.6801 -0.8047
  198MOL     C143735   4.591   4.905   2.149 -0.3558  0.8156  0.4414
  198MOL     C243736   4.495   4.801   2.199 -0.2164  0.3117 -0.0159
  198MOL     O343737   4.526   4.682   2.186  0.0308 -0.5040 -0.4787
  198MOL     C443738   4.372   4.849   2.271  0.7111  0.0733 -0.4052
  198MOL     C543739   4.739   4.854   2.125 -0.2443 -0.1387 -0.1731
  198MOL     H643740   4.548   4.931   2.052 -0.0289 -0.7483 -0.1332
  198MOL     H743741   4.290   4.793   2.226  0.7279  0.0554 -0.4129
  198MOL     H843742   4.374   4.822   2.376 -0.8269  1.2628 -0.0640
  198MOL     H943743   4.341   4.954   2.270 -1.0480 -0.4120  0.9423
  198MOL    H1043744   4.807   4.938   2.110 -2.4444  1.5176 -1.0964
  198MOL    H1143745   4.750   4.790   2.038  0.2244  0.6890 -0.7335
  198MOL    H1243746   4.602   4.992   2.214  2.9510  1.5033 -0.9024
  198MOL    C1343747   4.799   4.778   2.250  0.5358  0.2085 -0.2515
  198MOL    C1443748   4.790   4.867   2.372  0.4651  0.6194 -0.1193
  198MOL    O1543749   4.845   4.973   2.376 -0.4851 -0.3014 -0.3654
  198MOL    C1643750   4.710   4.819   2.496  0.2465  0.0681 -0.2187
  198MOL    C1743751   4.950   4.736   2.222  0.1836 -0.0663  0.2223
  198MOL    H1843752   4.747   4.690   2.287  1.5659 -0.8373 -1.2892
  198MOL    H1943753   4.772   4.751   2.553 -0.3525 -0.2040  0.1134
  198MOL    H2043754   4.684   4.907   2.555  1.5013  0.8008 -0.7504
  198MOL    H2143755   4.618   4.768   2.466  0.2719  0.0253 -0.2231
  198MOL    H2243756   5.014   4.822   2.205 -0.9108  0.5698 -0.7691
  198MOL    H2343757   4.944   4.702   2.119 -0.8429  0.2380  0.1759
  198MOL    C2443758   5.026   4.641   2.316 -0.3347  0.5659 -0.1282
  198MOL    C2543759   4.955   4.507   2.349  0.2125  0.3229  0.3473
  198MOL    O2643760   4.908   4.482   2.464  0.5088 -0.1669 -0.6699
  198MOL    C2743761   4.943   4.408   2.231  0.1618  0.5520 -0.1562
  198MOL    C2843762   5.094   4.710   2.435  0.7028 -0.3315 -0.4715
  198MOL    H2943763   5.117   4.619   2.259  0.6868  0.2518  1.5918
  198MOL    H3043764   4.926   4.304   2.260  1.1606  0.1862 -0.8413
  198MOL    H3143765   4.881   4.434   2.146 -2.7350 -2.7912  0.8153
  198MOL    H3243766   5.043   4.413   2.187  0.2639 -1.2219 -0.1720
  198MOL    H3343767   5.008   4.757   2.484  1.5413  1.9997 -1.1823
  198MOL    H3443768   5.156   4.787   2.391  1.4798 -0.6452  0.0569
  198MOL    C3543769   5.170   4.618   2.533 -0.0869  0.6036 -0.2627
  198MOL    C3643770   5.194   4.698   2.664  0.3054  0.6901  0.9611
  198MOL    O3743771   5.263   4.796   2.663  0.5011  0.5449 -0.0601
  198MOL    C3843772   5.135   4.644   2.795 -0.3481 -0.3896  0.4436
  198MOL    C3943773   5.292   4.545   2.471  0.9843 -0.3020  0.7615
  198MOL    H4043774   5.096   4.543   2.559 -0.1533  0.9217  0.5020
  198MOL    H4143775   5.091   4.727   2.850 -2.4947 -2.0275  1.2544
  198MOL    H4243776   5.056   4.572   2.773 -1.4050  1.0780 -0.7612
  198MOL    H4343777   5.217   4.600   2.851  1.1508 -1.2381 -2.3243
  198MOL    H4443778   5.365   4.625   2.457  1.8545 -1.1203  0.5871
  198MOL    H4543779   5.257   4.503   2.377  0.3215  0.0059  0.8668
  198MOL    C4643780   5.347   4.440   2.568 -0.7108 -0.7604 -0.0448
  198MOL    C4743781   5.501   4.413   2.542 -0.5431  0.3018 -0.1161
  198MOL    O4843782   5.578   4.401   2.637 -0.0855  0.4589  0.5468
  198MOL    C4943783   5.541   4.379   2.399  0.4454 -0.1792 -0.3223
  198MOL    C5043784   5.257   4.313   2.568 -0.4977  0.2912 -0.9543
  198MOL    H5143785   5.349   4.481   2.669  0.8617  0.8974 -0.7153
  198MOL    H5243786   5.641   4.336   2.396  0.7370  0.5865 -3.1710
  198MOL    H5343787   5.472   4.310   2.350 -0.2659 -0.6707  1.3596
  198MOL    H5443788   5.547   4.469   2.337 -0.9626  0.7585  0.8512
  198MOL    H5543789   5.246   4.270   2.468 -1.3817 -1.0169 -0.3140
  198MOL    H5643790   5.159   4.345   2.602 -0.6373 -2.0095  0.9060
  198MOL    C5743791   5.309   4.202   2.666  0.2741  0.4262  0.2996
  198MOL    C5843792   5.407   4.093   2.605 -0.1214 -0.1973 -0.0401
  198MOL    O5943793   5.396   4.062   2.488  0.6102 -0.7780 -0.5487
  198MOL    C6043794   5.516   4.035   2.691  0.8260  0.2632 -0.2721
  198MOL    C6143795   5.205   4.132   2.752 -1.1596  0.2031  0.6826
  198MOL    H6243796   5.374   4.266   2.726  2.1903 -0.0174 -1.2595
  198MOL    H6343797   5.482   3.935   2.720 -3.0550  1.6857  0.4406
  198MOL    H6443798   5.593   3.999   2.624  1.2133  0.8387 -0.1390
  198MOL    H6543799   5.537   4.092   2.781 -2.7167  1.3833 -0.0813
  198MOL    H6643800   5.231   4.029   2.777  0.0221  0.6289  1.2479
  198MOL    H6743801   5.122   4.110   2.685  0.1561 -1.2317 -0.5445
  198MOL    C6843802   5.166   4.210   2.876 -0.3877  0.3182 -0.6448
  198MOL    C6943803   5.274   4.215   2.988 -0.5244  0.9979 -0.1656
  198MOL    O7043804   5.379   4.147   2.990  0.1584 -0.1747  0.0521
  198MOL    C7143805   5.258   4.321   3.099  0.3456 -0.5545  0.4518
  198MOL    C7243806   5.027   4.169   2.920  0.2578 -0.1589 -0.4841
  198MOL    H7343807   5.158   4.315   2.847 -1.4544  0.0953 -1.1926
  198MOL    H7443808   5.184   4.398   3.078  1.8450  0.7349 -0.1869
  198MOL    H7543809   5.232   4.276   3.195 -0.0765  1.5492  1.3431
  198MOL    H7643810   5.353   4.371   3.117  1.5262 -2.6580  0.2982
  198MOL    H7743811   4.950   4.174   2.844  0.2220  0.5110 -0.4010
  198MOL    H7843812   4.997   4.251   2.984  2.5909  0.3216  0.0615
  198MOL    C7943813   5.009   4.040   3.004  0.1387 -0.3291 -0.2159
  198MOL    C8043814   5.002   3.916   2.912 -0.2813 -0.1459  0.3040
  198MOL    O8143815   4.930   3.906   2.814  0.3933 -0.0370 -0.6239
  198MOL    C8243816   5.111   3.812   2.944  0.4412 -0.1718  0.4447
  198MOL    C8343817   4.916   4.036   3.126 -0.5567  0.6044  0.9390
  198MOL    H8443818   5.107   4.021   3.049 -0.2350  2.4845  1.8540
  198MOL    H8543819   5.142   3.827   3.047 -1.8216 -0.5961  1.2310
  198MOL    H8643820   5.076   3.710   2.928 -1.8472  0.5504  0.5931
  198MOL    H8743821   5.198   3.828   2.880 -0.3937 -0.6726 -0.8333
  198MOL    H8843822   4.925   4.130   3.181  0.3759  1.2757 -0.3356
  198MOL    H8943823   4.964   3.955   3.180  1.2506  0.6642 -0.5195
  198MOL    C9043824   4.764   4.004   3.099 -0.2163  0.6523 -0.3326
  198MOL    C9143825   4.696   4.102   2.995 -0.3966  0.2885 -0.1043
  198MOL    O9243826   4.701   4.226   3.011 -0.7730  0.3813  0.6716
  198MOL    C9343827   4.623   4.030   2.885  0.4357 -0.4211  0.1097
  198MOL    C9443828   4.694   4.011   3.239  0.4497 -0.5192  0.3910
  198MOL    H9543829   4.760   3.905   3.055 -0.2057 -0.5486  2.2416
  198MOL    H9643830   4.701   3.971   2.836  1.0171  0.4455 -0.0252
  198MOL    H9743831   4.549   3.967   2.933 -0.7803 -0.5947 -1.9571
  198MOL    H9843832   4.588   4.113   2.823 -0.4494 -1.8758 -1.3500
  198MOL    H9943833   4.588   4.004   3.216  0.0334  0.6489  1.8966
  198MOL   H10043834   4.715   4.110   3.277  1.0547  0.1972 -1.7341
  198MOL   C10143835   4.732   3.898   3.339  0.2255  0.0528 -0.3298
  198MOL   C10243836   4.688   3.766   3.277  0.4220 -0.1433 -0.1516
  198MOL   O10343837   4.573   3.735   3.259 -0.4493  0.1089  0.1323
  198MOL   C10443838   4.796   3.675   3.219 -0.3686  0.0294 -0.1515
  198MOL   C10543839   4.678   3.921   3.484 -0.4360  0.9362 -0.1033
  198MOL   H10643840   4.840   3.887   3.349  0.3908  0.3063 -1.6942
  198MOL   H10743841   4.807   3.575   3.261 -1.2866 -0.5505 -1.2661
  198MOL   H10843842   4.790   3.658   3.111 -1.0853 -1.7186  0.1453
  198MOL   H10943843   4.889   3.731   3.232  1.1268 -2.4412  0.1622
  198MOL   H11043844   4.571   3.903   3.485 -0.1028 -1.1385 -0.5648
  198MOL   H11143845   4.689   4.026   3.513  3.4552 -0.3033  3.3711
  198MOL   C11243846   4.726   3.829   3.602 -0.7721  0.0604  0.5705
  198MOL   C11343847   4.872   3.794   3.590  0.2473 -0.0578  0.0004
  198MOL   O11443848   4.907   3.706   3.515  0.1898 -0.4181  0.7230
  198MOL   C11543849   4.978   3.876   3.659 -0.2860  0.0724 -0.8165
  198MOL   C11643850   4.639   3.697   3.617  0.5032 -0.5746  0.3582
  198MOL   H11743851   4.734   3.884   3.696  0.2323 -2.0496  1.7613
  198MOL   H11843852   5.043   3.815   3.721 -2.6974 -1.0153  0.7273
  198MOL   H11943853   5.036   3.917   3.576  0.1811  0.1975 -0.4263
  198MOL   H12043854   4.943   3.959   3.721 -1.5056 -1.9937  1.3341
  198MOL   H12143855   4.690   3.627   3.682 -0.7303 -1.1503  0.7137
  198MOL   H12243856   4.641   3.638   3.525  2.1991  0.4873 -0.3170
  198MOL   C12343857   4.486   3.722   3.657 -0.5344  0.4924  0.5455
  198MOL   C12443858   4.473   3.807   3.784 -0.5660  0.1928  0.2326
  198MOL   O12543859   4.560   3.812   3.875  0.5492  0.2885 -0.0627
  198MOL   C12643860   4.351   3.892   3.802  0.8967  0.0332 -0.2147
  198MOL   C12743861   4.428   3.578   3.670  0.3339 -0.5196 -0.3485
  198MOL   H12843862   4.439   3.770   3.572  1.4004  0.3982 -0.5830
  198MOL   H12943863   4.265   3.863   3.741  0.5203  1.0629 -0.1808
  198MOL   H13043864   4.307   3.881   3.902 -0.2405 -1.3125 -0.8346
  198MOL   H13143865   4.368   3.996   3.774 -0.4554  0.1119 -0.7885
  198MOL   H13243866   4.471   3.526   3.755 -0.2801  0.6315  0.6749
  198MOL   H13343867   4.466   3.512   3.592 -0.9071 -2.7627  0.9116
  198MOL   C13443868   4.279   3.565   3.642  0.7020  0.3957 -1.3468
  198MOL   C13543869   4.193   3.587   3.764  0.0705 -0.0162  0.2696
  198MOL   O13643870   4.235   3.579   3.879  0.1736  0.5860  0.3609
  198MOL   C13743871   4.051   3.626   3.736 -0.4535 -0.5299  0.5971
  198MOL   C13843872   4.244   3.436   3.570  0.5722  0.9339 -0.1803
  198MOL   H13943873   4.246   3.648   3.579 -1.4589  0.1171 -0.6253
  198MOL   H14043874   3.974   3.550   3.730  1.9305 -2.9420 -0.5739
  198MOL   H14143875   4.015   3.704   3.804 -1.4361 -1.4099  1.0872
  198MOL   H14243876   4.045   3.662   3.633  0.4271  1.1944  1.1307
  198MOL   H14343877   4.137   3.418   3.579  0.7748 -0.0187  0.4060
  198MOL   H14443878   4.292   3.349   3.615  1.4600 -0.1705 -3.1187
  198MOL   C14543879   4.275   3.436   3.421  0.2876  0.7712  0.5588
  198MOL   C14643880   4.169   3.517   3.343 -0.6569  0.2028  0.0772
  198MOL   O14743881   4.064   3.465   3.304  0.6577  0.2286 -0.3690
  198MOL   C14843882   4.205   3.661   3.310 -0.1229  1.0695 -0.2650
  198MOL   C14943883   4.277   3.279   3.373 -0.7708  1.2212  0.3152
  198MOL   H15043884   4.371   3.488   3.413  1.6458 -1.2880  2.8754
  198MOL   H15143885   4.136   3.728   3.362  0.7260  1.0170  0.9262
  198MOL   H15243886   4.301   3.689   3.353 -0.0647 -1.4311  1.3143
  198MOL   H15343887   4.206   3.684   3.203 -0.5243  1.4536 -0.1873
  198MOL   H15443888   4.233   3.275   3.273  1.8115 -0.2199 -0.8155
  198MOL   H15543889   4.218   3.207   3.430 -0.0449  1.6077  1.5786
  198MOL   C15643890   4.423   3.215   3.358  0.6643 -0.5389 -0.3806
  198MOL   C15743891   4.515   3.282   3.261 -0.3865  0.6613 -0.5062
  198MOL   O15843892   4.489   3.287   3.140  0.5851  0.3060  0.5547
  198MOL   C15943893   4.651   3.334   3.304  0.1041  0.2911  0.0859
  198MOL   C16043894   4.402   3.065   3.322  0.1739  0.3078 -0.3341
  198MOL   H16143895   4.470   3.226   3.456  0.5153  1.2615 -0.4811
  198MOL   H16243896   4.689   3.425   3.259  3.8886 -0.0739  2.3530
  198MOL   H16343897   4.652   3.334   3.413 -2.0420 -0.5372  0.1311
  198MOL   H16443898   4.714   3.253   3.268 -1.6023 -0.3635 -1.5349
  198MOL   H16543899   4.360   3.060   3.222  2.1151  0.3483 -1.1850
  198MOL   H16643900   4.329   3.016   3.386  1.1136 -1.1383 -0.3493
  198MOL   C16743901   4.536   2.978   3.336 -0.2081 -0.7743 -0.1056
  198MOL   C16843902   4.634   2.982   3.217 -0.9682 -0.3112 -0.0703
  198MOL   O16943903   4.752   3.009   3.236  0.3014 -0.0022  0.0896
  198MOL   C17043904   4.583   2.958   3.076  0.2168  0.1667 -0.0869
  198MOL   C17143905   4.517   2.836   3.378  0.0842 -0.2837 -0.0658
  198MOL   H17243906   4.593   3.016   3.420 -1.0525  1.1366 -0.3633
  198MOL   H17343907   4.536   2.860   3.073 -0.7139  0.6230 -0.6491
  198MOL   H17443908   4.516   3.042   3.057 -1.2247 -0.6997  1.1089
  198MOL   H17543909   4.672   2.964   3.012  0.6351 -1.2203  0.3405
  198MOL   H17643910   4.482   2.836   3.481  0.1617 -0.6108 -0.0398
  198MOL   H17743911   4.617   2.794   3.386 -0.5786 -1.2698  4.8588
  198MOL   C17843912   4.413   2.739   3.300  0.5457  0.4483 -0.4413
  198MOL   C17943913   4.263   2.729   3.347  0.5764 -0.0373 -0.2993
  198MOL   O18043914   4.232   2.767   3.460  0.3949 -0.5967  0.2988
  198MOL   C18143915   4.157   2.688   3.247  0.3984 -0.0895 -0.1429
  198MOL   C18243916   4.470   2.596   3.317  0.4771  0.2520 -0.1564
  198MOL   H18343917   4.406   2.770   3.196  0.5691  1.2211 -0.2130
  198MOL   H18443918   4.070   2.650   3.301 -0.1077 -0.6872 -1.3571
  198MOL   H18543919   4.131   2.772   3.183  5.0407  1.0000 -0.7682
  198MOL   H18643920   4.195   2.612   3.179  0.6237  0.0470 -0.1704
  198MOL   H18743921   4.390   2.521   3.315  0.1048  0.5771  1.5466
  198MOL   H18843922   4.495   2.594   3.423 -0.1733  1.3553  0.0268
  198MOL   C18943923   4.597   2.546   3.252 -0.1797  0.7217 -0.6203
  198MOL   C19043924   4.587   2.568   3.101  0.2257  0.3052  0.0582
  198MOL   O19143925   4.496   2.519   3.037 -0.2450  0.4779  0.3813
  198MOL   C19243926   4.685   2.659   3.035 -0.6408  1.1555 -0.4379
  198MOL   C19343927   4.623   2.405   3.309  0.3559  0.3504  0.2921
  198MOL   H19443928   4.681   2.609   3.283 -0.5990  0.8052  0.3591
  198MOL   H19543929   4.741   2.719   3.107  0.6335 -0.3049 -0.1884
  198MOL   H19643930   4.758   2.599   2.981 -0.9306 -0.6196  1.0736
  198MOL   H19743931   4.640   2.734   2.970 -1.1775  1.3488  0.1465
  198MOL   H19843932   4.540   2.336   3.298 -0.3744  0.9540  1.8119
  198MOL   H19943933   4.643   2.398   3.416  1.4357 -0.1555  0.0693
  198MOL   C20043934   4.751   2.345   3.239 -0.9092 -0.1544  0.2910
  198MOL   C20143935   4.735   2.191   3.225 -0.3542 -0.8076 -0.0627
  198MOL   O20243936   4.767   2.113   3.312  0.3614 -0.0917  0.0445
  198MOL   C20343937   4.651   2.140   3.101 -0.6459 -0.4673  0.2633
  198MOL   C20443938   4.877   2.378   3.319 -0.2484  0.0058 -0.2013
  198MOL   H20543939   4.763   2.395   3.143 -1.5522 -1.0304 -0.2503
  198MOL   H20643940   4.691   2.049   3.056 -1.6854 -0.3590 -0.9256
  198MOL   H20743941   4.560   2.113   3.154 -1.1916  1.6147  0.4021
  198MOL   H20843942   4.634   2.218   3.027 -0.2151 -0.4437  0.1892
  198MOL   H20943943   4.898   2.309   3.401  1.9968  2.9258  1.8163
  198MOL   H21043944   4.867   2.477   3.364  1.4553  0.0057  0.2110
  198MOL   C21143945   5.016   2.370   3.250 -0.1586  0.7760  0.5286
  198MOL   C21243946   5.049   2.490   3.157  0.4567 -0.0183 -0.4139
  198MOL   O21343947   4.954   2.560   3.117  0.1339 -0.2896 -0.1568
  198MOL   C21443948   5.194   2.535   3.147 -0.7855 -0.2568  0.6403
  198MOL   C21543949   5.032   2.246   3.160 -0.3273  0.0562 -0.8260
  198MOL   H21643950   5.095   2.370   3.324  0.1073 -1.1107  0.2594
  198MOL   H21743951   5.195   2.627   3.088 -0.2684 -0.0199  1.0131
  198MOL   H21843952   5.231   2.546   3.249 -0.2360  0.3099  0.3873
  198MOL   H21943953   5.236   2.450   3.093 -3.0726  0.2315 -2.0297
  198MOL   H22043954   5.029   2.157   3.222  1.5581  0.9536  0.6022
  198MOL   H22143955   5.135   2.246   3.123  0.0826  0.7104  0.2793
  198MOL   H22243956   4.965   2.235   3.075 -0.9749  0.9102 -0.4378
  199MOL     C143957   2.148   0.600   0.143 -0.0429  0.2563  0.0552
  199MOL     C243958   2.101   0.546   0.283 -0.1247  0.7085  0.4574
  199MOL     O343959   2.058   0.434   0.300  0.4284  0.3585 -0.0812
  199MOL     C443960   2.130   0.642   0.399  0.0259 -0.4329 -0.2592
  199MOL     C543961   2.044   0.573   0.030  0.1260 -0.0416 -0.2825
  199MOL     H643962   2.146   0.709   0.151  0.2288  0.1421  1.9977
  199MOL     H743963   2.103   0.601   0.497  0.8693  0.2196  0.2586
  199MOL     H843964   2.236   0.665   0.412  0.2395 -1.3973 -0.2989
  199MOL     H943965   2.074   0.733   0.376 -2.4111 -1.6498  0.6934
  199MOL    H1043966   2.053   0.656   7.801  2.3694 -0.8715 -1.0063
  199MOL    H1143967   1.949   0.588   0.081 -0.1710  2.6272 -1.5289
  199MOL    H1243968   2.248   0.584   0.103 -0.0252 -3.2646  1.2773
  199MOL    C1343969   2.056   0.446   7.801 -0.7434  0.6061 -0.2735
  199MOL    C1443970   2.176   0.418   7.711 -0.7463 -0.3303  0.5621
  199MOL    O1543971   2.215   0.505   7.632  0.0018 -0.0973  0.6186
  199MOL    C1643972   2.244   0.281   7.719  0.0665 -1.1426 -0.1825
  199MOL    C1743973   1.920   0.415   7.732  0.3817  0.0870 -0.0786
  199MOL    H1843974   2.063   0.375   0.041 -0.3396  0.5159 -0.3834
  199MOL    H1943975   2.215   0.218   7.803  1.1258  0.2119  1.2356
  199MOL    H2043976   2.215   0.221   7.633  1.6734 -0.3182 -1.3091
  199MOL    H2143977   2.353   0.276   7.724  0.1036  0.7558  2.3364
  199MOL    H2243978   1.945   0.347   7.651 -0.4127  1.8981 -1.8664
  199MOL    H2343979   1.869   0.503   7.693  1.5419  0.3676 -0.9820
  199MOL    C2443980   1.809   0.357   7.830  0.5350 -0.1984 -0.5222
  199MOL    C2543981   1.838   0.211   0.040 -0.0067 -0.3551  0.5071
  199MOL    O2643982   1.920   0.136   7.822  0.1244 -0.6037 -0.0230
  199MOL    C2743983   1.778   0.161   0.170  0.6430  0.4047  0.4623
  199MOL    C2843984   1.666   0.374   7.768 -0.1672 -0.3844 -0.2215
  199MOL    H2943985   1.804   0.414   0.081 -1.6992 -2.1021  0.6068
  199MOL    H3043986   1.795   0.217   0.262  0.0733  4.0008 -1.5377
  199MOL    H3143987   1.669   0.156   0.171  0.6619 -1.2128 -1.9059
  199MOL    H3243988   1.817   0.060   0.182  0.3853  0.5284  2.5055
  199MOL    H3343989   1.623   0.469   7.799  0.0500 -0.7094  1.1151
  199MOL    H3443990   1.606   0.303   7.825  1.9929 -1.2103  1.0659
  199MOL    C3543991   1.649   0.333   7.622 -0.8137 -0.0166  0.2211
  199MOL    C3643992   1.529   0.395   7.554  0.3581 -0.5846  0.8092
  199MOL    O3743993   1.418   0.388   7.612  0.0540  0.2564 -0.0520
  199MOL    C3843994   1.553   0.482   7.425  0.6614  0.2225 -0.2129
  199MOL    C3943995   1.658   0.179   7.602 -0.2381 -0.6085 -0.3880
  199MOL    H4043996   1.737   0.371   7.572  0.8582 -0.8042  2.4815
  199MOL    H4143997   1.516   0.584   7.436  5.0665  1.6010  3.1543
  199MOL    H4243998   1.658   0.484   7.395  1.0680 -1.4647  1.0168
  199MOL    H4343999   1.504   0.424   7.347  2.4457 -1.5043 -0.0750
  199MOL    H4444000   1.568   0.146   7.550 -1.2283  1.2956  0.0933
  199MOL    H4544001   1.655   0.137   7.702  1.0398  0.3158  0.0556
  199MOL    C4644002   1.770   0.130   7.508  0.0723 -0.6961 -0.0760
  199MOL    C4744003   1.728   0.150   7.359 -0.2402  0.5156 -0.6366
  199MOL    O4844004   1.631   0.095   7.303  0.4716 -0.1657  0.1836
  199MOL    C4944005   1.814   0.239   7.271  0.0479  0.6832 -0.3963
  199MOL    C5044006   1.794   7.818   7.537 -0.2377 -0.1272 -0.1911
  199MOL    H5144007   1.859   0.192   7.513 -0.0013  0.0839 -5.1014
  199MOL    H5244008   1.856   0.322   7.329 -3.4027  1.2469  1.4253
  199MOL    H5344009   1.905   0.187   7.239 -1.0242 -0.5659 -1.4778
  199MOL    H5444010   1.766   0.270   7.178 -2.9721 -0.6285  0.6796
  199MOL    H5544011   1.727   7.751   7.483 -1.1957 -0.1859  1.0716
  199MOL    H5644012   1.769   7.798   7.641  1.9434  2.2513  0.8501
  199MOL    C5744013   1.937   7.748   7.520 -1.4108 -0.2004  0.4707
  199MOL    C5844014   2.014   7.780   7.396 -0.0102  0.1324  0.5511
  199MOL    O5944015   1.994   7.717   7.292  0.5120  0.3988 -0.5147
  199MOL    C6044016   2.117   0.055   7.402 -0.4620  0.4490  0.6449
  199MOL    C6144017   1.927   7.587   7.522  0.4342  0.5640 -0.1901
  199MOL    H6244018   2.006   7.780   7.597 -0.3034 -0.3436 -0.4539
  199MOL    H6344019   2.209   0.010   7.440 -1.6953 -1.5756  1.3335
  199MOL    H6444020   2.129   0.088   7.299  0.6165  1.0570  0.9538
  199MOL    H6544021   2.079   0.127   7.474 -0.9206  2.7083 -1.7921
  199MOL    H6644022   2.024   7.554   7.485  0.0216 -0.3375 -0.4800
  199MOL    H6744023   1.857   7.560   7.443  0.8210 -3.6866  0.7800
  199MOL    C6844024   1.869   7.521   7.658 -0.0550 -0.3861 -0.3381
  199MOL    C6944025   1.974   7.540   7.776 -0.2198  0.2991  0.3960
  199MOL    O7044026   2.082   7.478   7.771  0.6655  0.5154  0.0434
  199MOL    C7144027   1.945   7.631   0.052 -0.5566  0.4759 -0.1697
  199MOL    C7244028   1.854   7.371   7.649  0.1187 -0.3915  0.4920
  199MOL    H7344029   1.768   7.559   7.668 -0.5476 -1.5320 -0.8653
  199MOL    H7444030   1.987   7.595   0.145 -0.8381 -2.5911 -1.1927
  199MOL    H7544031   1.985   7.729   0.025 -0.9420  1.0819  1.3871
  199MOL    H7644032   1.842   7.666   0.063 -0.5810  0.4560 -0.3207
  199MOL    H7744033   1.842   7.326   7.747 -3.1283 -0.5153  0.1039
  199MOL    H7844034   1.947   7.344   7.599 -0.6889 -0.3185 -1.0966
  199MOL    C7944035   1.758   7.304   7.552  1.3577 -0.1715 -0.1114
  199MOL    C8044036   1.616   7.336   7.601 -0.0805 -0.4229  0.2306
  199MOL    O8144037   1.554   7.277   7.689  0.3087  0.2100  0.3276
  199MOL    C8244038   1.545   7.450   7.536 -0.1608 -0.1879 -0.0324
  199MOL    C8344039   1.793   7.159   7.538 -0.0515 -0.1046  0.5369
  199MOL    H8444040   1.775   7.354   7.456 -0.1648 -0.4631 -0.5524
  199MOL    H8544041   1.607   7.540   7.535  5.1265 -3.5670  1.3933
  199MOL    H8644042   1.510   7.425   7.435 -1.6062  1.0573  0.1643
  199MOL    H8744043   1.455   7.478   7.589  1.3529  1.2258  1.8444
  199MOL    H8844044   1.806   7.106   7.632 -0.3263 -1.0968  0.0242
  199MOL    H8944045   1.887   7.164   7.482 -1.4374  1.8710 -1.7164
  199MOL    C9044046   1.686   7.094   7.450  0.2316  0.4443 -0.7611
  199MOL    C9144047   1.694   6.936   7.440 -0.4766 -0.1508  0.5403
  199MOL    O9244048   1.643   6.870   7.343 -0.0712  0.9888  0.2876
  199MOL    C9344049   1.753   6.860   7.555 -0.0354  0.3334 -0.4655
  199MOL    C9444050   1.644   7.149   7.309 -0.0823  0.5975 -0.2016
  199MOL    H9544051   1.601   7.091   7.518  1.2521  1.0149  0.5727
  199MOL    H9644052   1.861   6.869   7.565  0.0773 -1.1034 -0.1785
  199MOL    H9744053   1.706   6.905   7.642  1.9120 -0.6669  1.1333
  199MOL    H9844054   1.738   6.752   7.560  0.0378  0.4071  1.8200
  199MOL    H9944055   1.628   7.256   7.309  0.2574  0.6474 -1.0371
  199MOL   H10044056   1.550   7.108   7.272 -1.2804  3.0493  0.0219
  199MOL   C10144057   1.748   7.125   7.196  0.8395  0.0718  0.0315
  199MOL   C10244058   1.870   7.207   7.205  0.7639  0.5722 -0.3787
  199MOL   O10344059   1.865   7.330   7.229  0.4387  0.3018 -0.3531
  199MOL   C10444060   2.004   7.138   7.168  0.2390  0.5947 -0.5328
  199MOL   C10544061   1.681   7.139   7.053 -0.2489  0.0497  0.1996
  199MOL   H10644062   1.779   7.021   7.195  1.1891  0.1767 -0.5698
  199MOL   H10744063   2.086   7.209   7.182  1.7837 -1.2084 -0.1839
  199MOL   H10844064   2.025   7.046   7.224 -2.0403 -1.0627 -2.2964
  199MOL   H10944065   2.010   7.117   7.061  2.2808 -1.9683  0.0268
  199MOL   H11044066   1.754   7.156   6.973 -0.3317 -2.4869 -0.4363
  199MOL   H11144067   1.613   7.224   7.050  0.6222  0.7627  0.1229
  199MOL   C11244068   1.611   7.009   7.012 -0.0917 -0.6340 -0.0550
  199MOL   C11344069   1.718   6.902   6.966  0.5043  0.0215 -0.1928
  199MOL   O11444070   1.840   6.918   6.985  0.1029  0.2629 -0.4514
  199MOL   C11544071   1.679   6.778   6.893 -0.0170 -0.3709 -0.6739
  199MOL   C11644072   1.507   7.031   6.900 -0.2835 -0.1297 -0.2959
  199MOL   H11744073   1.559   6.954   7.090  1.6805 -1.7491  0.3709
  199MOL   H11844074   1.698   6.785   6.786  1.2106 -1.1474 -0.5192
  199MOL   H11944075   1.727   6.686   6.926  1.7116  0.5276 -0.6262
  199MOL   H12044076   1.572   6.776   6.915 -0.1060 -0.7883 -1.1467
  199MOL   H12144077   1.460   6.934   6.883  0.3095 -0.3580 -0.6783
  199MOL   H12244078   1.562   7.055   6.809  1.1486 -0.1891  0.5441
  199MOL   C12344079   1.392   7.133   6.920 -0.7537  0.3222 -0.1312
  199MOL   C12444080   1.318   7.108   7.056  0.3014  0.0419  0.3728
  199MOL   O12544081   1.251   7.008   7.078  0.5098 -0.4115 -0.0242
  199MOL   C12644082   1.331   7.221   7.156 -0.3566  0.7798 -0.4409
  199MOL   C12744083   1.298   7.125   6.799 -0.6244 -0.0317  0.6145
  199MOL   H12844084   1.435   7.233   6.928  2.9409 -1.3476  2.3358
  199MOL   H12944085   1.261   7.304   7.139  0.2714  1.4334  0.1440
  199MOL   H13044086   1.325   7.182   7.257  1.6824 -0.6050 -0.8387
  199MOL   H13144087   1.436   7.251   7.156  0.2701 -1.3362  0.3913
  199MOL   H13244088   1.234   7.037   6.803  1.6058 -1.6756  0.3818
  199MOL   H13344089   1.363   7.103   6.715 -2.7260 -0.5551 -0.9241
  199MOL   C13444090   1.217   7.256   6.759 -0.1468 -0.3561  0.4402
  199MOL   C13544091   1.306   7.379   6.731 -0.2955 -0.1009 -0.7764
  199MOL   O13644092   1.428   7.374   6.752 -0.2175  0.5916 -0.0374
  199MOL   C13744093   1.244   7.504   6.664  0.5477  0.4665  0.0967
  199MOL   C13844094   1.097   7.284   6.855  0.2313  0.4488 -0.0435
  199MOL   H13944095   1.163   7.224   6.670 -0.3257 -1.7471  1.0301
  199MOL   H14044096   1.165   7.474   6.595 -0.0477  0.0731  0.9317
  199MOL   H14144097   1.188   7.563   6.736 -1.4680 -1.9390  0.5871
  199MOL   H14244098   1.319   7.570   6.621  0.9895  0.0177  0.1714
  199MOL   H14344099   1.044   7.378   6.835 -0.4827  0.0174 -0.1875
  199MOL   H14444100   1.133   7.286   6.958 -2.1830  2.4646  0.8374
  199MOL   C14544101   0.983   7.177   6.860 -0.5637 -0.0395  0.3260
  199MOL   C14644102   0.907   7.170   6.725 -0.6882 -0.0792  1.2592
  199MOL   O14744103   0.900   7.266   6.652 -0.3551 -0.4365 -0.7535
  199MOL   C14844104   0.846   7.037   6.687 -0.4203 -0.1624 -0.1246
  199MOL   C14944105   0.880   7.197   6.968 -1.4718 -0.5608 -0.6404
  199MOL   H15044106   1.041   7.085   6.874  0.8600  0.5325 -1.4920
  199MOL   H15144107   0.904   6.957   6.733 -2.7757 -1.7089  0.2595
  199MOL   H15244108   0.739   7.030   6.709 -0.6581 -0.7936 -1.3722
  199MOL   H15344109   0.857   7.022   6.579 -0.3595  0.1248 -0.1569
  199MOL   H15444110   0.801   7.263   6.934 -1.2552 -0.9167 -1.8618
  199MOL   H15544111   0.928   7.260   7.044 -0.8565 -1.6489 -0.1185
  199MOL   C15644112   0.824   7.069   7.043  0.8788 -0.5207  0.2723
  199MOL   C15744113   0.674   7.079   7.041 -0.0851  0.0270 -0.7543
  199MOL   O15844114   0.616   7.159   7.111  0.0365  0.2744  0.0317
  199MOL   C15944115   0.586   6.982   6.961 -0.7947  0.6985 -0.6228
  199MOL   C16044116   0.891   7.048   7.178 -0.0707  0.3835  0.2817
  199MOL   H16144117   0.861   6.987   6.981  0.4175 -0.4174 -0.1426
  199MOL   H16244118   0.598   6.877   6.989  1.0498  0.7069 -1.3390
  199MOL   H16344119   0.482   7.015   6.961 -1.0190  0.1316  2.1833
  199MOL   H16444120   0.611   6.986   6.855 -1.1957 -0.7601 -0.7776
  199MOL   H16544121   0.856   7.134   7.235 -1.4346  0.1328 -0.1411
  199MOL   H16644122   0.995   7.068   7.154 -0.4151  0.1894 -1.4498
  199MOL   C16744123   0.888   6.909   7.248 -0.0882 -0.2041 -0.6349
  199MOL   C16844124   0.753   6.903   7.320 -0.3119 -0.1379 -0.3331
  199MOL   O16944125   0.732   6.972   7.425  0.1333 -0.0501  0.1712
  199MOL   C17044126   0.639   6.819   7.265  0.0392 -0.1264 -0.4752
  199MOL   C17144127   1.007   6.885   7.343 -0.6322  0.8199 -0.7142
  199MOL   H17244128   0.892   6.835   7.167 -0.9317  0.8198 -1.6209
  199MOL   H17344129   0.677   6.758   7.183  0.1693 -1.0308  0.2412
  199MOL   H17444130   0.623   6.762   7.357  0.5723  1.6959  0.7556
  199MOL   H17544131   0.541   6.861   7.241  0.3202  1.1523  0.5785
  199MOL   H17644132   0.988   6.911   7.447 -0.0124  1.3931 -0.7418
  199MOL   H17744133   1.081   6.961   7.319 -0.0109 -0.0284 -1.5533
  199MOL   C17844134   1.083   6.745   7.347  0.4186 -0.7711 -0.5530
  199MOL   C17944135   0.972   6.635   7.378 -0.3123 -0.6181  0.7952
  199MOL   O18044136   0.941   6.553   7.293  0.0222  0.1238 -0.2069
  199MOL   C18144137   0.915   6.628   7.520  0.1353  0.0338  0.3344
  199MOL   C18244138   1.196   6.748   7.455 -0.3369  0.2089  0.1577
  199MOL   H18344139   1.117   6.720   7.247 -1.0216 -0.6466 -1.0784
  199MOL   H18444140   0.872   6.720   7.559 -0.0659 -1.4436  3.7567
  199MOL   H18544141   0.843   6.549   7.540  0.2920  0.0362  0.9361
  199MOL   H18644142   0.999   6.611   7.588  0.4775 -1.1452 -0.3768
  199MOL   H18744143   1.163   6.771   7.556 -1.1779  2.1425 -0.5282
  199MOL   H18844144   1.263   6.832   7.435 -1.0483  0.0911 -3.1049
  199MOL   C18944145   1.300   6.631   7.451 -0.9904 -0.1703  0.0175
  199MOL   C19044146   1.400   6.633   7.572  0.1117  0.0634  0.6708
  199MOL   O19144147   1.502   6.702   7.577 -0.8208  0.3346 -0.0535
  199MOL   C19244148   1.381   6.523   7.677 -0.5991 -0.3850 -0.9416
  199MOL   C19344149   1.368   6.613   7.314 -0.1303 -0.6296  0.4675
  199MOL   H19444150   1.245   6.538   7.469 -1.5844  0.0355 -0.6769
  199MOL   H19544151   1.479   6.495   7.714  0.1137  1.1091 -1.6822
  199MOL   H19644152   1.315   6.569   7.750 -1.5888 -1.8617 -0.8740
  199MOL   H19744153   1.339   6.435   7.627  0.8189 -1.5662 -0.1055
  199MOL   H19844154   1.381   6.714   7.275  0.9890 -0.0457  2.2791
  199MOL   H19944155   1.296   6.563   7.249 -1.2550  1.1520  0.2922
  199MOL   C20044156   1.501   6.530   7.314 -0.0011  0.0889  0.2762
  199MOL   C20144157   1.573   6.563   7.181  0.4773  0.1975  0.7140
  199MOL   O20244158   1.516   6.578   7.074  0.5079  0.3146 -0.2293
  199MOL   C20344159   1.723   6.569   7.187  0.5196  0.8957 -0.6902
  199MOL   C20444160   1.476   6.376   7.324 -0.0139 -0.4529  0.2535
  199MOL   H20544161   1.570   6.575   7.385  1.4186  1.8966 -2.1935
  199MOL   H20644162   1.766   6.663   7.153  1.2439 -0.1762 -2.8704
  199MOL   H20744163   1.747   6.544   7.290  0.4328  0.6954 -0.7181
  199MOL   H20844164   1.760   6.484   7.129  2.9120  0.3949  1.4747
  199MOL   H20944165   1.428   6.332   7.236 -0.1429  1.6482 -0.7602
  199MOL   H21044166   1.401   6.373   7.403  0.6838 -0.5393  0.9232
  199MOL   C21144167   1.600   6.288   7.354  0.1226 -0.0199 -0.3779
  199MOL   C21244168   1.556   6.140   7.377 -0.0028  0.2478  0.1623
  199MOL   O21344169   1.488   6.094   7.469 -0.1365 -0.3049 -0.0436
  199MOL   C21444170   1.601   6.045   7.264  0.2836  0.3375  0.3814
  199MOL   C21544171   1.683   6.337   7.475  0.9694 -0.2803 -0.1098
  199MOL   H21644172   1.678   6.292   7.277  1.0319 -1.6834  0.4353
  199MOL   H21744173   1.706   6.017   7.275  0.3663  0.4053 -0.2328
  199MOL   H21844174   1.543   5.953   7.262 -2.2254  1.8823 -1.3986
  199MOL   H21944175   1.581   6.077   7.162 -0.2854 -1.2870 -0.0294
  199MOL   H22044176   1.734   6.433   7.469  2.2176 -1.0274 -2.0552
  199MOL   H22144177   1.769   6.270   7.467  1.8319  0.7568  0.2331
  199MOL   H22244178   1.637   6.323   7.573  0.5795 -4.4250 -0.8058
  200MOL     C144179   0.485   3.607   3.874  0.1939  0.0434  0.8975
  200MOL     C244180   0.425   3.689   3.994  0.4832 -0.1210 -0.0193
  200MOL     O344181   0.394   3.807   4.005  0.1725  0.3428 -0.0781
  200MOL     C444182   0.361   3.592   4.092 -0.0842  0.9276 -0.1328
  200MOL     C544183   0.530   3.695   3.756  0.3201  0.0636  0.3277
  200MOL     H644184   0.579   3.561   3.907  1.1453  1.5511  0.3344
  200MOL     H744185   0.308   3.641   4.173  0.3874  2.0759 -0.5051
  200MOL     H844186   0.290   3.529   4.038 -0.1499  1.6958 -0.9670
  200MOL     H944187   0.440   3.525   4.126 -1.0245 -1.3872 -2.3797
  200MOL    H1044188   0.637   3.681   3.745  0.4675  0.0982  1.6060
  200MOL    H1144189   0.524   3.799   3.786 -2.5537  0.1834 -0.4829
  200MOL    H1244190   0.427   3.524   3.833  2.0284 -2.6829  3.5421
  200MOL    C1344191   0.456   3.664   3.622  0.3627 -0.4155 -1.2660
  200MOL    C1444192   0.557   3.660   3.506 -0.3965 -0.2644 -0.3088
  200MOL    O1544193   0.576   3.753   3.432  0.5975 -0.1086  0.1140
  200MOL    C1644194   0.631   3.532   3.487 -0.0465 -0.0998 -0.2308
  200MOL    C1744195   0.334   3.754   3.593  0.1261  0.3939  0.1568
  200MOL    H1844196   0.418   3.562   3.621 -0.1095 -0.2448 -0.9215
  200MOL    H1944197   0.652   3.527   3.380  0.2564 -2.8057 -0.0673
  200MOL    H2044198   0.720   3.518   3.549 -0.3930  2.4573  0.9138
  200MOL    H2144199   0.567   3.445   3.498 -1.4545  0.6752 -2.1247
  200MOL    H2244200   0.316   3.716   3.492 -0.6097  0.6309  0.1972
  200MOL    H2344201   0.363   3.859   3.589 -0.8984  0.6833  0.2991
  200MOL    C2444202   0.211   3.730   3.685  0.2893  0.0037  0.2206
  200MOL    C2544203   0.160   3.590   3.677 -0.2595  0.2750  0.0633
  200MOL    O2644204   0.188   3.524   3.578 -0.3640 -0.7202  0.0828
  200MOL    C2744205   0.071   3.535   3.789 -0.1262 -0.2494 -1.4329
  200MOL    C2844206   0.108   3.830   3.649 -0.3987  0.4582  0.2832
  200MOL    H2944207   0.231   3.743   3.792 -0.0987  0.4072  0.2432
  200MOL    H3044208   0.015   3.450   3.750  0.0194 -1.2357  0.3944
  200MOL    H3144209   0.135   3.487   3.864 -2.0525 -1.0251 -0.2588
  200MOL    H3244210   7.842   3.600   3.839  1.4431  0.8264 -0.5505
  200MOL    H3344211   0.011   3.801   3.690  0.3654 -0.0292  1.7591
  200MOL    H3444212   0.108   3.823   3.540 -2.9222 -0.6819  0.3243
  200MOL    C3544213   0.138   3.981   3.685  0.1652  0.4457 -0.5490
  200MOL    C3644214   0.136   4.004   3.836 -0.3283 -0.0034 -0.0646
  200MOL    O3744215   0.051   3.941   3.907 -0.8816 -0.4142 -0.4731
  200MOL    C3844216   0.243   4.092   3.885  0.4407  0.0030  0.0106
  200MOL    C3944217   0.024   4.065   3.615  0.1891 -0.3707  0.0781
  200MOL    H4044218   0.234   4.016   3.648 -1.1981  3.8138 -1.1247
  200MOL    H4144219   0.269   4.168   3.811  0.3123 -0.2594 -0.3091
  200MOL    H4244220   0.223   4.136   3.982 -0.8790 -0.8129  0.1301
  200MOL    H4344221   0.331   4.027   3.884 -0.0222 -0.6606 -2.1217
  200MOL    H4444222   0.036   4.163   3.660  2.7054  0.2508 -1.8097
  200MOL    H4544223   7.769   4.025   3.645  0.5446 -0.8594  0.5881
  200MOL    C4644224   0.041   4.086   3.459  0.3732  0.2972 -0.1046
  200MOL    C4744225   0.092   4.225   3.416 -0.6320  0.2123  1.1432
  200MOL    O4844226   0.072   4.323   3.485 -0.0266 -0.4285  0.4904
  200MOL    C4944227   0.157   4.239   3.280 -0.1818  0.8298 -1.0512
  200MOL    C5044228   7.758   4.028   3.387  0.3792 -0.1570 -0.1111
  200MOL    H5144229   0.128   4.025   3.436 -0.4785 -0.7581 -0.5575
  200MOL    H5244230   0.097   4.182   3.209 -0.2167  0.6888 -0.9095
  200MOL    H5344231   0.156   4.345   3.258 -2.7810  1.1190  0.1920
  200MOL    H5444232   0.254   4.189   3.283 -1.1372 -1.0997 -1.5725
  200MOL    H5544233   7.727   3.944   3.449  1.9416  0.2151  1.2155
  200MOL    H5644234   7.792   3.988   3.291 -0.3063  0.4913 -0.6339
  200MOL    C5744235   7.641   4.123   3.352 -0.3013  1.0528  0.1649
  200MOL    C5844236   7.561   4.151   3.479 -0.4157  0.6956  0.3781
  200MOL    O5944237   7.483   4.063   3.517 -0.2962 -0.1934 -0.0470
  200MOL    C6044238   7.574   4.281   3.557 -0.5484 -0.0901 -0.1141
  200MOL    C6144239   7.545   4.076   3.234 -0.7144 -0.0100 -0.2267
  200MOL    H6244240   7.689   4.217   3.323  1.3366  0.0692 -0.3849
  200MOL    H6344241   7.475   4.310   3.592  0.2961  1.4634  1.0552
  200MOL    H6444242   7.648   4.292   3.637  0.1705  1.0960 -0.9348
  200MOL    H6544243   7.594   4.362   3.487  0.6116 -0.4894 -0.2547
  200MOL    H6644244   7.474   4.158   3.221 -0.4064  0.1374 -1.0350
  200MOL    H6744245   7.492   3.987   3.268 -0.2388  0.1570  0.9540
  200MOL    C6844246   7.610   4.039   3.099  0.0318 -0.3876  0.0651
  200MOL    C6944247   7.716   4.134   3.049  0.3096 -0.8138 -0.0358
  200MOL    O7044248   7.706   4.257   3.054  0.3716  0.0141  0.2491
  200MOL    C7144249   7.836   4.071   2.972 -0.8811  0.6378  0.2824
  200MOL    C7244250   7.500   4.014   2.994 -0.0765 -0.1257 -0.3011
  200MOL    H7344251   7.664   3.949   3.128 -0.3016 -0.3535  0.8236
  200MOL    H7444252   7.830   3.963   2.980  0.6650  0.3641 -1.8663
  200MOL    H7544253   7.824   4.096   2.867 -1.2039  1.1208  0.4321
  200MOL    H7644254   0.090   4.105   3.010 -0.4505 -0.1553 -0.0978
  200MOL    H7744255   7.452   4.104   2.956 -0.1459  0.0746  0.2569
  200MOL    H7844256   7.413   3.970   3.042 -0.0694 -0.4797 -0.6061
  200MOL    C7944257   7.546   3.922   2.876  0.5024 -0.0516  0.1780
  200MOL    C8044258   7.422   3.922   2.782 -0.0325  0.3504  0.5193
  200MOL    O8144259   7.336   3.836   2.778 -0.0787 -0.2248 -0.9775
  200MOL    C8244260   7.423   4.040   2.681  0.1522 -0.7810 -0.6491
  200MOL    C8344261   7.595   3.783   2.917  0.3420  0.0766 -0.2865
  200MOL    H8444262   7.630   3.976   2.832  0.7957  0.4178  1.2956
  200MOL    H8544263   7.400   4.134   2.731 -0.2859 -1.5595  0.6406
  200MOL    H8644264   7.522   4.051   2.637 -0.7957 -1.2120 -3.0067
  200MOL    H8744265   7.342   4.016   2.611  0.2800  0.3224 -1.1919
  200MOL    H8844266   7.519   3.732   2.976  0.9480 -1.5665 -0.9098
  200MOL    H8944267   7.676   3.800   2.988  0.9436  0.5361 -1.0671
  200MOL    C9044268   7.651   3.699   2.799  0.1576  0.8719  0.3031
  200MOL    C9144269   7.553   3.587   2.762  0.2554 -0.4052  0.1076
  200MOL    O9244270   7.515   3.513   2.847 -0.1150  0.3607  0.6968
  200MOL    C9344271   7.512   3.589   2.619  0.9467 -0.1461 -0.0711
  200MOL    C9444272   7.786   3.640   2.832  0.8530  0.7428 -0.0179
  200MOL    H9544273   7.659   3.761   2.710  1.5921 -0.6006 -0.6211
  200MOL    H9644274   7.591   3.531   2.570  1.8315  0.2362  0.8746
  200MOL    H9744275   7.418   3.536   2.604  0.3358  0.4316  1.5750
  200MOL    H9844276   7.500   3.693   2.592 -1.0367  0.0184  1.3480
  200MOL    H9944277   7.767   3.582   2.922 -0.4978  1.6206  0.2742
  200MOL   H10044278   0.022   3.714   2.855  0.2850  1.0484  0.9589
  200MOL   C10144279   0.016   3.563   2.724 -0.0635 -0.0297 -0.0697
  200MOL   C10244280   0.132   3.476   2.780  0.6427 -0.2275  0.6187
  200MOL   O10344281   0.206   3.530   2.871 -0.2145  0.2611  0.4863
  200MOL   C10444282   0.154   3.329   2.734  0.1305  0.7884 -0.1505
  200MOL   C10544283   0.051   3.655   2.603  0.4315  0.2961 -0.4677
  200MOL   H10644284   7.784   3.494   2.685  0.4294  0.0326 -1.1197
  200MOL   H10744285   0.144   3.320   2.626 -1.7694 -0.1843  0.0723
  200MOL   H10844286   0.253   3.292   2.761  0.2378  1.6485  0.6794
  200MOL   H10944287   0.080   3.269   2.788 -0.3373 -0.2123 -1.8722
  200MOL   H11044288   7.813   3.715   2.559  1.6994 -0.2925 -3.7433
  200MOL   H11144289   0.074   3.587   2.521  0.2601 -1.1899  0.6888
  200MOL   C11244290   0.180   3.732   2.599  0.2018  0.3721 -0.0936
  200MOL   C11344291   0.169   3.853   2.694 -0.0312  0.4987  0.4413
  200MOL   O11444292   0.089   3.947   2.675 -0.2516  0.5404  0.3919
  200MOL   C11544293   0.257   3.867   2.818  0.3463  0.4421  0.1371
  200MOL   C11644294   0.219   3.773   2.454 -0.0806 -0.3077  0.0209
  200MOL   H11744295   0.256   3.662   2.635 -0.1302 -0.5053 -1.0790
  200MOL   H11844296   0.284   3.972   2.831 -0.1137  0.6383 -0.4435
  200MOL   H11944297   0.201   3.838   2.907  0.3126 -0.7372 -0.2639
  200MOL   H12044298   0.348   3.808   2.807 -0.4096 -0.6113 -0.5898
  200MOL   H12144299   0.140   3.835   2.410 -0.8284 -0.9490  0.4484
  200MOL   H12244300   0.226   3.689   2.385 -0.1842 -1.2437  1.1359
  200MOL   C12344301   0.354   3.861   2.435  0.2097  0.2357  0.2879
  200MOL   C12444302   0.490   3.798   2.471  0.5824  0.6915  0.5850
  200MOL   O12544303   0.519   3.685   2.425  0.3562 -0.4147 -0.5732
  200MOL   C12644304   0.598   3.877   2.549  0.4646 -0.6583 -0.0468
  200MOL   C12744305   0.327   4.014   2.465 -0.8007  0.5103  0.0190
  200MOL   H12844306   0.364   3.852   2.327 -2.0075  0.4456  0.0302
  200MOL   H12944307   0.684   3.811   2.560 -0.1694 -2.1290 -3.4771
  200MOL   H13044308   0.636   3.950   2.478  0.3644  1.5624  2.1447
  200MOL   H13144309   0.570   3.922   2.644 -0.4188 -0.6100 -0.3292
  200MOL   H13244310   0.360   4.028   2.568  0.1449 -1.4365 -0.0034
  200MOL   H13344311   0.223   4.046   2.477 -1.1903 -0.6071 -0.3319
  200MOL   C13444312   0.393   4.109   2.352 -0.0395  1.0234  0.6731
  200MOL   C13544313   0.438   4.252   2.417  0.2673  0.7211 -0.4099
  200MOL   O13644314   0.365   4.350   2.410 -0.8215 -0.3430  0.2494
  200MOL   C13744315   0.567   4.249   2.492 -0.1927 -0.5718  0.3300
  200MOL   C13844316   0.301   4.117   2.228  0.4371 -0.5069 -0.7887
  200MOL   H13944317   0.488   4.061   2.329  0.9520  3.2686 -0.0481
  200MOL   H14044318   0.631   4.184   2.432 -1.9612 -1.6895 -0.3922
  200MOL   H14144319   0.603   4.351   2.507  2.0373 -1.4949  1.5317
  200MOL   H14244320   0.557   4.195   2.586  0.1127 -0.9466  0.1474
  200MOL   H14344321   0.202   4.156   2.252 -0.0952 -0.7388 -2.5282
  200MOL   H14444322   0.291   4.016   2.190  0.9428 -0.8287 -0.0598
  200MOL   C14544323   0.366   4.200   2.116  0.0389  0.0862  0.2518
  200MOL   C14644324   0.263   4.217   2.001 -0.5284 -0.0166 -0.2060
  200MOL   O14744325   0.281   4.175   1.893 -0.0656  0.4917  0.4043
  200MOL   C14844326   0.133   4.302   2.029 -0.2507 -0.3764 -0.0943
  200MOL   C14944327   0.495   4.133   2.068 -0.2364  1.1458  0.3020
  200MOL   H15044328   0.382   4.302   2.151  1.4633  0.2295 -0.7898
  200MOL   H15144329   0.137   4.369   2.116  1.9196  2.8980 -2.5581
  200MOL   H15244330   0.131   4.364   1.940  1.1170 -0.2980 -0.0922
  200MOL   H15344331   0.043   4.242   2.034 -0.4711  0.0614  1.8350
  200MOL   H15444332   0.455   4.053   2.005  0.2938  0.7900  0.4150
  200MOL   H15544333   0.558   4.079   2.138  0.1406 -0.7769 -1.4682
  200MOL   C15644334   0.594   4.229   1.996  0.2553 -0.7939  0.0359
  200MOL   C15744335   0.615   4.187   1.853  0.2141 -0.1749 -0.6983
  200MOL   O15844336   0.671   4.078   1.826  0.2355  0.0596  0.4602
  200MOL   C15944337   0.556   4.273   1.742 -0.0976  0.6006 -0.1878
  200MOL   C16044338   0.731   4.251   2.069  0.1264  0.0096 -0.4117
  200MOL   H16144339   0.545   4.327   2.004 -0.9510 -1.2315 -1.6715
  200MOL   H16244340   0.584   4.377   1.757  0.6576  0.6095 -1.5421
  200MOL   H16344341   0.599   4.248   1.645 -0.0752 -0.5555  0.1146
  200MOL   H16444342   0.449   4.253   1.732 -0.1710  1.2829 -0.8062
  200MOL   H16544343   0.800   4.184   2.017  0.6619 -1.6825  2.3929
  200MOL   H16644344   0.736   4.199   2.165 -2.9917 -2.1936 -1.3580
  200MOL   C16744345   0.792   4.391   2.074  0.3807  0.0013 -0.8924
  200MOL   C16844346   0.944   4.391   2.053 -1.0330 -0.4824 -0.2781
  200MOL   O16944347   1.018   4.333   2.129 -0.4927  0.3330  0.8237
  200MOL   C17044348   1.010   4.462   1.931 -0.5507  0.5098  0.4680
  200MOL   C17144349   0.746   4.475   2.196  0.5507  0.3126  1.0619
  200MOL   H17244350   0.764   4.437   1.979  3.9121  1.0921 -1.5007
  200MOL   H17344351   0.944   4.470   1.845  0.2993 -1.9632 -0.4558
  200MOL   H17444352   1.055   4.555   1.965  0.6624  0.7011 -1.5871
  200MOL   H17544353   1.089   4.395   1.896 -1.4424 -0.4582  0.2702
  200MOL   H17644354   0.822   4.496   2.271  3.0195  1.6646 -1.7115
  200MOL   H17744355   0.678   4.405   2.244  0.6913 -1.3598 -1.0754
  200MOL   C17844356   0.668   4.603   2.156 -0.5174  0.1554  0.9409
  200MOL   C17944357   0.756   4.704   2.082 -0.2967  0.3369  0.2771
  200MOL   O18044358   0.738   4.734   1.960 -0.1230 -0.3173  0.1843
  200MOL   C18144359   0.876   4.753   2.159 -0.1745  0.0187  0.3319
  200MOL   C18244360   0.602   4.663   2.285  0.1363  0.1605  0.3249
  200MOL   H18344361   0.579   4.568   2.103 -0.4271  2.3519 -0.7040
  200MOL   H18444362   0.945   4.800   2.088  0.6775 -0.7735  0.6272
  200MOL   H18544363   0.834   4.823   2.232 -2.9211  0.4221 -1.5622
  200MOL   H18644364   0.929   4.677   2.217  2.1243  1.2238 -0.1122
  200MOL   H18744365   0.677   4.732   2.323  1.3113 -0.7544 -0.2974
  200MOL   H18844366   0.595   4.591   2.366 -0.9160  0.2363  0.3024
  200MOL   C18944367   0.468   4.743   2.262  0.1866  0.0060 -0.2211
  200MOL   C19044368   0.495   4.883   2.195  0.0139 -0.3024  0.3878
  200MOL   O19144369   0.596   4.952   2.212 -0.8063 -0.2187 -0.0221
  200MOL   C19244370   0.387   4.948   2.100  0.7451 -0.2023  0.6976
  200MOL   C19344371   0.398   4.766   2.401  0.0909  0.4582 -0.3660
  200MOL   H19444372   0.404   4.685   2.196  0.7928 -0.0301 -0.7817
  200MOL   H19544373   0.413   5.054   2.093  0.3720 -0.1322  0.3691
  200MOL   H19644374   0.397   4.894   2.006  0.0466 -1.1168  1.1443
  200MOL   H19744375   0.289   4.950   2.148  0.9361  1.2184  1.0646
  200MOL   H19844376   0.370   4.670   2.444  0.8872 -0.0247 -0.9204
  200MOL   H19944377   0.307   4.825   2.390 -1.1710 -1.6004 -1.4293
  200MOL   C20044378   0.478   4.846   2.500 -0.2086  0.2683 -0.4521
  200MOL   C20144379   0.479   4.771   2.634 -0.3655 -0.2272 -0.0709
  200MOL   O20244380   0.398   4.798   2.728 -0.3346 -0.3383 -0.2642
  200MOL   C20344381   0.596   4.674   2.657  0.3196 -0.1168  0.0267
  200MOL   C20444382   0.441   4.992   2.529 -0.6825 -0.3272  0.3331
  200MOL   H20544383   0.582   4.836   2.468 -0.2168  0.5056 -0.5584
  200MOL   H20644384   0.626   4.709   2.756  0.4139 -0.2652  0.0502
  200MOL   H20744385   0.567   4.569   2.657 -1.7271  0.4242  0.3745
  200MOL   H20844386   0.682   4.690   2.592  1.3113 -0.6807  1.1733
  200MOL   H20944387   0.344   5.004   2.577 -1.2497 -1.9442 -0.3865
  200MOL   H21044388   0.435   5.041   2.432  1.3600 -0.8706 -0.1050
  200MOL   C21144389   0.524   5.078   2.627  0.4639 -0.1711  0.4948
  200MOL   C21244390   0.474   5.228   2.636 -0.3684  0.1571 -0.3003
  200MOL   O21344391   0.402   5.285   2.549 -0.8204  0.1362  0.0193
  200MOL   C21444392   0.517   5.286   2.772  0.7587 -0.4163 -0.1073
  200MOL   C21544393   0.675   5.082   2.597  0.2156  0.6137  0.3716
  200MOL   H21644394   0.514   5.028   2.723 -0.6795  1.1646  1.0685
  200MOL   H21744395   0.461   5.234   2.849 -0.5963 -1.2179 -1.5949
  200MOL   H21844396   0.624   5.273   2.788  0.7580 -0.6817 -0.3147
  200MOL   H21944397   0.493   5.393   2.772 -0.7578 -0.7431  0.9751
  200MOL   H22044398   0.733   5.150   2.660  0.8407  1.0682 -0.6889
  200MOL   H22144399   0.683   5.125   2.498  0.1560 -1.0381 -0.3730
  200MOL   H22244400   0.717   4.983   2.580 -0.5488  0.0454  1.6608
  201MOL     C144401   4.267   2.069   3.326  0.3570 -0.2771  0.0387
  201MOL     C244402   4.136   2.053   3.247  0.5747  0.0302 -0.2640
  201MOL     O344403   4.027   2.078   3.304  0.2707  0.0323  0.3672
  201MOL     C444404   4.140   2.022   3.096  0.0766 -0.9583 -0.2383
  201MOL     C544405   4.250   2.080   3.473 -0.2818  0.1162 -0.0953
  201MOL     H644406   4.326   1.979   3.307 -0.6527 -0.5117 -2.0083
  201MOL     H744407   4.236   2.053   3.055  1.3944  0.1095  3.4602
  201MOL     H844408   4.117   1.916   3.089 -2.7619 -0.2715 -1.8004
  201MOL     H944409   4.069   2.082   3.039  0.8243 -1.0032 -1.2395
  201MOL    H1044410   4.209   1.984   3.503 -1.7082  0.2025 -1.7233
  201MOL    H1144411   4.178   2.158   3.497 -1.5017 -0.1731 -2.7016
  201MOL    H1244412   4.310   2.161   3.286 -0.0074  0.1539  0.6291
  201MOL    C1344413   4.368   2.100   3.559 -0.6367 -0.3440  0.2927
  201MOL    C1444414   4.414   2.248   3.562  0.3069  0.0148 -1.0619
  201MOL    O1544415   4.374   2.334   3.486 -0.5832  0.3275  0.0000
  201MOL    C1644416   4.517   2.282   3.664 -0.3074  0.2345 -0.0503
  201MOL    C1744417   4.481   1.993   3.552  0.0541  0.2259 -0.2056
  201MOL    H1844418   4.323   2.084   3.657  0.1921  1.7000  1.0406
  201MOL    H1944419   4.531   2.390   3.670 -0.0558  0.2060 -0.1354
  201MOL    H2044420   4.487   2.248   3.763 -0.7521  1.9226  0.4073
  201MOL    H2144421   4.612   2.231   3.654 -0.9531 -0.9239 -0.3455
  201MOL    H2244422   4.555   2.006   3.632  0.4980 -0.6285 -0.4762
  201MOL    H2344423   4.539   2.007   3.461  1.8106  0.8137  0.9776
  201MOL    C2444424   4.443   1.842   3.579  0.0196  0.3960  0.5031
  201MOL    C2544425   4.368   1.820   3.711 -0.5203  0.2809 -0.1087
  201MOL    O2644426   4.404   1.889   3.810 -0.0814 -0.2798 -0.1064
  201MOL    C2744427   4.245   1.724   3.727 -0.3393 -0.5684 -0.3530
  201MOL    C2844428   4.563   1.749   3.586 -0.0745  0.5604 -0.7382
  201MOL    H2944429   4.373   1.815   3.500  0.7454  2.6572 -0.9601
  201MOL    H3044430   4.217   1.676   3.634  2.9319  0.0212 -1.7270
  201MOL    H3144431   4.271   1.648   3.800 -1.1020  1.0496  1.6498
  201MOL    H3244432   4.158   1.778   3.764 -0.3525 -1.1667  0.4930
  201MOL    H3344433   4.518   1.651   3.604  1.3781  0.0582  0.2210
  201MOL    H3444434   4.611   1.763   3.683 -1.5828  1.4262 -0.0961
  201MOL    C3544435   4.670   1.740   3.477 -0.6275 -0.0025  0.0496
  201MOL    C3644436   4.601   1.713   3.345  0.2624 -0.2564 -0.7267
  201MOL    O3744437   4.569   1.604   3.305 -0.0254  0.0345 -0.0703
  201MOL    C3844438   4.587   1.826   3.255  0.5335  0.1049  0.3324
  201MOL    C3944439   4.787   1.642   3.514 -0.3449 -0.3313  0.6215
  201MOL    H4044440   4.711   1.840   3.476 -0.5175 -0.0417  0.4219
  201MOL    H4144441   4.481   1.850   3.261  0.6000  0.0996  1.6156
  201MOL    H4244442   4.633   1.921   3.280  0.1564  0.7907 -1.5560
  201MOL    H4344443   4.597   1.803   3.149  1.8245 -3.1376  1.0794
  201MOL    H4444444   4.786   1.543   3.467 -1.7669 -0.9079  1.8326
  201MOL    H4544445   4.780   1.622   3.621  0.0761  2.6466  1.2410
  201MOL    C4644446   4.922   1.719   3.489  0.3484 -0.3420 -0.4445
  201MOL    C4744447   4.951   1.727   3.344 -0.7083  0.0231 -0.4359
  201MOL    O4844448   4.919   1.638   3.268  0.0855  0.7655 -0.1215
  201MOL    C4944449   5.011   1.851   3.285  0.1695  1.2862 -0.2593
  201MOL    C5044450   5.037   1.651   3.567 -0.6031  0.2374  0.0508
  201MOL    H5144451   4.906   1.820   3.528  0.0784 -1.1215  1.5618
  201MOL    H5244452   4.943   1.928   3.321 -0.8488  1.3475 -2.2484
  201MOL    H5344453   5.117   1.859   3.307  0.5912 -0.9565 -1.2719
  201MOL    H5444454   4.997   1.856   3.177  1.8631  0.6773 -0.5210
  201MOL    H5544455   5.102   1.598   3.498 -0.0945 -0.1759  0.8483
  201MOL    H5644456   4.990   1.574   3.627 -2.0142  2.1028  1.4133
  201MOL    C5744457   5.121   1.750   3.643  0.9952  0.2037 -0.0526
  201MOL    C5844458   5.261   1.697   3.664 -1.0851  0.4374  0.1376
  201MOL    O5944459   5.363   1.749   3.614  0.2835 -1.0388 -0.4474
  201MOL    C6044460   5.289   1.576   3.747  0.7748 -0.7780  0.0124
  201MOL    C6144461   5.052   1.796   3.771 -0.0997  0.0554  0.1342
  201MOL    H6244462   5.134   1.832   3.573 -3.2350  1.2123  0.2438
  201MOL    H6344463   5.199   1.548   3.803 -0.0495  3.5349  1.0322
  201MOL    H6444464   5.327   1.497   3.682 -0.2996 -1.7183  0.5054
  201MOL    H6544465   5.365   1.589   3.825 -0.4209  0.6536  0.9508
  201MOL    H6644466   5.099   1.739   3.851 -0.6922 -1.4727 -0.5926
  201MOL    H6744467   4.954   1.751   3.783  0.5453 -0.8343  2.3695
  201MOL    C6844468   5.051   1.952   3.794 -0.6701 -0.8181 -0.2007
  201MOL    C6944469   4.969   2.021   3.686  0.2733 -0.3530 -0.1918
  201MOL    O7044470   4.844   2.005   3.678 -0.1297 -0.2803 -0.4065
  201MOL    C7144471   5.036   2.118   3.588  0.5003  0.3978 -0.1629
  201MOL    C7244472   5.194   2.022   3.813  0.1968  0.1474 -0.3751
  201MOL    H7344473   5.011   1.967   3.894  0.0383 -1.5793  0.2065
  201MOL    H7444474   5.143   2.098   3.589  0.2733 -0.8752  2.2839
  201MOL    H7544475   5.003   2.107   3.485 -2.3718  2.2480  0.5062
  201MOL    H7644476   5.017   2.218   3.626  0.4442  0.9914 -1.7259
  201MOL    H7744477   5.172   2.129   3.809  2.0532  0.7043  2.5976
  201MOL    H7844478   5.259   1.986   3.733  3.2008  1.7988  1.2481
  201MOL    C7944479   5.258   1.993   3.953 -0.2085 -0.3289  0.2274
  201MOL    C8044480   5.174   2.056   4.060  0.0855  0.1048  0.1256
  201MOL    O8144481   5.113   2.163   4.045  0.2894 -0.4721  0.4007
  201MOL    C8244482   5.176   1.974   4.190  0.0790 -0.4529  0.2104
  201MOL    C8344483   5.408   2.026   3.959 -0.1687  0.1424 -0.3356
  201MOL    H8444484   5.255   1.887   3.978  1.6127  0.1745  2.8015
  201MOL    H8544485   5.187   2.038   4.278 -1.0221 -1.0133  0.7668
  201MOL    H8644486   5.088   1.909   4.190  0.5335 -1.0858  1.1090
  201MOL    H8744487   5.264   1.911   4.180 -0.4914 -1.8089  3.0991
  201MOL    H8844488   5.442   2.031   4.063  0.0791 -0.6615 -0.3789
  201MOL    H8944489   5.398   2.131   3.930 -3.3357  0.0721  0.3090
  201MOL    C9044490   5.510   1.948   3.876 -0.5654 -0.2204 -0.3917
  201MOL    C9144491   5.549   1.810   3.942  0.1193 -0.0478 -1.1174
  201MOL    O9244492   5.500   1.767   4.050  0.1302  0.4246 -0.1794
  201MOL    C9344493   5.640   1.723   3.858  0.5034 -0.5917 -0.2806
  201MOL    C9444494   5.630   2.030   3.822  0.2177 -0.5495  0.3253
  201MOL    H9544495   5.460   1.916   3.784 -1.0735 -2.1032  0.5257
  201MOL    H9644496   5.657   1.783   3.769  1.0920  1.0085  0.8925
  201MOL    H9744497   5.733   1.682   3.897  2.0531  1.3742 -1.7994
  201MOL    H9844498   5.589   1.635   3.819 -0.7104  0.3792 -0.9176
  201MOL    H9944499   5.594   2.132   3.808 -2.0463 -1.7652 -3.5224
  201MOL   H10044500   5.656   1.988   3.725  3.1837  0.2028  0.7516
  201MOL   C10144501   5.762   2.045   3.900 -0.1251 -0.3087  0.8574
  201MOL   C10244502   5.739   2.116   4.035 -0.8010 -0.3005  0.0126
  201MOL   O10344503   5.662   2.207   4.042 -0.0800 -0.1784  0.2096
  201MOL   C10444504   5.810   2.072   4.158  0.1117  0.3530  0.5917
  201MOL   C10544505   5.870   2.102   3.798 -0.6231 -0.2335 -0.1228
  201MOL   H10644506   5.793   1.948   3.939  0.6808 -1.2620 -2.0238
  201MOL   H10744507   5.773   2.133   4.240 -2.0049  0.7545 -0.6320
  201MOL   H10844508   5.783   1.971   4.188  1.9874  0.1291  1.6324
  201MOL   H10944509   5.917   2.086   4.138  0.1818 -1.0577 -0.0564
  201MOL   H11044510   5.827   2.197   3.767 -1.8971 -0.8727 -0.3368
  201MOL   H11144511   5.878   2.041   3.709 -0.7005 -1.5902  0.7914
  201MOL   C11244512   6.012   2.122   3.852  0.3462  0.4795 -0.3918
  201MOL   C11344513   6.099   2.211   3.761 -0.0277  0.3887  0.2474
  201MOL   O11444514   6.148   2.166   3.654  0.0241  0.5585  0.0245
  201MOL   C11544515   6.140   2.350   3.802 -0.0970 -0.0950  0.6719
  201MOL   C11644516   6.084   1.988   3.872 -0.2084 -0.1832  0.0354
  201MOL   H11744517   6.005   2.160   3.954 -2.0245 -1.6660  0.2943
  201MOL   H11844518   6.163   2.405   3.711 -2.9001 -2.4078 -1.5240
  201MOL   H11944519   6.069   2.392   3.873 -0.8528  0.8299 -0.6165
  201MOL   H12044520   6.229   2.330   3.861 -0.5632  0.6555  1.6392
  201MOL   H12144521   6.042   1.954   3.967  1.7109  1.4924  1.5478
  201MOL   H12244522   6.185   2.025   3.893 -0.8197  1.0924  0.8265
  201MOL   C12344523   6.089   1.890   3.750  0.5363 -0.1083 -0.4234
  201MOL   C12444524   6.003   1.761   3.766 -0.0978 -0.1342 -0.3592
  201MOL   O12544525   5.986   1.714   3.882  0.6868  0.3629 -0.5958
  201MOL   C12644526   5.936   1.696   3.639 -0.0885  0.2158 -0.2355
  201MOL   C12744527   6.226   1.857   3.694 -0.3632 -0.1730  0.5398
  201MOL   H12844528   6.061   1.940   3.657  1.5761 -2.7804 -2.2458
  201MOL   H12944529   5.986   1.602   3.619  1.0630  0.6129  0.7403
  201MOL   H13044530   5.835   1.684   3.677  0.1464  0.7123  0.5593
  201MOL   H13144531   5.929   1.763   3.553 -1.2740  1.3545  0.7093
  201MOL   H13244532   6.273   1.940   3.642  0.5638  0.4949  2.3652
  201MOL   H13344533   6.215   1.797   3.604  0.3134 -0.7715  0.8441
  201MOL   C13444534   6.333   1.798   3.790 -0.2700  0.4616 -0.5217
  201MOL   C13544535   6.444   1.912   3.823 -0.0119  0.4666  0.3901
  201MOL   O13644536   6.435   1.983   3.926 -0.0402 -0.3198 -0.5021
  201MOL   C13744537   6.556   1.949   3.727 -0.3089 -0.2821 -0.8278
  201MOL   C13844538   6.411   1.674   3.749  0.2448  0.3581  0.2519
  201MOL   H13944539   6.298   1.771   3.889 -0.6673 -0.2817 -0.8552
  201MOL   H14044540   6.600   1.868   3.669 -0.3112 -1.4347  0.7709
  201MOL   H14144541   6.525   2.040   3.676 -1.3397  0.3553  0.8927
  201MOL   H14244542   6.645   1.962   3.788  0.0352 -1.0155 -1.1678
  201MOL   H14344543   6.509   1.671   3.795  0.3564 -1.6424 -0.0820
  201MOL   H14444544   6.450   1.696   3.649  2.6035 -2.5270  0.4663
  201MOL   C14544545   6.361   1.523   3.763  0.3387 -0.4945 -0.0179
  201MOL   C14644546   6.253   1.484   3.658 -0.3424  0.5962  0.6087
  201MOL   O14744547   6.203   1.548   3.567 -0.0259  0.1614  0.3847
  201MOL   C14844548   6.195   1.348   3.673  0.8711 -0.5759 -0.2070
  201MOL   C14944549   6.311   1.484   3.911 -0.4275  0.5290  0.0333
  201MOL   H15044550   6.450   1.465   3.740  1.4030  0.5109  1.4532
  201MOL   H15144551   6.267   1.274   3.709 -0.2600 -1.3423  0.5268
  201MOL   H15244552   6.109   1.356   3.740 -0.7217 -0.0779 -2.2441
  201MOL   H15344553   6.162   1.309   3.577  1.8273  0.1979 -0.8505
  201MOL   H15444554   6.292   1.378   3.930 -2.0721  1.1791  2.2353
  201MOL   H15544555   6.211   1.524   3.926  0.4642  1.6106  3.4061
  201MOL   C15644556   6.404   1.522   4.023 -0.4046 -1.3227  0.2199
  201MOL   C15744557   6.531   1.446   4.023 -0.5031  0.4204 -0.0849
  201MOL   O15844558   6.538   1.330   4.060  0.0172 -0.5071 -0.0833
  201MOL   C15944559   6.653   1.515   3.973  0.1164 -0.6346 -0.3206
  201MOL   C16044560   6.331   1.513   4.166 -0.0602 -1.0941  0.3520
  201MOL   H16144561   6.440   1.623   4.002 -1.1947 -0.9699  0.5213
  201MOL   H16244562   6.744   1.471   4.014 -0.0427  0.9459  1.8023
  201MOL   H16344563   6.658   1.510   3.864  1.7242 -0.4919 -0.2755
  201MOL   H16444564   6.651   1.618   4.006  2.6078 -0.6856  0.0676
  201MOL   H16544565   6.397   1.488   4.249 -0.8248 -1.8762  0.7265
  201MOL   H16644566   6.253   1.438   4.156  0.5944 -1.7484  0.1025
  201MOL   C16744567   6.246   1.644   4.200 -0.1486 -0.0451 -0.2499
  201MOL   C16844568   6.327   1.775   4.199  0.7534  0.6871  0.1087
  201MOL   O16944569   6.452   1.780   4.182  0.3259  0.2903  1.0421
  201MOL   C17044570   6.248   1.901   4.210  0.1291 -1.0151 -0.6569
  201MOL   C17144571   6.173   1.618   4.330  0.1363  0.2781 -0.0989
  201MOL   H17244572   6.177   1.655   4.116 -0.1683  0.2815 -0.1937
  201MOL   H17344573   6.259   1.964   4.122 -1.7438  0.7078  0.3085
  201MOL   H17444574   6.140   1.894   4.218  0.1148  0.9491  1.4486
  201MOL   H17544575   6.292   1.964   4.287 -0.9011  2.1080 -2.5410
  201MOL   H17644576   6.138   1.703   4.388  1.3167 -0.2945  1.5119
  201MOL   H17744577   6.247   1.580   4.401 -0.8146  2.6908  2.2725
  201MOL   C17844578   6.048   1.528   4.331  0.3196  0.4378  0.3118
  201MOL   C17944579   5.929   1.600   4.269 -0.3725  0.0204  0.1982
  201MOL   O18044580   5.914   1.716   4.289 -0.0594  0.4792  0.1211
  201MOL   C18144581   5.834   1.519   4.172 -0.1415  0.5828 -0.2477
  201MOL   C18244582   6.003   1.500   4.479 -0.3898  0.5947 -0.2490
  201MOL   H18344583   6.068   1.432   4.283 -2.9200 -0.5675  0.8426
  201MOL   H18444584   5.793   1.433   4.226  1.1872  0.2873  0.3100
  201MOL   H18544585   5.757   1.580   4.125  0.2456  2.0041  0.9361
  201MOL   H18644586   5.899   1.478   4.095 -0.0760  2.4565 -1.2150
  201MOL   H18744587   5.986   1.597   4.526 -1.3088 -0.0179  0.7259
  201MOL   H18844588   6.085   1.465   4.542 -0.8528  0.8701  0.5206
  201MOL   C18944589   5.888   1.397   4.502  0.1722  0.5133  0.2618
  201MOL   C19044590   5.836   1.427   4.643  0.2061  0.8017  0.3295
  201MOL   O19144591   5.901   1.397   4.741  0.1992  0.6186  0.6449
  201MOL   C19244592   5.705   1.509   4.663 -0.1360  0.2178 -0.3360
  201MOL   C19344593   5.939   1.247   4.497  0.3129 -0.1240  0.8555
  201MOL   H19444594   5.797   1.398   4.441 -0.2885  2.4769  0.9376
  201MOL   H19544595   5.691   1.565   4.570  0.7539 -0.5161 -0.9212
  201MOL   H19644596   5.619   1.447   4.689 -0.5755  0.0978 -1.9808
  201MOL   H19744597   5.720   1.576   4.748  1.0768  1.1203 -1.2431
  201MOL   H19844598   5.944   1.218   4.392  0.0436 -1.1543  1.1135
  201MOL   H19944599   5.849   1.191   4.525 -0.3360 -0.5546 -1.9487
  201MOL   C20044600   6.058   1.206   4.584 -0.2108  0.6428  0.0249
  201MOL   C20144601   6.195   1.220   4.506  0.9193  0.4529  0.6831
  201MOL   O20244602   6.201   1.174   4.392 -0.2102 -0.0273  0.5659
  201MOL   C20344603   6.301   1.316   4.553 -0.3142  0.7777  0.2597
  201MOL   C20444604   6.051   1.060   4.632  0.0501 -0.2918 -0.1986
  201MOL   H20544605   6.070   1.264   4.676  0.8223  0.0936  0.2414
  201MOL   H20644606   6.344   1.366   4.466  0.3010  0.4649  0.3738
  201MOL   H20744607   6.269   1.394   4.622 -1.1592  0.2460  0.4796
  201MOL   H20844608   6.377   1.252   4.599 -1.0847 -1.0068 -0.8990
  201MOL   H20944609   6.075   0.996   4.547  2.1577 -0.5854  0.6013
  201MOL   H21044610   5.947   1.046   4.662  0.4915 -0.0317  1.4973
  201MOL   C21144611   6.151   1.049   4.744 -0.1244  0.6297 -0.0652
  201MOL   C21244612   6.240   0.921   4.730  0.3984 -0.1215 -0.5268
  201MOL   O21344613   6.185   0.811   4.717  0.3751  0.5763  0.3858
  201MOL   C21444614   6.393   0.940   4.726  0.3255  0.3903  0.4896
  201MOL   C21544615   6.079   1.034   4.875 -0.5847  0.4777  0.4065
  201MOL   H21644616   6.212   1.138   4.757  2.0120 -0.9366  0.9457
  201MOL   H21744617   6.408   1.047   4.740 -0.4961  0.6007 -0.1705
  201MOL   H21844618   6.449   0.904   4.812  0.9766 -1.9094 -0.8509
  201MOL   H21944619   6.424   0.893   4.633  1.2792 -0.5646  1.2733
  201MOL   H22044620   6.004   0.956   4.864  0.2072 -0.0619 -1.3095
  201MOL   H22144621   6.033   1.130   4.899 -1.8892 -0.9539  4.0004
  201MOL   H22244622   6.142   1.020   4.963  0.0314 -2.7200 -0.4950
  202MOL     C144623   2.459   3.312   5.026 -0.4050  0.4180  0.2584
  202MOL     C244624   2.319   3.338   4.968  0.0085 -0.0376 -0.2322
  202MOL     O344625   2.222   3.304   5.041 -0.2061 -0.2773  0.1471
  202MOL     C444626   2.307   3.389   4.825  0.4977 -0.2368  0.0476
  202MOL     C544627   2.498   3.160   5.013 -0.1383 -0.6247 -0.2840
  202MOL     H644628   2.531   3.354   4.955 -1.7806 -0.1436 -1.5054
  202MOL     H744629   2.337   3.494   4.814 -1.6531  0.4433  0.4435
  202MOL     H844630   2.365   3.328   4.755 -2.2441 -1.2622 -1.4122
  202MOL     H944631   2.204   3.398   4.790  0.7443 -1.6738 -1.0698
  202MOL    H1044632   2.604   3.149   5.038 -0.4077 -2.9689 -0.0640
  202MOL    H1144633   2.486   3.146   4.906  1.6575  1.6245 -0.8450
  202MOL    H1244634   2.470   3.358   5.124  1.3829 -0.6541  0.5857
  202MOL    C1344635   2.418   3.054   5.096  0.2167  0.1856  0.2718
  202MOL    C1444636   2.430   3.084   5.248  0.0095  0.1892 -0.7933
  202MOL    O1544637   2.533   3.067   5.316  0.2877 -0.0335  0.2646
  202MOL    C1644638   2.312   3.155   5.310 -0.0327 -0.0101 -0.4488
  202MOL    C1744639   2.464   2.912   5.061  0.2240  0.3970 -0.0061
  202MOL    H1844640   2.310   3.053   5.089 -0.0140 -0.1878  3.2959
  202MOL    H1944641   2.304   3.256   5.270  1.4164  0.0004 -0.7049
  202MOL    H2044642   2.216   3.106   5.290 -0.0018 -1.2307  2.1367
  202MOL    H2144643   2.343   3.152   5.415  3.8866 -2.1084 -1.5778
  202MOL    H2244644   2.494   2.857   5.150  0.7061 -2.4024 -1.8479
  202MOL    H2344645   2.552   2.912   4.996 -1.1152  1.1175 -1.8487
  202MOL    C2444646   2.360   2.820   5.006  0.1568 -0.4429 -0.6916
  202MOL    C2544647   2.427   2.680   5.000  0.3289  0.1206  0.6550
  202MOL    O2644648   2.530   2.657   4.933  0.2420  0.2009  0.3048
  202MOL    C2744649   2.357   2.559   5.067 -0.3080 -0.7825  0.6281
  202MOL    C2844650   2.298   2.868   4.869  0.6446 -0.5870  0.8216
  202MOL    H2944651   2.282   2.801   5.080  0.9792 -1.0421  0.0284
  202MOL    H3044652   2.388   2.544   5.170  0.2904 -4.0896  0.0325
  202MOL    H3144653   2.248   2.568   5.064 -0.4462 -2.5457 -0.2590
  202MOL    H3244654   2.375   2.461   5.023  0.8288 -0.2615 -0.1160
  202MOL    H3344655   2.299   2.780   4.805  1.1251 -1.4432  1.9700
  202MOL    H3444656   2.370   2.942   4.834  0.0311 -0.2893  0.1892
  202MOL    C3544657   2.151   2.918   4.884  0.0079  0.3928 -0.8465
  202MOL    C3644658   2.061   2.795   4.919  0.3029  0.4472  0.2023
  202MOL    O3744659   2.073   2.690   4.861  0.0986 -0.2155 -0.9674
  202MOL    C3844660   1.956   2.814   5.032 -0.1790 -0.1977  0.1874
  202MOL    C3944661   2.090   2.985   4.758 -0.1135  0.2471  1.0460
  202MOL    H4044662   2.140   2.995   4.960 -2.7395 -1.0440  0.3010
  202MOL    H4144663   1.971   2.912   5.077 -1.6334  0.3344 -0.4415
  202MOL    H4244664   1.856   2.801   4.989  0.3216  1.1064 -1.3769
  202MOL    H4344665   1.971   2.740   5.111  0.3656 -0.7531 -0.4300
  202MOL    H4444666   2.056   2.912   4.684  0.0026  1.0952  0.1404
  202MOL    H4544667   2.181   3.026   4.714  0.4628 -1.7545  0.3090
  202MOL    C4644668   1.984   3.093   4.781  0.1016 -0.1539  0.2013
  202MOL    C4744669   1.848   3.038   4.813 -0.0092 -0.1603  0.8517
  202MOL    O4844670   1.800   3.050   4.927 -0.5313  0.4524  0.6113
  202MOL    C4944671   1.762   2.979   4.698  0.0005 -0.0655  0.1229
  202MOL    C5044672   1.995   3.191   4.665 -0.2883 -0.0048 -0.1370
  202MOL    H5144673   2.016   3.152   4.867 -0.8044 -0.3046  0.6509
  202MOL    H5244674   1.690   2.907   4.737  0.0905  0.4100  1.1736
  202MOL    H5344675   1.697   3.060   4.664  0.1563  0.2113  0.4815
  202MOL    H5444676   1.814   2.927   4.618  0.9980  0.3031  0.5242
  202MOL    H5544677   1.994   3.137   4.570 -0.4983 -0.3723  0.0728
  202MOL    H5644678   2.097   3.231   4.665 -0.1671 -0.2877  1.0208
  202MOL    C5744679   1.897   3.317   4.658  0.3065  0.1836  0.4633
  202MOL    C5844680   1.942   3.398   4.539  0.6792 -0.1076 -0.4173
  202MOL    O5944681   2.039   3.473   4.550  0.0554 -0.0013  0.8267
  202MOL    C6044682   1.882   3.363   4.400  0.2768 -0.1979  0.5982
  202MOL    C6144683   1.900   3.406   4.793 -0.0624 -0.3599  0.5397
  202MOL    H6244684   1.800   3.270   4.641  1.0416 -1.4135  0.6228
  202MOL    H6344685   1.806   3.439   4.381 -0.4213 -0.8689  0.7045
  202MOL    H6444686   1.958   3.376   4.322  0.4326 -0.4061  0.7138
  202MOL    H6544687   1.847   3.261   4.388  1.1601 -0.3931 -0.3780
  202MOL    H6644688   1.997   3.453   4.812 -0.0214 -0.0762 -0.3484
  202MOL    H6744689   1.892   3.348   4.885 -0.2016 -0.0532  0.7221
  202MOL    C6844690   1.796   3.518   4.788  0.6839 -0.2572  0.2440
  202MOL    C6944691   1.814   3.610   4.904  0.3102  0.3048  0.3873
  202MOL    O7044692   1.810   3.569   5.019  0.5375 -0.2137  0.1842
  202MOL    C7144693   1.835   3.761   4.880 -0.4831 -0.1834  1.1117
  202MOL    C7244694   1.646   3.480   4.785 -0.4640  0.6388  0.1297
  202MOL    H7344695   1.822   3.585   4.706 -0.9130 -1.2103 -1.0840
  202MOL    H7444696   1.935   3.799   4.901 -0.1048 -0.4145 -0.2426
  202MOL    H7544697   1.817   3.783   4.775 -0.8095  1.0936  1.4360
  202MOL    H7644698   1.756   3.817   4.928 -1.7489  2.8536 -4.1221
  202MOL    H7744699   1.589   3.541   4.856 -1.8194  0.2877 -0.6321
  202MOL    H7844700   1.623   3.377   4.813  0.5437  0.4376  0.2245
  202MOL    C7944701   1.590   3.506   4.638 -0.2129 -0.0651  0.1619
  202MOL    C8044702   1.591   3.660   4.626 -0.2015 -0.8769 -0.1970
  202MOL    O8144703   1.550   3.731   4.719  0.5556  0.0103  0.5176
  202MOL    C8244704   1.641   3.733   4.499  0.3755 -0.0831 -0.3607
  202MOL    C8344705   1.446   3.466   4.619  0.0666 -0.9510  0.0084
  202MOL    H8444706   1.642   3.455   4.557 -0.4334  0.4227 -0.2921
  202MOL    H8544707   1.563   3.800   4.464  0.0331  0.6321  1.6669
  202MOL    H8644708   1.730   3.793   4.520 -0.1777  0.8062 -0.5187
  202MOL    H8744709   1.665   3.657   4.425  1.6438 -1.8719  1.8377
  202MOL    H8844710   1.380   3.513   4.691  1.0565 -0.8011  0.8322
  202MOL    H8944711   1.429   3.362   4.646  0.4722 -1.0720 -0.1889
  202MOL    C9044712   1.377   3.492   4.483  0.0776 -0.1004 -0.4647
  202MOL    C9144713   1.229   3.443   4.500 -0.0819 -0.0117 -0.3731
  202MOL    O9244714   1.182   3.380   4.593 -0.5609 -0.2908  0.3081
  202MOL    C9344715   1.134   3.491   4.394  0.0273 -0.2716  0.5130
  202MOL    C9444716   1.449   3.448   4.355  0.0068 -0.2944 -0.2983
  202MOL    H9544717   1.385   3.600   4.472 -0.2512  0.1093  1.2287
  202MOL    H9644718   1.038   3.524   4.433 -0.4183  0.6947 -1.3405
  202MOL    H9744719   1.185   3.573   4.344 -1.3338 -0.7810 -1.7942
  202MOL    H9844720   1.123   3.427   4.306 -1.1534 -1.3575  1.4404
  202MOL    H9944721   1.546   3.499   4.354  0.7223 -1.5398  1.6985
  202MOL   H10044722   1.396   3.502   4.277 -0.4036  1.1752  0.9906
  202MOL   C10144723   1.459   3.295   4.315 -0.6840 -0.0513 -0.6506
  202MOL   C10244724   1.510   3.210   4.432 -0.3782  0.0308 -0.2978
  202MOL   O10344725   1.629   3.213   4.468  0.6762  0.5116  0.4193
  202MOL   C10444726   1.413   3.108   4.495 -0.0012 -0.3176 -0.4165
  202MOL   C10544727   1.543   3.280   4.189 -0.4584  0.0431  0.3517
  202MOL   H10644728   1.356   3.268   4.294 -1.0031  2.4299 -2.5722
  202MOL   H10744729   1.394   3.020   4.433 -0.5181  0.7761 -1.8379
  202MOL   H10844730   1.471   3.070   4.580  0.2862 -0.7387 -0.7975
  202MOL   H10944731   1.321   3.155   4.530  0.9248  2.8220 -2.0753
  202MOL   H11044732   1.640   3.327   4.207 -0.3878 -0.1987  0.6064
  202MOL   H11144733   1.511   3.335   4.100  3.5095  1.4853 -0.2744
  202MOL   C11244734   1.559   3.126   4.144 -0.1436 -0.0236  0.1897
  202MOL   C11344735   1.681   3.113   4.062 -0.1781  0.0219 -0.3142
  202MOL   O11444736   1.672   3.080   3.946  0.6473  0.2595 -0.4161
  202MOL   C11544737   1.818   3.132   4.131 -0.1922  0.0661 -0.0258
  202MOL   C11644738   1.426   3.067   4.085  1.0140 -0.4625 -0.3673
  202MOL   H11744739   1.586   3.070   4.234  0.6526  0.4102  0.2317
  202MOL   H11844740   1.826   3.084   4.228 -1.5438 -2.6085 -1.1861
  202MOL   H11944741   1.891   3.077   4.072 -0.5559  1.5882 -1.9568
  202MOL   H12044742   1.845   3.237   4.145  1.5220 -0.2060 -1.0869
  202MOL   H12144743   1.412   3.108   3.985 -0.4398  0.9335  0.4002
  202MOL   H12244744   1.341   3.101   4.143 -1.0626 -0.7161 -3.1265
  202MOL   C12344745   1.430   2.912   4.077 -0.6866 -0.5008  1.3328
  202MOL   C12444746   1.374   2.871   3.939  0.3290  0.0211  0.5025
  202MOL   O12544747   1.257   2.902   3.916  0.2232  0.2010  0.0701
  202MOL   C12644748   1.454   2.794   3.834  0.6301 -0.5021  0.0747
  202MOL   C12744749   1.342   2.852   4.192 -0.3206  0.0762  0.1982
  202MOL   H12844750   1.534   2.879   4.072 -1.0435 -1.5458  0.3907
  202MOL   H12944751   1.459   2.691   3.868  0.8762 -1.3278 -2.3947
  202MOL   H13044752   1.423   2.797   3.730  0.3072 -0.5774  0.1697
  202MOL   H13144753   1.560   2.821   3.838  1.1768 -2.2897 -1.6057
  202MOL   H13244754   1.244   2.819   4.158  0.1812 -0.1856 -1.0191
  202MOL   H13344755   1.311   2.933   4.258 -1.0104 -1.4234  1.7517
  202MOL   C13444756   1.407   2.740   4.284  0.3078 -0.3195 -0.8165
  202MOL   C13544757   1.535   2.793   4.357  0.1966 -0.6307 -0.3225
  202MOL   O13644758   1.629   2.856   4.300  0.4802 -0.3118 -0.4611
  202MOL   C13744759   1.554   2.751   4.508  0.1852  0.0396 -1.0529
  202MOL   C13844760   1.441   2.625   4.197 -0.8468 -0.6017  0.5486
  202MOL   H13944761   1.334   2.707   4.358  0.2104  0.3881 -0.5887
  202MOL   H14044762   1.461   2.768   4.562  0.4370 -0.3760 -0.4834
  202MOL   H14144763   1.577   2.645   4.500 -3.1978 -0.8155 -0.3181
  202MOL   H14244764   1.638   2.804   4.553  0.3467 -0.9368 -0.2046
  202MOL   H14344765   1.492   2.557   4.266  1.3483  1.7296  1.3215
  202MOL   H14444766   1.515   2.662   4.126 -0.9607  1.7018  1.5863
  202MOL   C14544767   1.324   2.544   4.126  0.2284  0.7767 -0.8994
  202MOL   C14644768   1.241   2.459   4.230  0.8171  0.2559  0.2140
  202MOL   O14744769   1.260   2.343   4.264  0.1312  0.5494 -0.7902
  202MOL   C14844770   1.122   2.526   4.292  0.9123 -0.5030  0.9144
  202MOL   C14944771   1.371   2.460   4.004  0.7454 -0.2826 -0.4173
  202MOL   H15044772   1.263   2.625   4.085  0.0251  1.3261  0.4534
  202MOL   H15144773   1.124   2.517   4.401  1.5980  0.7845  1.0212
  202MOL   H15244774   1.123   2.630   4.259 -2.9838 -0.2636  1.2725
  202MOL   H15344775   1.029   2.480   4.259  1.2733 -0.6103  0.0377
  202MOL   H15444776   1.420   2.373   4.046 -0.0424 -0.0902  0.9439
  202MOL   H15544777   1.458   2.509   3.958  1.0369  2.4695  2.7986
  202MOL   C15644778   1.273   2.411   3.893 -0.6075 -0.1174 -0.5405
  202MOL   C15744779   1.229   2.526   3.802 -0.2375 -0.3465 -0.2687
  202MOL   O15844780   1.151   2.616   3.843 -0.3260  0.6878  0.1832
  202MOL   C15944781   1.259   2.510   3.653  0.8818 -0.3398 -0.4596
  202MOL   C16044782   1.172   2.291   3.938  0.0769 -0.7041  1.0088
  202MOL   H16144783   1.340   2.358   3.825 -0.9515 -0.7191 -0.4188
  202MOL   H16244784   1.349   2.561   3.618  0.5365 -0.9720 -2.3349
  202MOL   H16344785   1.260   2.404   3.628  1.1715 -0.5922  0.5698
  202MOL   H16444786   1.191   2.563   3.587  2.1511  0.4109 -1.1833
  202MOL   H16544787   1.090   2.341   3.991  1.1407  0.1640  1.8718
  202MOL   H16644788   1.219   2.218   4.004 -1.0829 -1.9330  0.4980
  202MOL   C16744789   1.107   2.187   3.838  0.2194 -0.2588  0.3586
  202MOL   C16844790   1.204   2.116   3.744  0.3394 -0.5231 -0.0670
  202MOL   O16944791   1.212   2.143   3.626 -0.0940  0.1074  0.3278
  202MOL   C17044792   1.286   2.000   3.807  0.2973  0.1292  0.9186
  202MOL   C17144793   0.998   2.268   3.765 -0.0736  0.0900  0.0747
  202MOL   H17244794   1.055   2.118   3.905 -1.1976  0.4993  0.0748
  202MOL   H17344795   1.219   1.919   3.833  0.9228 -0.4396  0.7738
  202MOL   H17444796   1.356   1.961   3.733  0.9134  1.4489  0.7888
  202MOL   H17544797   1.349   2.036   3.889  3.5512  0.4760 -1.6063
  202MOL   H17644798   1.030   2.297   3.665 -0.1404 -1.3573 -0.3791
  202MOL   H17744799   0.989   2.371   3.799  1.6808 -0.2290  1.5797
  202MOL   C17844800   0.858   2.217   3.768  0.4011  0.0615 -0.5352
  202MOL   C17944801   0.807   2.231   3.912 -0.2155 -0.1513 -0.0873
  202MOL   O18044802   0.831   2.149   3.990 -0.6094  0.1936 -0.1481
  202MOL   C18144803   0.711   2.348   3.937 -0.0966 -0.0164  0.8195
  202MOL   C18244804   0.842   2.070   3.710  0.2648  0.5158  0.6363
  202MOL   H18344805   0.794   2.280   3.707 -0.8485  0.4180  1.1246
  202MOL   H18444806   0.613   2.315   3.970 -1.3313  1.7200 -1.0380
  202MOL   H18544807   0.749   2.397   4.027  0.0729  0.7262  0.3491
  202MOL   H18644808   0.696   2.418   3.854 -2.1040 -0.6546  0.6274
  202MOL   H18744809   0.874   1.988   3.775 -0.9850 -1.8271 -1.5887
  202MOL   H18844810   0.910   2.050   3.627  2.5398  1.9103  2.1004
  202MOL   C18944811   0.702   2.031   3.661  0.5879  0.9411 -0.1534
  202MOL   C19044812   0.641   2.130   3.559 -0.1437  0.2454  0.1037
  202MOL   O19144813   0.581   2.231   3.592  0.2578  0.2391 -0.8586
  202MOL   C19244814   0.673   2.094   3.411  0.3166 -0.8103 -0.4024
  202MOL   C19344815   0.612   1.992   3.777 -0.5256 -0.6277 -0.4425
  202MOL   H19444816   0.729   1.944   3.601  0.6481  0.1616  0.9930
  202MOL   H19544817   0.757   2.153   3.374 -1.6572  1.3034 -1.6771
  202MOL   H19644818   0.685   1.986   3.404  2.4426 -0.5590 -1.1514
  202MOL   H19744819   0.589   2.122   3.348  0.9706 -0.1066 -0.9677
  202MOL   H19844820   0.571   2.084   3.817 -1.0509 -1.1259  0.1571
  202MOL   H19944821   0.667   1.943   3.857 -2.4343 -0.7537  0.8244
  202MOL   C20044822   0.487   1.912   3.737  0.0433 -0.4467 -0.2682
  202MOL   C20144823   0.377   1.911   3.843 -0.3635 -0.0195  0.0814
  202MOL   O20244824   0.369   1.993   3.937 -0.5412 -0.1512  0.0812
  202MOL   C20344825   0.279   1.798   3.826  0.1149  0.5310 -0.1545
  202MOL   C20444826   0.527   1.770   3.684 -0.0077  0.1470 -0.0570
  202MOL   H20544827   0.432   1.958   3.655  1.5849  1.0176 -0.5168
  202MOL   H20644828   0.210   1.804   3.910 -0.6953  0.3066 -0.8004
  202MOL   H20744829   0.223   1.808   3.733 -3.5868  0.3248  1.9466
  202MOL   H20844830   0.333   1.703   3.833  0.6389  0.7719 -0.8791
  202MOL   H20944831   0.531   1.693   3.761 -0.9264  0.0061 -0.1467
  202MOL   H21044832   0.628   1.782   3.645 -0.5280 -0.8873 -1.7363
  202MOL   C21144833   0.449   1.702   3.573 -0.3200  0.0806  0.3368
  202MOL   C21244834   0.518   1.580   3.523 -0.0542 -0.3732  0.2766
  202MOL   O21344835   0.631   1.558   3.559 -0.2262 -0.5712  0.0352
  202MOL   C21444836   0.435   1.477   3.445  0.0837 -0.0965 -0.7820
  202MOL   C21544837   0.418   1.802   3.464  1.0200 -1.0849 -0.4808
  202MOL   H21644838   0.356   1.671   3.621 -0.3997  1.1643  0.9047
  202MOL   H21744839   0.444   1.378   3.490 -1.2237  0.6530  1.2197
  202MOL   H21844840   0.336   1.523   3.456  0.3772  0.4893 -0.5757
  202MOL   H21944841   0.460   1.478   3.339  0.8333  1.5157 -0.5993
  202MOL   H22044842   0.505   1.865   3.441  0.5332 -0.9268 -1.9238
  202MOL   H22144843   0.348   1.881   3.489 -0.0515 -2.9423  2.6935
  202MOL   H22244844   0.394   1.751   3.371  0.5124 -1.4266 -0.1594
  203MOL     C144845   4.825   1.403   4.682 -0.2175 -0.6583  0.0188
  203MOL     C244846   4.782   1.265   4.643  0.6498  0.3405  0.2141
  203MOL     O344847   4.684   1.209   4.697 -0.3736  0.0489 -0.4812
  203MOL     C444848   4.867   1.194   4.538  0.1745 -0.0820 -0.1051
  203MOL     C544849   4.806   1.437   4.824 -0.5792 -0.1696  0.1840
  203MOL     H644850   4.928   1.420   4.651 -1.2835  0.0821 -3.2924
  203MOL     H744851   4.969   1.225   4.560 -0.1398  0.5802  0.4342
  203MOL     H844852   4.863   1.085   4.537  0.3241 -0.1487  2.7203
  203MOL     H944853   4.852   1.234   4.437 -2.3122  0.0253  0.2739
  203MOL    H1044854   4.835   1.356   4.891 -1.2333 -0.1451  0.5095
  203MOL    H1144855   4.699   1.442   4.846 -0.4919 -0.9310  0.8317
  203MOL    H1244856   4.765   1.475   4.626 -0.1135 -1.4827 -1.1737
  203MOL    C1344857   4.859   1.571   4.865  0.1479 -0.6604  0.0686
  203MOL    C1444858   5.008   1.560   4.891 -0.0302  0.2805  0.2268
  203MOL    O1544859   5.087   1.587   4.803  0.1142 -0.1756 -0.1080
  203MOL    C1644860   5.053   1.511   5.026  0.4466  0.2209  0.0453
  203MOL    C1744861   4.787   1.643   4.975  0.1325 -0.0215  0.0376
  203MOL    H1844862   4.858   1.635   4.777 -0.5287  0.3263  0.7857
  203MOL    H1944863   5.152   1.550   5.047  0.0087  1.2774  0.1961
  203MOL    H2044864   4.987   1.527   5.112  0.3013 -1.4838  0.2721
  203MOL    H2144865   5.067   1.404   5.016 -0.9616  0.0528 -0.2843
  203MOL    H2244866   4.836   1.728   5.023  0.7234 -1.1325  1.4364
  203MOL    H2344867   4.792   1.584   5.067  1.1901  1.8174  1.2130
  203MOL    C2444868   4.648   1.704   4.934  0.8166 -0.6395 -0.6471
  203MOL    C2544869   4.673   1.830   4.849 -0.7017  0.0827 -0.4384
  203MOL    O2644870   4.693   1.946   4.896  0.0432  0.2464 -0.1152
  203MOL    C2744871   4.682   1.807   4.697 -0.6221 -0.1970  0.4076
  203MOL    C2844872   4.543   1.733   5.059 -0.6785 -0.4525  0.6088
  203MOL    H2944873   4.595   1.631   4.873 -3.7076  2.6141 -0.9108
  203MOL    H3044874   4.614   1.879   4.652  0.3284  2.2404  2.7190
  203MOL    H3144875   4.785   1.833   4.671 -0.6889 -1.2654 -0.9873
  203MOL    H3244876   4.658   1.706   4.662  0.7266 -0.1831 -0.6147
  203MOL    H3344877   4.573   1.828   5.102 -1.1262 -0.2618  0.4938
  203MOL    H3444878   4.543   1.667   5.146  1.5362 -1.3302 -0.0119
  203MOL    C3544879   4.405   1.742   4.996  0.1001  0.0859  0.3134
  203MOL    C3644880   4.330   1.865   5.057 -0.3315 -0.6726  0.9783
  203MOL    O3744881   4.231   1.855   5.132  0.3626  0.7592  0.6443
  203MOL    C3844882   4.370   2.004   5.011  0.5168 -0.0766  0.4251
  203MOL    C3944883   4.323   1.622   5.025 -0.4693 -0.7845  0.6302
  203MOL    H4044884   4.422   1.758   4.890  1.2088  1.8689  0.7368
  203MOL    H4144885   4.274   2.048   4.982 -0.1053 -1.9395 -0.4840
  203MOL    H4244886   4.426   2.058   5.087 -1.0187 -2.8896  3.7110
  203MOL    H4344887   4.439   2.003   4.927  0.3593  2.4386  0.2340
  203MOL    H4444888   4.218   1.642   5.005  0.3753  2.5155 -0.9501
  203MOL    H4544889   4.333   1.606   5.132 -0.5578 -2.6151  0.3748
  203MOL    C4644890   4.375   1.496   4.954 -0.0772 -0.1264  0.1228
  203MOL    C4744891   4.363   1.494   4.797 -0.4112 -0.2794  0.8033
  203MOL    O4844892   4.308   1.593   4.741 -0.1240 -0.2089 -0.3604
  203MOL    C4944893   4.436   1.385   4.716 -0.4443  0.4663 -0.0688
  203MOL    C5044894   4.299   1.374   5.009  0.1528  0.3051 -0.4854
  203MOL    H5144895   4.479   1.475   4.978 -0.8054 -0.7658  2.8903
  203MOL    H5244896   4.534   1.429   4.698  0.0183 -0.6056 -0.2497
  203MOL    H5344897   4.439   1.293   4.775 -3.3399 -0.2843 -1.0459
  203MOL    H5444898   4.384   1.370   4.622 -2.4429 -1.8125  1.3415
  203MOL    H5544899   4.286   1.291   4.941 -0.2038 -0.0666  0.0345
  203MOL    H5644900   4.199   1.403   5.042 -0.0997 -0.2754 -0.7339
  203MOL    C5744901   4.372   1.328   5.141  1.0183  0.0968  0.1991
  203MOL    C5844902   4.478   1.224   5.105  0.8865  0.7372 -0.1819
  203MOL    O5944903   4.452   1.113   5.049  0.4984  0.4332 -0.3805
  203MOL    C6044904   4.623   1.261   5.135  0.5064 -0.8576  0.0181
  203MOL    C6144905   4.284   1.256   5.256  0.7325 -0.2491 -0.4418
  203MOL    H6244906   4.426   1.416   5.173 -0.4095  0.1278  2.6975
  203MOL    H6344907   4.697   1.254   5.055  0.9946  1.1022  0.2868
  203MOL    H6444908   4.637   1.367   5.156  0.0269 -0.6635 -0.6020
  203MOL    H6544909   4.653   1.193   5.215  0.6007 -2.0657 -1.0224
  203MOL    H6644910   4.337   1.189   5.324 -1.6116 -0.1846  1.5153
  203MOL    H6744911   4.223   1.187   5.197  0.4817 -1.8822  1.6586
  203MOL    C6844912   4.173   1.333   5.330 -0.4647 -0.3682 -0.1918
  203MOL    C6944913   4.234   1.463   5.388  0.1614  0.3941 -0.3052
  203MOL    O7044914   4.342   1.462   5.446  0.0179  0.4392 -0.9093
  203MOL    C7144915   4.140   1.580   5.383 -0.2518  0.3910  0.4104
  203MOL    C7244916   4.098   1.252   5.439 -0.8135 -0.2073  0.1339
  203MOL    H7344917   4.095   1.359   5.258 -0.3479 -0.9994 -0.5574
  203MOL    H7444918   4.056   1.545   5.443  0.0954 -2.1014 -0.5027
  203MOL    H7544919   4.178   1.672   5.427  0.5488 -0.1580  0.8887
  203MOL    H7644920   4.112   1.591   5.278  1.5175  1.8875  0.0641
  203MOL    H7744921   4.063   1.171   5.376 -1.9279 -0.1367  0.6497
  203MOL    H7844922   4.010   1.312   5.463 -1.2638 -0.2662 -1.3579
  203MOL    C7944923   4.178   1.192   5.559  0.2205 -0.3176 -0.3476
  203MOL    C8044924   4.157   1.037   5.564 -0.3990 -0.7032 -0.3928
  203MOL    O8144925   4.049   0.981   5.560  0.3136  0.7650 -1.0981
  203MOL    C8244926   4.290   0.953   5.560  0.6430  0.4929  0.3398
  203MOL    C8344927   4.133   1.258   5.692  0.4751  0.1373 -0.3169
  203MOL    H8444928   4.286   1.210   5.554  0.5467 -1.7140  1.2124
  203MOL    H8544929   4.258   0.849   5.564  0.1156  0.6094 -0.6033
  203MOL    H8644930   4.348   0.964   5.468  0.3578  0.1772  0.1189
  203MOL    H8744931   4.356   0.977   5.643  0.7233 -0.6542  0.6112
  203MOL    H8844932   4.032   1.225   5.719  0.5468  0.5354  0.4386
  203MOL    H8944933   4.125   1.367   5.683  0.6464  0.3249  1.6114
  203MOL    C9044934   4.223   1.237   5.813  0.0210  0.1778  0.4385
  203MOL    C9144935   4.144   1.260   5.941 -0.3429 -0.5222  0.1850
  203MOL    O9244936   4.058   1.341   5.949 -0.7086 -0.2364 -0.3197
  203MOL    C9344937   4.177   1.169   6.057 -0.3849  0.9263  0.3658
  203MOL    C9444938   4.351   1.323   5.806  0.4516 -0.3936 -0.1727
  203MOL    H9544939   4.257   1.134   5.819  0.0541  0.2422  1.4433
  203MOL    H9644940   4.239   1.083   6.031  1.3483  1.9562  1.0076
  203MOL    H9744941   4.233   1.235   6.123 -1.2106  2.4661 -0.4569
  203MOL    H9844942   4.088   1.138   6.110 -0.7308 -0.2094 -0.8460
  203MOL    H9944943   4.328   1.424   5.838  0.9604 -0.7348  1.3225
  203MOL   H10044944   4.375   1.326   5.700  1.2229 -1.3070 -0.0317
  203MOL   C10144945   4.473   1.263   5.887 -0.0535  0.3974  0.1343
  203MOL   C10244946   4.548   1.375   5.966 -0.5951  0.2907  0.4775
  203MOL   O10344947   4.595   1.472   5.903  0.5140  0.3853  0.2059
  203MOL   C10444948   4.558   1.363   6.117 -0.0801  0.4587  0.4555
  203MOL   C10544949   4.566   1.153   5.817  0.4718 -0.5638  0.2134
  203MOL   H10644950   4.431   1.191   5.957 -0.4004 -0.2994 -0.7800
  203MOL   H10744951   4.659   1.387   6.152  0.8291 -1.0126 -1.0870
  203MOL   H10844952   4.480   1.427   6.158  0.8738  1.3805  0.8497
  203MOL   H10944953   4.539   1.260   6.148  1.0149 -0.4485 -1.8005
  203MOL   H11044954   4.497   1.083   5.769  0.7478  0.8435 -2.3284
  203MOL   H11144955   4.607   1.103   5.905  1.3051 -0.3621 -0.0660
  203MOL   C11244956   4.671   1.202   5.730 -0.4688 -0.5022  0.3065
  203MOL   C11344957   4.630   1.231   5.582 -0.1075 -0.0465  0.2213
  203MOL   O11444958   4.539   1.178   5.534 -0.4185 -0.0931  0.0297
  203MOL   C11544959   4.716   1.332   5.505 -0.0699  0.0594  0.0022
  203MOL   C11644960   4.806   1.111   5.747  0.2383 -0.1295  0.0270
  203MOL   H11744961   4.707   1.296   5.773 -1.8447  0.2546 -0.1531
  203MOL   H11844962   4.799   1.369   5.565 -0.0602 -1.4891  0.9845
  203MOL   H11944963   4.753   1.274   5.420  0.4577 -0.5007  0.6085
  203MOL   H12044964   4.659   1.415   5.464  1.1954  0.4221 -1.0298
  203MOL   H12144965   4.836   1.077   5.846  0.3589  1.9426  0.7363
  203MOL   H12244966   4.881   1.185   5.720  0.4487 -0.0825  0.7224
  203MOL   C12344967   4.806   0.986   5.664 -0.4682  0.2252  0.2667
  203MOL   C12444968   4.694   0.884   5.680  0.2498  0.5747 -0.1889
  203MOL   O12544969   4.652   0.849   5.790 -0.2039 -0.2952 -0.3271
  203MOL   C12644970   4.647   0.807   5.559 -0.3753 -0.2163  0.5404
  203MOL   C12744971   4.942   0.908   5.661  0.9560 -0.5152  0.5239
  203MOL   H12844972   4.786   1.022   5.563  0.1726  0.3882  0.1950
  203MOL   H12944973   4.736   0.771   5.508 -0.4827 -0.8802  0.8168
  203MOL   H13044974   4.589   0.722   5.595 -2.1105 -0.1547 -1.9159
  203MOL   H13144975   4.591   0.873   5.492  0.9324  1.3227  0.9119
  203MOL   H13244976   4.934   0.812   5.609  1.5260  0.5912 -1.6544
  203MOL   H13344977   4.961   0.876   5.764 -0.7287  0.3971  1.1253
  203MOL   C13444978   5.071   0.981   5.608 -0.5973 -0.9453 -0.0086
  203MOL   C13544979   5.066   1.015   5.460 -0.1606 -0.0647  0.5691
  203MOL   O13644980   4.980   0.968   5.386 -0.4883  0.3309 -0.3134
  203MOL   C13744981   5.149   1.127   5.415  0.0440 -0.1557  0.3285
  203MOL   C13844982   5.201   0.919   5.663 -0.2706  0.2638 -0.4744
  203MOL   H13944983   5.066   1.081   5.650  2.9598  0.1696 -2.0905
  203MOL   H14044984   5.156   1.138   5.307  0.2356 -0.6732  0.2873
  203MOL   H14144985   5.109   1.219   5.457  0.5222  0.6675 -0.9879
  203MOL   H14244986   5.256   1.130   5.436  0.0806  1.6448 -0.0138
  203MOL   H14344987   5.198   0.934   5.771 -1.2464 -1.7420 -0.2121
  203MOL   H14444988   5.281   0.980   5.621 -0.8056  1.5948  0.3825
  203MOL   C14544989   5.235   0.773   5.628  0.0987  0.6313 -0.8547
  203MOL   C14644990   5.344   0.728   5.730  0.0743 -0.5943  0.7234
  203MOL   O14744991   5.399   0.812   5.800  0.5375 -0.0295  0.0653
  203MOL   C14844992   5.388   0.581   5.737  0.3779 -0.5811 -0.2831
  203MOL   C14944993   5.274   0.738   5.482  0.2567  0.5037  0.5861
  203MOL   H15044994   5.148   0.719   5.666 -0.5601  3.8874  2.5908
  203MOL   H15144995   5.483   0.575   5.683  0.3272 -4.2309 -0.0852
  203MOL   H15244996   5.411   0.548   5.839  0.7557 -1.0589 -0.5206
  203MOL   H15344997   5.310   0.515   5.699  0.6540 -1.7775  1.1543
  203MOL   H15444998   5.359   0.669   5.489 -0.9514 -0.8814  2.0983
  203MOL   H15544999   5.317   0.823   5.429  1.0053  0.8551  1.7251
  203MOL   C15645000   5.166   0.674   5.387  0.3194 -0.1646  0.0389
  203MOL   C15745001   5.123   0.536   5.432  0.2324 -0.0699  0.7005
  203MOL   O15845002   5.184   0.474   5.520 -0.0239 -0.3509 -0.2079
  203MOL   C15945003   4.997   0.479   5.371 -0.4347 -0.2335  0.1278
  203MOL   C16045004   5.198   0.675   5.238 -0.3837 -0.3715 -0.0611
  203MOL   H16145005   5.070   0.721   5.405  1.0661  0.9163  1.3325
  203MOL   H16245006   4.949   0.415   5.445  1.3877  0.7174  2.2061
  203MOL   H16345007   4.939   0.557   5.323 -0.9855 -0.1465  0.9270
  203MOL   H16445008   5.038   0.415   5.293  0.3199 -0.8398  0.9925
  203MOL   H16545009   5.182   0.778   5.208  0.7022 -0.3238 -0.4933
  203MOL   H16645010   5.126   0.626   5.172 -0.8945  1.7470 -1.0987
  203MOL   C16745011   5.340   0.629   5.187  0.9277  0.4699 -1.1314
  203MOL   C16845012   5.401   0.731   5.087 -0.0917 -0.7218  0.2393
  203MOL   O16945013   5.435   0.703   4.973 -0.0564  0.3619  0.3485
  203MOL   C17045014   5.404   0.875   5.135  0.1915  0.3221 -0.2090
  203MOL   C17145015   5.345   0.481   5.134  0.0964 -0.3631  0.6054
  203MOL   H17245016   5.402   0.623   5.276 -0.1604  1.0327 -0.3302
  203MOL   H17345017   5.338   0.927   5.067 -0.8806 -2.3214 -1.2652
  203MOL   H17445018   5.368   0.887   5.237 -2.3075 -0.6696 -0.9416
  203MOL   H17545019   5.503   0.919   5.130  1.2564 -1.7890  1.1820
  203MOL   H17645020   5.297   0.482   5.036  0.7687  2.8575  0.2793
  203MOL   H17745021   5.280   0.416   5.194  1.0749 -0.2586  1.8073
  203MOL   C17845022   5.485   0.407   5.132  0.0565 -0.1942  0.0456
  203MOL   C17945023   5.553   0.429   5.001 -0.6915  0.0657 -0.1422
  203MOL   O18045024   5.500   0.391   4.897  0.2437  0.4151 -0.6579
  203MOL   C18145025   5.688   0.506   5.012  0.6165  0.2839 -0.0001
  203MOL   C18245026   5.465   0.250   5.148 -0.2709 -0.0315  0.5745
  203MOL   H18345027   5.545   0.457   5.208 -0.7723  0.3316  0.3674
  203MOL   H18445028   5.682   0.604   5.058  1.9945 -0.3812  1.6661
  203MOL   H18545029   5.750   0.436   5.068 -0.2450  0.1940  0.8510
  203MOL   H18645030   5.730   0.516   4.912  0.6679  0.6632  0.0593
  203MOL   H18745031   5.558   0.196   5.131 -0.7999 -1.2244  1.3537
  203MOL   H18845032   5.386   0.205   5.088 -1.1142 -0.1430  1.7409
  203MOL   C18945033   5.448   0.195   5.291  0.4230 -0.2769 -0.3405
  203MOL   C19045034   5.559   0.260   5.382  0.6806 -0.4410 -0.3944
  203MOL   O19145035   5.678   0.229   5.375 -0.4845 -0.1219  0.6061
  203MOL   C19245036   5.506   0.381   5.462 -0.1556 -0.0337  0.2762
  203MOL   C19345037   5.430   0.036   5.302 -0.0441  0.3477  0.1947
  203MOL   H19445038   5.360   0.243   5.333  1.3831 -0.8794  2.5233
  203MOL   H19545039   5.437   0.358   5.543  0.0341  2.3526  1.1265
  203MOL   H19645040   5.589   0.442   5.497 -0.4590  0.0235  0.8913
  203MOL   H19745041   5.442   0.439   5.396 -0.6188  1.0613  1.6697
  203MOL   H19845042   5.463   7.836   5.397 -1.7600 -1.0137  0.2148
  203MOL   H19945043   5.507   7.840   5.234 -1.2281  1.2588 -1.6832
  203MOL   C20045044   5.292   7.821   5.266 -0.5817  0.5722 -0.4997
  203MOL   C20145045   5.186   7.835   5.381  0.4403 -0.0342  0.8827
  203MOL   O20245046   5.146   7.734   5.442 -0.3915 -0.5974  0.2812
  203MOL   C20345047   5.137   0.132   5.408  0.6304  0.2604 -0.4528
  203MOL   C20445048   5.292   7.673   5.215  0.5498  0.0026  0.8397
  203MOL   H20545049   5.253   0.031   5.179 -0.2569  0.1285 -0.9105
  203MOL   H20645050   5.149   0.199   5.323  0.0795  1.0490  0.0827
  203MOL   H20745051   5.029   0.126   5.422  0.2637 -1.7650 -3.6587
  203MOL   H20845052   5.183   0.181   5.494  0.9472  1.6009 -1.3777
  203MOL   H20945053   5.306   7.602   5.297 -0.9390 -1.9141 -0.5148
  203MOL   H21045054   5.383   7.663   5.156  0.1168 -2.2306  0.5028
  203MOL   C21145055   5.160   7.627   5.146  0.0855 -0.0993  0.1340
  203MOL   C21245056   5.164   7.476   5.122 -0.7263  0.5930  0.2054
  203MOL   O21345057   5.099   7.394   5.190  0.0941 -0.2243  0.3383
  203MOL   C21445058   5.245   7.431   4.997  1.2352 -0.2159 -0.5668
  203MOL   C21545059   5.137   7.721   5.017  0.2880 -0.3564 -0.2255
  203MOL   H21645060   5.077   7.644   5.214  0.7303 -0.3586  0.9970
  203MOL   H21745061   5.196   7.469   4.907  0.3724  0.1227  0.0412
  203MOL   H21845062   5.347   7.468   5.003  0.8730  0.8748 -1.1140
  203MOL   H21945063   5.232   7.323   4.987 -0.9134 -0.1695  1.3652
  203MOL   H22045064   5.098   7.819   5.041  0.0643 -0.2606 -0.9718
  203MOL   H22145065   5.050   7.682   4.965  0.7359  0.5286 -1.6538
  203MOL   H22245066   5.223   7.731   4.951  0.4121 -0.9873 -0.1666
  204MOL     C145067   3.829   4.834   0.723  0.3471  0.1932 -0.0352
  204MOL     C245068   3.794   4.755   0.850 -0.1820 -0.4693 -0.5283
  204MOL     O345069   3.884   4.711   0.929 -0.0651 -0.5021 -0.0905
  204MOL     C445070   3.654   4.747   0.890  0.1345 -0.7632  0.2034
  204MOL     C545071   3.960   4.904   0.715 -0.5742 -1.1146  0.3338
  204MOL     H645072   3.821   4.764   0.640 -1.9363  0.3108  0.0582
  204MOL     H745073   3.595   4.839   0.888 -2.6994 -2.5167  1.3465
  204MOL     H845074   3.605   4.665   0.837 -0.8262  0.1004 -0.2777
  204MOL     H945075   3.648   4.711   0.992  0.0971 -1.8407 -0.1734
  204MOL    H1045076   3.959   4.962   0.808 -0.4652 -3.5811  1.9414
  204MOL    H1145077   3.952   4.965   0.626 -2.8722  0.7781  1.7716
  204MOL    H1245078   3.751   4.909   0.712 -0.7042 -0.8578  0.1012
  204MOL    C1345079   4.092   4.819   0.720  0.4747 -0.1822  0.1700
  204MOL    C1445080   4.213   4.919   0.721 -0.1257 -0.2557 -0.2684
  204MOL    O1545081   4.268   4.953   0.616  0.1733  0.1990  0.0805
  204MOL    C1645082   4.250   4.976   0.856 -0.2791  0.2093 -0.5029
  204MOL    C1745083   4.110   4.721   0.600  0.5275  0.1640 -0.6307
  204MOL    H1845084   4.094   4.768   0.817 -0.2528 -1.0712 -0.2771
  204MOL    H1945085   4.166   5.031   0.898  0.0711  0.1545  0.2794
  204MOL    H2045086   4.274   4.886   0.913  1.4061  0.2447 -1.1036
  204MOL    H2145087   4.343   5.033   0.857 -1.2938  1.8768  0.8633
  204MOL    H2245088   4.148   4.769   0.510  0.1374  1.1969 -0.2513
  204MOL    H2345089   4.010   4.692   0.569  0.1032  1.6518 -0.7135
  204MOL    C2445090   4.202   4.593   0.631  0.0161  0.5286  0.6068
  204MOL    C2545091   4.291   4.550   0.515 -0.0306  0.7397 -0.0439
  204MOL    O2645092   4.251   4.536   0.399  1.0438 -0.3235 -0.0478
  204MOL    C2745093   4.436   4.522   0.543  0.4098 -0.7177  0.0309
  204MOL    C2845094   4.124   4.482   0.694  0.1346  0.1587 -0.3247
  204MOL    H2945095   4.286   4.620   0.694 -0.9890  1.8740  1.4156
  204MOL    H3045096   4.483   4.614   0.510  0.7941  0.3408  3.3517
  204MOL    H3145097   4.458   4.499   0.647  0.3646  0.3160  0.2675
  204MOL    H3245098   4.476   4.439   0.484  0.5871 -1.2909  0.9511
  204MOL    H3345099   4.055   4.532   0.762  0.9040 -1.9916  2.1502
  204MOL    H3445100   4.191   4.426   0.760 -0.3501 -0.3737 -0.2882
  204MOL    C3545101   4.032   4.389   0.615  0.3723  0.2671 -0.1069
  204MOL    C3645102   3.909   4.448   0.546  0.2473 -0.1518  0.0512
  204MOL    O3745103   3.839   4.532   0.598  0.2948 -0.0338  0.4863
  204MOL    C3845104   3.888   4.405   0.402  0.2528 -0.0715  0.3266
  204MOL    C3945105   3.984   4.278   0.710 -0.3089  0.0041  0.1035
  204MOL    H4045106   4.088   4.349   0.531  1.6993  0.0207  0.8792
  204MOL    H4145107   3.787   4.365   0.392  0.0393  0.4505  0.4139
  204MOL    H4245108   3.896   4.489   0.332 -2.4130  0.1622  0.2579
  204MOL    H4345109   3.958   4.323   0.381  1.4444  1.4667 -1.9708
  204MOL    H4445110   3.884   4.255   0.674 -0.0395  1.6506 -1.8021
  204MOL    H4545111   3.975   4.318   0.811 -3.9058 -0.3862  0.0039
  204MOL    C4645112   4.078   4.154   0.710  0.5170 -0.0907  0.6155
  204MOL    C4745113   4.114   4.115   0.566  0.7370 -0.1794 -0.9625
  204MOL    O4845114   4.021   4.094   0.484  0.1030  0.2146 -0.5334
  204MOL    C4945115   4.263   4.103   0.530  0.6185  0.0736 -0.2949
  204MOL    C5045116   4.005   4.037   0.785  0.4131 -0.0473  0.1004
  204MOL    H5145117   4.172   4.176   0.760  1.9208  2.8143 -3.1192
  204MOL    H5245118   4.276   4.007   0.480  1.8107 -0.2122  0.5386
  204MOL    H5345119   4.291   4.185   0.463 -0.5210  0.7292  0.0227
  204MOL    H5445120   4.327   4.110   0.618 -0.7097 -0.0354  0.6904
  204MOL    H5545121   3.921   4.000   0.726  1.5390 -0.2066 -1.4509
  204MOL    H5645122   3.956   4.087   0.868  2.1123 -0.2534  1.2614
  204MOL    C5745123   4.083   3.920   0.836 -0.5923  0.6359 -0.0206
  204MOL    C5845124   4.185   3.960   0.938  0.7005  0.0610  0.5960
  204MOL    O5945125   4.298   3.986   0.902 -0.2330 -0.0078 -0.4761
  204MOL    C6045126   4.136   3.999   1.071  0.0020  0.1176 -0.1879
  204MOL    C6145127   4.141   3.818   0.729  0.0768  0.1215 -0.9236
  204MOL    H6245128   4.013   3.865   0.898  1.7813 -0.3130  1.8918
  204MOL    H6345129   4.208   4.073   1.107 -1.9655  1.6993  0.6307
  204MOL    H6445130   4.038   4.045   1.064  0.3334  0.9339  0.4293
  204MOL    H6545131   4.140   3.904   1.125  0.3330  0.1956 -0.0739
  204MOL    H6645132   4.238   3.775   0.755 -0.6959 -1.7425 -1.0360
  204MOL    H6745133   4.151   3.867   0.632  1.9398  2.4021  0.3707
  204MOL    C6845134   4.036   3.703   0.696  0.0221  0.0610  0.1544
  204MOL    C6945135   4.040   3.600   0.813  0.4137 -0.3386  0.1334
  204MOL    O7045136   4.144   3.565   0.872 -0.5755 -0.7732  0.1971
  204MOL    C7145137   3.910   3.544   0.860 -0.0025  0.1850 -0.3894
  204MOL    C7245138   4.048   3.632   0.555  0.4320 -0.1789 -0.6817
  204MOL    H7345139   3.939   3.751   0.708 -0.1505 -0.2806  0.1366
  204MOL    H7445140   3.911   3.564   0.968 -1.3390  0.2832 -0.3813
  204MOL    H7545141   3.819   3.590   0.822  0.9328  1.6532 -0.8566
  204MOL    H7645142   3.906   3.435   0.865  0.6656  0.2323  1.7791
  204MOL    H7745143   4.080   3.528   0.568  0.3306 -0.3691 -1.8881
  204MOL    H7845144   4.135   3.670   0.501 -0.5699  1.5181 -1.1379
  204MOL    C7945145   3.914   3.643   0.471  0.1563  0.4994 -0.3986
  204MOL    C8045146   3.923   3.547   0.350  0.5886  0.0795 -0.4888
  204MOL    O8145147   3.946   3.588   0.237  0.1648  0.1837 -0.3597
  204MOL    C8245148   3.886   3.403   0.372  0.4995 -0.0670 -0.0969
  204MOL    C8345149   3.889   3.787   0.432 -0.5492 -0.2382  0.0152
  204MOL    H8445150   3.832   3.603   0.531  0.8545 -0.8463 -0.3259
  204MOL    H8545151   3.880   3.380   0.478 -1.2635 -0.2853 -0.2260
  204MOL    H8645152   3.782   3.388   0.341 -0.1311  0.7046  1.5719
  204MOL    H8745153   3.954   3.334   0.322 -1.2286 -2.3151  0.5612
  204MOL    H8845154   3.964   3.827   0.363 -0.5882  0.2488  0.2525
  204MOL    H8945155   3.903   3.844   0.524  2.5923 -1.3167  0.2748
  204MOL    C9045156   3.744   3.817   0.384 -1.0988  0.0539 -0.0867
  204MOL    C9145157   3.720   3.803   0.230  0.3643 -0.9775 -0.3865
  204MOL    O9245158   3.608   3.769   0.187 -0.2593 -0.0266  0.5782
  204MOL    C9345159   3.823   3.848   0.137  0.5684 -1.0246  0.4451
  204MOL    C9445160   3.696   3.959   0.435 -0.0409  0.6392 -0.3160
  204MOL    H9545161   3.681   3.747   0.438  0.3029 -0.9518  0.2879
  204MOL    H9645162   3.923   3.805   0.144  0.3907 -1.6755 -0.7298
  204MOL    H9745163   3.778   3.808   0.046 -0.8952 -0.8721  1.0806
  204MOL    H9845164   3.831   3.957   0.132  2.5266 -1.1260  0.9363
  204MOL    H9945165   3.654   4.010   0.349 -1.5786 -1.1817 -0.6764
  204MOL   H10045166   3.782   4.018   0.467  2.6267 -1.3992 -3.3954
  204MOL   C10145167   3.582   3.950   0.544 -0.2637  0.1211 -0.3225
  204MOL   C10245168   3.643   3.891   0.666 -0.1993  0.1299  0.2000
  204MOL   O10345169   3.685   3.779   0.663  0.1114 -0.1727  0.1995
  204MOL   C10445170   3.669   3.970   0.799 -0.2296 -0.3464  0.2450
  204MOL   C10545171   3.445   3.899   0.500 -0.1946 -0.1099  0.0842
  204MOL   H10645172   3.571   4.058   0.557  3.9069  0.7813 -1.6866
  204MOL   H10745173   3.582   4.030   0.826 -1.3297 -1.9899  0.4421
  204MOL   H10845174   3.701   3.903   0.878 -0.3082 -0.5681  0.0899
  204MOL   H10945175   3.738   4.049   0.771 -0.2423 -0.5616 -0.4050
  204MOL   H11045176   3.416   3.810   0.557 -1.6572 -0.4652 -1.1702
  204MOL   H11145177   3.454   3.837   0.411  2.4161 -1.1551  1.0328
  204MOL   C11245178   3.331   3.996   0.484  0.5207 -0.6505  0.3785
  204MOL   C11345179   3.301   4.096   0.597  0.3467 -0.9363  0.2978
  204MOL   O11445180   3.348   4.085   0.710  0.2008  0.9259 -0.7894
  204MOL   C11545181   3.216   4.215   0.556  0.0715  0.0393  0.7390
  204MOL   C11645182   3.207   3.927   0.428  0.4956 -0.6957  0.7084
  204MOL   H11745183   3.357   4.057   0.398 -0.2011  0.4151  0.8989
  204MOL   H11845184   3.235   4.304   0.616  2.4946 -0.8481  1.3420
  204MOL   H11945185   3.244   4.242   0.454 -0.7619 -0.0080  0.4982
  204MOL   H12045186   3.115   4.175   0.555  0.5967 -1.3922  2.2766
  204MOL   H12145187   3.241   3.890   0.331  0.4463  1.8456 -0.3125
  204MOL   H12245188   3.131   3.997   0.393  1.6381 -0.7132 -1.9106
  204MOL   C12345189   3.128   3.825   0.519 -0.9150  0.3635  0.0362
  204MOL   C12445190   3.101   3.699   0.430  0.0243 -0.7348 -0.0122
  204MOL   O12545191   2.996   3.695   0.367  0.7334  0.7145 -0.1638
  204MOL   C12645192   3.201   3.582   0.426 -0.1524 -0.1455  0.2420
  204MOL   C12745193   3.005   3.890   0.579  0.4052  0.4221  0.8135
  204MOL   H12845194   3.195   3.795   0.599  0.8987 -1.8984 -2.2355
  204MOL   H12945195   3.154   3.494   0.382 -0.2324  1.0309 -2.0694
  204MOL   H13045196   3.300   3.609   0.389 -0.3757  1.8244  1.0559
  204MOL   H13145197   3.213   3.539   0.526  0.4940 -2.7670 -0.9203
  204MOL   H13245198   2.932   3.911   0.500  0.9568 -0.4848  0.0457
  204MOL   H13345199   3.046   3.986   0.610  1.1463  0.6860 -0.8930
  204MOL   C13445200   2.944   3.822   0.702 -0.3699 -0.4823  0.4816
  204MOL   C13545201   2.850   3.705   0.660 -0.5257 -0.3872  0.3090
  204MOL   O13645202   2.737   3.724   0.616  0.2346 -0.0135 -0.0274
  204MOL   C13745203   2.910   3.570   0.651  0.0803  0.0133 -0.7125
  204MOL   C13845204   2.858   3.911   0.804  0.0187  0.4588  0.1071
  204MOL   H13945205   3.026   3.789   0.765  0.4456  0.8969  0.1690
  204MOL   H14045206   2.852   3.509   0.720 -0.5437  3.2511  1.7164
  204MOL   H14145207   2.897   3.535   0.548  1.0370 -1.1340 -0.4654
  204MOL   H14245208   3.015   3.564   0.678  0.0435  1.2718 -0.2619
  204MOL   H14345209   2.796   3.853   0.873  0.0303 -0.5336 -0.7039
  204MOL   H14445210   2.777   3.962   0.751 -3.0562 -1.7529  2.4855
  204MOL   C14545211   2.937   4.015   0.893  0.1404  0.1220  0.0921
  204MOL   C14645212   3.037   3.941   0.986 -0.6429 -0.3988 -0.2777
  204MOL   O14745213   2.999   3.918   1.101 -0.2232  0.7007  0.3733
  204MOL   C14845214   3.173   3.894   0.933 -0.2185 -0.4292  0.1297
  204MOL   C14945215   2.836   4.125   0.952  0.0751 -0.1495 -0.4333
  204MOL   H15045216   3.001   4.066   0.821 -0.5249 -0.4504 -0.9139
  204MOL   H15145217   3.256   3.942   0.985  0.2273 -1.0138 -0.0439
  204MOL   H15245218   3.178   3.789   0.960 -0.2647 -0.1128  1.3881
  204MOL   H15345219   3.191   3.900   0.826 -0.6132 -0.6523  0.0507
  204MOL   H15445220   2.824   4.109   1.060  2.2458  0.9389 -0.0115
  204MOL   H15545221   2.742   4.104   0.900  0.1275  1.7885 -1.3275
  204MOL   C15645222   2.871   4.266   0.930  0.1956 -0.0796 -0.1117
  204MOL   C15745223   2.849   4.295   0.778  0.2629 -0.4912 -0.5236
  204MOL   O15845224   2.938   4.316   0.697 -0.5155 -0.4092 -0.1794
  204MOL   C15945225   2.704   4.321   0.749  0.3727 -0.3136 -0.0125
  204MOL   C16045226   3.015   4.294   0.988  0.4652 -0.2554  0.5991
  204MOL   H16145227   2.804   4.333   0.985  1.1022  0.3049  0.5295
  204MOL   H16245228   2.622   4.262   0.792  0.6037  0.5774  1.6592
  204MOL   H16345229   2.677   4.425   0.762 -0.6529 -0.9174  3.1388
  204MOL   H16445230   2.701   4.307   0.641 -0.5521 -1.2758  0.1206
  204MOL   H16545231   3.089   4.218   0.961  1.2376  0.2613  1.2216
  204MOL   H16645232   3.017   4.278   1.096 -0.3675  0.5713  0.7381
  204MOL   C16745233   3.079   4.435   0.970  0.3897 -0.1056 -0.2101
  204MOL   C16845234   3.228   4.444   1.019 -0.0971  0.0079  0.1899
  204MOL   O16945235   3.259   4.511   1.120 -0.2125 -0.3176  0.2180
  204MOL   C17045236   3.329   4.363   0.944  0.1732  0.2385  0.2267
  204MOL   C17145237   2.984   4.541   1.038  0.2417 -0.1795 -0.7905
  204MOL   H17245238   3.074   4.456   0.864 -2.8386 -1.5640 -0.4043
  204MOL   H17345239   3.321   4.356   0.835  2.4685  0.4253  0.0102
  204MOL   H17445240   3.427   4.410   0.953  0.5944 -0.9593  2.1489
  204MOL   H17545241   3.332   4.266   0.994 -0.6669  0.7255  1.2250
  204MOL   H17645242   2.982   4.523   1.146 -1.1455  1.6538 -0.4991
  204MOL   H17745243   2.881   4.524   1.007  0.0978  1.4486 -1.2422
  204MOL   C17845244   3.021   4.685   1.004 -0.6658 -0.1857  0.0712
  204MOL   C17945245   3.012   4.781   1.122  0.3374  0.2488  1.1435
  204MOL   O18045246   2.912   4.779   1.187 -0.3369 -0.5740 -0.4151
  204MOL   C18145247   3.118   4.889   1.140 -0.2270 -0.0270 -0.6122
  204MOL   C18245248   2.955   4.739   0.870  0.1055  0.4585  0.0186
  204MOL   H18345249   3.129   4.693   0.993 -0.7884  1.9910  0.0852
  204MOL   H18445250   3.221   4.857   1.121  0.9292  1.8642  2.2625
  204MOL   H18545251   3.109   4.966   1.063 -0.1418  0.2762 -0.3159
  204MOL   H18645252   3.102   4.944   1.233 -0.3193 -0.1246 -0.5713
  204MOL   H18745253   2.969   4.847   0.867 -1.4297  0.6882  0.3500
  204MOL   H18845254   2.847   4.725   0.868  0.0557  0.8351 -0.0225
  204MOL   C18945255   3.009   4.681   0.731  0.4590 -0.3685 -0.2103
  204MOL   C19045256   3.158   4.707   0.703 -0.2182  0.8841 -0.4495
  204MOL   O19145257   3.245   4.615   0.703 -0.1931 -0.2668 -0.5961
  204MOL   C19245258   3.216   4.846   0.702 -0.3057 -0.4657 -0.0777
  204MOL   C19345259   2.919   4.733   0.615  0.3967  0.1882 -0.3572
  204MOL   H19445260   2.997   4.572   0.730  2.4547 -0.6024 -0.8096
  204MOL   H19545261   3.204   4.871   0.597  0.4748 -0.2475 -0.1152
  204MOL   H19645262   3.145   4.910   0.756 -0.8003 -0.3001 -0.9109
  204MOL   H19745263   3.320   4.859   0.730 -0.0856 -0.4388 -0.9053
  204MOL   H19845264   2.919   4.842   0.613 -1.0132  0.2178  0.8388
  204MOL   H19945265   2.821   4.700   0.648  2.0507 -1.4332  3.1342
  204MOL   C20045266   2.949   4.671   0.474  0.0549 -0.1407 -0.3156
  204MOL   C20145267   3.000   4.764   0.366 -0.2521  0.3387  0.4815
  204MOL   O20245268   3.121   4.765   0.334 -0.1602 -0.0933  0.3356
  204MOL   C20345269   2.911   4.873   0.313  0.0101 -0.3648 -0.0749
  204MOL   C20445270   2.835   4.569   0.432  0.1013  0.0748 -0.1597
  204MOL   H20545271   3.029   4.598   0.485 -0.5379 -0.5752  1.2742
  204MOL   H20645272   2.940   4.966   0.362 -2.1677  0.7870 -0.9125
  204MOL   H20745273   2.924   4.868   0.204  2.6514 -0.1722  0.1936
  204MOL   H20845274   2.805   4.855   0.330 -0.0069  2.3006  2.9198
  204MOL   H20945275   2.747   4.625   0.398 -0.2714  0.1777  0.9463
  204MOL   H21045276   2.821   4.527   0.532  2.3498  1.0109  0.5780
  204MOL   C21145277   2.874   4.454   0.330 -0.0910  0.0683  0.5648
  204MOL   C21245278   2.890   4.505   0.184  0.1875 -0.1266  0.3375
  204MOL   O21345279   2.824   4.600   0.132 -0.2943 -0.3154 -0.0505
  204MOL   C21445280   2.981   4.422   0.100  0.6518 -0.3328 -0.2742
  204MOL   C21545281   2.756   4.358   0.311 -0.3817  0.3167 -0.5063
  204MOL   H21645282   2.960   4.395   0.360  0.7276  0.7605 -0.3619
  204MOL   H21745283   3.043   4.359   0.163  0.4788 -0.6975 -0.4684
  204MOL   H21845284   2.925   4.350   0.041 -0.3711 -0.1278  0.4259
  204MOL   H21945285   3.031   4.481   0.022 -1.5691  2.2681  0.1816
  204MOL   H22045286   2.663   4.410   0.289 -1.2731 -0.5997  1.0874
  204MOL   H22145287   2.732   4.308   0.404 -2.3254  1.4213 -0.3914
  204MOL   H22245288   2.779   4.282   0.236 -2.1610 -1.8971  1.1400
  205MOL     C145289   1.026   4.405   2.605  0.0087  0.0425  0.1242
  205MOL     C245290   0.947   4.528   2.563 -0.0466 -0.7567  0.0451
  205MOL     O345291   0.836   4.517   2.513 -0.0330  0.2371  0.4296
  205MOL     C445292   1.015   4.662   2.580  0.3259  0.3523 -0.0356
  205MOL     C545293   1.121   4.367   2.488  0.2785  0.3148 -0.2277
  205MOL     H645294   1.084   4.431   2.693 -0.1313 -0.9377  0.5112
  205MOL     H745295   1.117   4.651   2.618 -0.1485  0.1564  1.2052
  205MOL     H845296   1.033   4.722   2.491  3.4070 -0.4875 -0.0556
  205MOL     H945297   0.959   4.723   2.651  1.9457  0.3964  1.2285
  205MOL    H1045298   1.172   4.455   2.448 -3.5086  2.4783 -0.5864
  205MOL    H1145299   1.059   4.337   2.403  0.9963 -1.3263 -0.1903
  205MOL    H1245300   0.962   4.317   2.612 -2.0660  1.3786 -1.4994
  205MOL    C1345301   1.220   4.246   2.522 -0.2570 -0.4026  0.1054
  205MOL    C1445302   1.313   4.277   2.641  0.7861 -0.2865  0.0967
  205MOL    O1545303   1.334   4.390   2.685  0.0699 -0.2161 -0.4191
  205MOL    C1645304   1.381   4.164   2.706  0.5072 -0.3342 -0.0965
  205MOL    C1745305   1.307   4.215   2.388  0.3304 -0.2476  0.7476
  205MOL    H1845306   1.160   4.161   2.552 -2.5112  0.3955 -2.0302
  205MOL    H1945307   1.341   4.064   2.685 -2.3261  0.4638  1.3246
  205MOL    H2045308   1.479   4.165   2.659  1.4834  0.5637  1.9150
  205MOL    H2145309   1.405   4.184   2.810 -1.5357 -0.0438  0.3350
  205MOL    H2245310   1.405   4.182   2.423  1.0556  0.6667 -0.3956
  205MOL    H2345311   1.334   4.304   2.331 -0.3756  0.0205  0.8321
  205MOL    C2445312   1.252   4.090   2.303 -0.6346  0.1675 -0.0119
  205MOL    C2545313   1.281   3.952   2.370  0.0232 -0.2706 -0.2356
  205MOL    O2645314   1.361   3.943   2.463  0.6484  0.3333 -0.2780
  205MOL    C2745315   1.209   3.826   2.329  0.4743 -0.7084 -0.5281
  205MOL    C2845316   1.282   4.081   2.153 -0.0824  0.2145 -0.4211
  205MOL    H2945317   1.144   4.104   2.310 -0.4217  1.3530  1.0154
  205MOL    H3045318   1.280   3.754   2.288  0.7406 -1.0034  0.4219
  205MOL    H3145319   1.172   3.787   2.424  0.1726 -0.0457 -0.3679
  205MOL    H3245320   1.122   3.851   2.269  0.3581  0.8241  0.2610
  205MOL    H3345321   1.275   4.178   2.105 -1.0500 -0.1339 -1.0182
  205MOL    H3445322   1.212   4.016   2.101 -0.1330  0.9190 -1.2408
  205MOL    C3545323   1.417   4.019   2.107 -0.3942  0.2441  0.0023
  205MOL    C3645324   1.541   4.098   2.164  0.0414 -0.1141  0.8834
  205MOL    O3745325   1.573   4.199   2.107  0.3520 -0.2689  0.0888
  205MOL    C3845326   1.627   4.047   2.285  0.0318  0.7653 -0.4376
  205MOL    C3945327   1.428   4.022   1.954  0.8173 -1.1198 -0.3450
  205MOL    H4045328   1.431   3.916   2.140 -0.3137  0.8948  2.0411
  205MOL    H4145329   1.560   4.036   2.370  0.7007  2.8889  0.4058
  205MOL    H4245330   1.689   3.959   2.267 -1.2229 -0.4154  0.9680
  205MOL    H4345331   1.696   4.123   2.321  0.1676  1.1544 -1.5137
  205MOL    H4445332   1.524   3.980   1.924 -0.0679 -2.5041 -1.2917
  205MOL    H4545333   1.430   4.121   1.908 -1.2951 -0.5511  0.7386
  205MOL    C4645334   1.317   3.945   1.875  0.0942  0.2719 -0.4052
  205MOL    C4745335   1.306   3.803   1.928 -0.1410 -0.3952  0.2474
  205MOL    O4845336   1.217   3.775   2.008 -0.9539 -0.3155 -0.3965
  205MOL    C4945337   1.412   3.711   1.898 -0.1105 -0.0160 -0.0351
  205MOL    C5045338   1.343   3.955   1.726 -0.2423  0.2169  0.3747
  205MOL    H5145339   1.224   3.991   1.906  0.0259 -0.3664  0.3371
  205MOL    H5245340   1.513   3.753   1.897 -0.5844  1.1237 -1.1416
  205MOL    H5345341   1.407   3.640   1.981  2.9941 -1.6520 -1.1676
  205MOL    H5445342   1.383   3.659   1.807 -1.6423 -0.4295  0.6790
  205MOL    H5545343   1.441   3.914   1.703  0.1933  1.3488  0.1732
  205MOL    H5645344   1.358   4.057   1.691  1.5953 -0.0712  0.2562
  205MOL    C5745345   1.250   3.867   1.637 -0.0446 -0.3614  0.3651
  205MOL    C5845346   1.307   3.876   1.496 -0.1849  0.1668 -0.5763
  205MOL    O5945347   1.318   3.986   1.440  0.1622  0.1237 -0.7873
  205MOL    C6045348   1.343   3.750   1.422  0.0502  0.5862  0.6115
  205MOL    C6145349   1.096   3.895   1.649  0.6291 -0.5748  0.1887
  205MOL    H6245350   1.258   3.762   1.664 -0.0315 -0.3813  0.2872
  205MOL    H6345351   1.343   3.665   1.490  0.1294 -0.4159 -0.6060
  205MOL    H6445352   1.280   3.729   1.335 -0.6435 -0.2815  1.3156
  205MOL    H6545353   1.446   3.747   1.386 -1.0775  1.0041 -2.8474
  205MOL    H6645354   1.055   3.864   1.745 -3.7677  1.9848 -0.7607
  205MOL    H6745355   1.043   3.830   1.579  1.9810 -1.6266  0.0937
  205MOL    C6845356   1.060   4.045   1.612  0.3788 -0.4560  0.2889
  205MOL    C6945357   1.076   4.150   1.720 -0.1772  0.4745  0.4323
  205MOL    O7045358   1.031   4.128   1.834 -0.0580 -0.6049 -0.5614
  205MOL    C7145359   1.141   4.293   1.683  0.0469 -0.4058  0.4188
  205MOL    C7245360   0.922   4.058   1.549  0.3929  0.2258 -0.4604
  205MOL    H7345361   1.128   4.073   1.531  1.4510 -2.3388  0.4999
  205MOL    H7445362   1.200   4.275   1.593  1.4737  0.1340  1.2356
  205MOL    H7545363   1.069   4.367   1.648  0.6511 -0.1724 -0.3455
  205MOL    H7645364   1.201   4.333   1.764  0.3367  0.9115 -0.4290
  205MOL    H7745365   0.883   4.155   1.576 -1.9739 -0.3933 -1.5508
  205MOL    H7845366   0.854   3.985   1.593 -1.9749  2.2605 -0.6891
  205MOL    C7945367   0.923   4.054   1.389  0.1033  0.0340 -0.0631
  205MOL    C8045368   0.984   4.185   1.339  0.0229  0.0692  0.2046
  205MOL    O8145369   0.940   4.296   1.364  0.9443  0.2417 -0.2154
  205MOL    C8245370   1.106   4.182   1.255 -0.4107 -0.1921  0.0677
  205MOL    C8345371   0.776   4.049   1.335 -0.1274  0.4099 -0.1789
  205MOL    H8445372   0.978   3.975   1.337 -1.4333 -0.7677 -0.4945
  205MOL    H8545373   1.128   4.079   1.226  1.2121  0.9111 -2.8098
  205MOL    H8645374   1.087   4.242   1.166 -0.8011 -1.3058 -0.6108
  205MOL    H8745375   1.191   4.226   1.306 -1.2050  0.5601  0.7627
  205MOL    H8845376   0.771   4.096   1.237 -1.1524  0.2571 -0.1990
  205MOL    H8945377   0.712   4.108   1.400 -1.6782 -1.5134  0.0856
  205MOL    C9045378   0.723   3.895   1.340 -0.1517 -0.2256  0.3930
  205MOL    C9145379   0.824   3.800   1.276  0.2194  0.0558  0.0117
  205MOL    O9245380   0.883   3.722   1.348 -0.3045 -0.8100  0.0588
  205MOL    C9345381   0.852   3.812   1.127 -0.0330 -0.2121  0.0214
  205MOL    C9445382   0.585   3.894   1.268  0.4094 -0.1416  0.1173
  205MOL    H9545383   0.705   3.862   1.442 -0.5318  0.4355  0.5470
  205MOL    H9645384   0.958   3.836   1.120  0.2690 -1.5048 -0.0151
  205MOL    H9745385   0.835   3.712   1.086 -0.9668 -0.6777  1.5356
  205MOL    H9845386   0.794   3.887   1.075  1.2165  1.7070  1.3481
  205MOL    H9945387   0.575   3.788   1.245  1.0620 -0.4583  1.2630
  205MOL   H10045388   0.599   3.941   1.171 -0.1376  0.8920  0.5272
  205MOL   C10145389   0.478   3.966   1.350 -0.0369  0.6698  0.0713
  205MOL   C10245390   0.433   3.881   1.466 -0.2570 -0.1631  0.6180
  205MOL   O10345391   0.450   3.756   1.461  0.0507  0.4177  0.0816
  205MOL   C10445392   0.401   3.949   1.597 -0.5770  0.1914 -0.0131
  205MOL   C10545393   0.367   4.021   1.251  0.0688 -0.7296  0.0128
  205MOL   H10645394   0.536   4.045   1.399  0.2838 -0.9661  2.3940
  205MOL   H10745395   0.488   3.954   1.662 -0.3620 -2.9493  0.0133
  205MOL   H10845396   0.367   4.053   1.589 -0.9538 -0.0084 -1.1884
  205MOL   H10945397   0.327   3.878   1.634  1.2393 -1.2194  0.9553
  205MOL   H11045398   0.297   3.939   1.236 -0.6810  0.0347 -0.7504
  205MOL   H11145399   0.413   4.047   1.155 -2.3764  1.0526 -0.7327
  205MOL   C11245400   0.283   4.140   1.298  0.0004  0.5930 -0.2435
  205MOL   C11345401   0.142   4.146   1.231 -0.0077  0.1297 -0.2222
  205MOL   O11445402   0.142   4.139   1.107 -0.3567 -0.0363  0.2182
  205MOL   C11545403   0.020   4.198   1.302 -0.2957  0.0438  0.2261
  205MOL   C11645404   0.355   4.278   1.331  0.5055 -0.2522  0.0151
  205MOL   H11745405   0.240   4.104   1.392 -0.3375  0.0205 -0.6143
  205MOL   H11845406   0.013   4.130   1.386 -1.4279  0.4465  0.4664
  205MOL   H11945407   0.032   4.302   1.333 -1.3264  0.6109 -1.1945
  205MOL   H12045408   7.768   4.203   1.246  0.8445  0.9601 -1.6725
  205MOL   H12145409   0.453   4.265   1.378 -0.8253  0.0728  2.9808
  205MOL   H12245410   0.283   4.316   1.403 -0.4873 -0.6518 -0.7544
  205MOL   C12345411   0.383   4.376   1.211  0.6503 -0.5429  0.4863
  205MOL   C12445412   0.483   4.312   1.107  0.0289  0.0016 -0.3015
  205MOL   O12545413   0.600   4.282   1.136  0.3485 -0.1225  0.0267
  205MOL   C12645414   0.435   4.297   0.965  0.1487  0.0619 -0.1211
  205MOL   C12745415   0.422   4.515   1.264  0.3636  0.0359  0.5830
  205MOL   H12845416   0.289   4.381   1.156  1.1653 -0.1039 -0.3653
  205MOL   H12945417   0.368   4.380   0.942  1.5045  1.3391  0.4424
  205MOL   H13045418   0.515   4.310   0.892 -0.5626 -1.6186 -1.2399
  205MOL   H13145419   0.381   4.203   0.952  1.6047 -0.9650  0.9966
  205MOL   H13245420   0.528   4.535   1.248  1.3466 -0.8425  5.2210
  205MOL   H13345421   0.417   4.524   1.373 -0.9794  0.9275  0.4642
  205MOL   C13445422   0.335   4.640   1.212 -0.3672  0.5072  0.5020
  205MOL   C13545423   0.343   4.663   1.064  0.6326 -0.3373  0.1952
  205MOL   O13645424   0.433   4.615   0.996 -0.0176  0.1333 -0.4427
  205MOL   C13745425   0.239   4.748   1.005  0.0542  0.1225  0.0983
  205MOL   C13845426   0.387   4.769   1.280  0.0778  0.1776 -0.3201
  205MOL   H13945427   0.229   4.628   1.234 -0.3082  0.6482  0.8666
  205MOL   H14045428   0.149   4.748   1.066 -0.6816 -4.3162 -0.8415
  205MOL   H14145429   0.275   4.851   1.003 -0.5354  0.3572  0.9849
  205MOL   H14245430   0.207   4.711   0.908 -0.8188 -0.4876  0.6159
  205MOL   H14345431   0.388   4.861   1.222 -0.0454  1.3305  1.4924
  205MOL   H14445432   0.489   4.747   1.311 -0.2827 -1.1053 -0.0152
  205MOL   C14545433   0.310   4.819   1.400  0.7399 -0.1720  0.5499
  205MOL   C14645434   0.188   4.911   1.373 -0.4234  0.5086  0.2280
  205MOL   O14745435   0.171   4.955   1.258 -0.3429  0.4637 -0.0211
  205MOL   C14845436   0.077   4.927   1.475 -0.1723 -0.3436  0.7619
  205MOL   C14945437   0.407   4.894   1.499  0.1218  0.3252  0.3396
  205MOL   H15045438   0.268   4.739   1.460  0.7800 -0.1727  0.5757
  205MOL   H15145439   0.070   4.836   1.534  0.4467 -0.2679  0.9523
  205MOL   H15245440   0.100   5.012   1.539 -2.6546 -1.1988  2.8512
  205MOL   H15345441   7.824   4.954   1.430  0.7239  1.3109 -0.1598
  205MOL   H15445442   0.359   4.970   1.560 -0.9863 -0.9207  1.0477
  205MOL   H15545443   0.491   4.936   1.443 -1.7551 -1.4586 -4.0535
  205MOL   C15645444   0.469   4.805   1.610  0.2989  0.2555  0.1728
  205MOL   C15745445   0.377   4.749   1.715 -0.2165  0.0595 -0.2628
  205MOL   O15845446   0.264   4.795   1.718  0.5322  0.1047 -0.4483
  205MOL   C15945447   0.422   4.639   1.814  0.2687 -0.7212  0.1220
  205MOL   C16045448   0.596   4.875   1.667 -0.2091  0.7815  0.3677
  205MOL   H16145449   0.507   4.721   1.552  1.4647  0.0310  1.2486
  205MOL   H16245450   0.498   4.577   1.767  0.2403  0.0172 -0.9238
  205MOL   H16345451   0.454   4.681   1.909 -1.0332 -0.3220  0.4035
  205MOL   H16445452   0.332   4.579   1.828  0.5761 -1.2037  0.0418
  205MOL   H16545453   0.606   4.842   1.770 -0.5963 -1.8455 -0.4122
  205MOL   H16645454   0.583   4.983   1.662 -0.5172  0.8190  1.8321
  205MOL   C16745455   0.730   4.851   1.580 -0.2645  0.9297 -0.4516
  205MOL   C16845456   0.799   4.717   1.619  0.2944  0.8160 -0.2751
  205MOL   O16945457   0.889   4.709   1.700 -0.0396  0.4061  0.0191
  205MOL   C17045458   0.733   4.592   1.555  0.1768  0.4548 -0.3559
  205MOL   C17145459   0.832   4.968   1.573  0.7614  0.2463 -0.4541
  205MOL   H17245460   0.701   4.819   1.480 -0.6243  0.4773 -0.2078
  205MOL   H17345461   0.707   4.593   1.449  0.8525 -0.8926 -0.5424
  205MOL   H17445462   0.792   4.503   1.575 -0.0720  0.4268  0.2804
  205MOL   H17545463   0.634   4.571   1.594 -0.6427 -1.6322 -3.3640
  205MOL   H17645464   0.775   5.049   1.527  1.6704  2.0171  1.4944
  205MOL   H17745465   0.904   4.926   1.503  0.7653 -2.3614  1.0372
  205MOL   C17845466   0.914   5.025   1.695 -0.0260  0.2477 -0.0088
  205MOL   C17945467   0.827   5.116   1.781 -0.5349 -0.4682  0.6425
  205MOL   O18045468   0.734   5.186   1.734  0.3761 -0.7259  0.6305
  205MOL   C18145469   0.851   5.137   1.933  0.1578 -0.7298 -0.4672
  205MOL   C18245470   1.028   5.117   1.639  0.3536 -0.2132  0.3514
  205MOL   H18345471   0.958   4.951   1.761  2.9726  1.0339 -1.0468
  205MOL   H18445472   0.789   5.064   1.984 -2.1221  0.0818 -2.0151
  205MOL   H18545473   0.956   5.134   1.964  0.4490 -1.6602 -1.5060
  205MOL   H18645474   0.812   5.235   1.959 -3.3253 -2.2292  0.1867
  205MOL   H18745475   1.047   5.185   1.722 -0.0048 -1.0909  1.1723
  205MOL   H18845476   1.001   5.173   1.549  1.1834  0.5223  0.5537
  205MOL   C18945477   1.159   5.038   1.596 -0.0532 -0.0142  0.4401
  205MOL   C19045478   1.236   4.971   1.710 -0.0183  0.4367 -0.2250
  205MOL   O19145479   1.250   5.035   1.806  0.4273 -0.5240 -0.0612
  205MOL   C19245480   1.276   4.825   1.701 -0.9772  0.4892  0.0911
  205MOL   C19345481   1.250   5.120   1.502  0.0929  0.1461  0.3008
  205MOL   H19445482   1.133   4.952   1.535 -0.3496  0.4487 -0.0936
  205MOL   H19545483   1.378   4.821   1.738 -1.0783 -2.3079  0.1183
  205MOL   H19645484   1.207   4.765   1.761 -0.1966  0.0493  0.5543
  205MOL   H19745485   1.292   4.797   1.598  0.9674 -1.9866  1.0357
  205MOL   H19845486   1.180   5.171   1.436  0.3829 -2.2136 -1.9103
  205MOL   H19945487   1.304   5.044   1.446  1.9426  0.7974  1.1340
  205MOL   C20045488   1.357   5.211   1.560  0.0560 -0.1043 -0.0126
  205MOL   C20145489   1.300   5.333   1.628 -0.1025 -0.1196 -0.4190
  205MOL   O20245490   1.208   5.395   1.574 -0.0502 -0.0311 -0.3241
  205MOL   C20345491   1.347   5.359   1.769  0.8558 -0.5389  0.0496
  205MOL   C20445492   1.443   5.266   1.441  0.0771  0.7254 -0.2400
  205MOL   H20545493   1.420   5.154   1.628 -0.1930  0.9147  1.0880
  205MOL   H20645494   1.455   5.351   1.755  0.8016 -3.9764  1.0828
  205MOL   H20745495   1.341   5.464   1.796 -0.8816 -0.8993  1.2028
  205MOL   H20845496   1.309   5.291   1.845 -1.1834  0.7195  0.1951
  205MOL   H20945497   1.380   5.313   1.366  0.6465  3.1432  0.7420
  205MOL   H21045498   1.483   5.175   1.397 -2.5172  0.2368 -1.6925
  205MOL   C21145499   1.559   5.363   1.486  1.3039  0.0086 -0.0181
  205MOL   C21245500   1.621   5.424   1.364  0.1697  0.8020 -0.2405
  205MOL   O21345501   1.604   5.381   1.250 -0.5203  0.0103 -0.5199
  205MOL   C21445502   1.693   5.557   1.382 -0.3229  0.1777  0.6116
  205MOL   C21545503   1.675   5.298   1.571 -0.0219  0.9339  0.0563
  205MOL   H21645504   1.523   5.453   1.536  0.4446  0.2571 -1.0510
  205MOL   H21745505   1.720   5.584   1.484 -2.5657  0.8464  1.0488
  205MOL   H21845506   1.786   5.545   1.325  0.2199  1.1781  1.2821
  205MOL   H21945507   1.647   5.645   1.336  1.6819  1.0785  0.2590
  205MOL   H22045508   1.634   5.265   1.666 -1.6258 -1.6267 -1.4637
  205MOL   H22145509   1.767   5.356   1.579 -1.2270  2.9189 -0.0182
  205MOL   H22245510   1.712   5.212   1.515 -0.8068  0.5451  0.1274
  206MOL     C145511   0.370   7.431   3.905  0.4805  0.0321 -0.2480
  206MOL     C245512   0.511   7.373   3.870 -0.3363  0.2759  0.0619
  206MOL     O345513   0.586   7.336   3.961 -0.0762 -0.2008  0.4299
  206MOL     C445514   0.553   7.366   3.720 -0.2200  0.1757  0.1623
  206MOL     C545515   0.288   7.388   4.026 -0.6326 -1.0497  0.5760
  206MOL     H645516   0.391   7.537   3.922 -1.3732  0.5654 -1.1184
  206MOL     H745517   0.625   7.287   3.699 -0.7566  0.1837 -1.7781
  206MOL     H845518   0.464   7.351   3.659 -0.3102  2.4048 -0.2914
  206MOL     H945519   0.598   7.463   3.699  2.7068 -1.1447  0.0971
  206MOL    H1045520   0.206   7.457   4.042  1.0716  0.8466  1.3335
  206MOL    H1145521   0.347   7.393   4.117  2.4959 -1.7673 -1.3286
  206MOL    H1245522   0.310   7.420   3.815  0.1020 -4.0399  0.4492
  206MOL    C1345523   0.225   7.247   4.011 -0.3018  0.5930  0.2280
  206MOL    C1445524   0.309   7.119   4.042 -0.3800  0.2453 -1.0352
  206MOL    O1545525   0.349   7.046   3.956  0.8216  0.0409  0.2147
  206MOL    C1645526   0.340   7.096   4.192  0.3399 -0.9435 -0.4099
  206MOL    C1745527   0.142   7.229   3.885 -0.2970  0.6309 -0.4410
  206MOL    H1845528   0.145   7.253   4.084 -0.2906  2.3359  0.1348
  206MOL    H1945529   0.414   7.017   4.199 -0.8555 -2.1087 -0.8492
  206MOL    H2045530   0.390   7.184   4.233 -0.6190  0.3874 -2.0352
  206MOL    H2145531   0.246   7.075   4.243  1.6042 -2.5755  1.3133
  206MOL    H2245532   0.209   7.241   3.800  0.2687  0.2938 -0.0495
  206MOL    H2345533   0.078   7.314   3.864 -0.5116  0.2523 -1.3439
  206MOL    C2445534   0.054   7.102   3.882 -0.0873  0.3361 -0.5484
  206MOL    C2545535   0.014   7.072   3.737  0.6133 -0.7523  0.0406
  206MOL    O2645536   7.767   7.139   3.680  0.1506 -0.0489 -0.1871
  206MOL    C2745537   0.074   6.950   3.679 -0.5543 -0.8171 -0.0766
  206MOL    C2845538   7.769   7.120   3.974 -0.1504  0.2839  0.2424
  206MOL    H2945539   0.117   7.018   3.911 -0.3033  0.2653 -0.2827
  206MOL    H3045540   0.137   6.977   3.594 -2.0203 -0.1431 -0.9625
  206MOL    H3145541   0.128   6.905   3.762 -1.0717  0.3465  0.9071
  206MOL    H3245542   7.838   6.875   3.661 -0.3871 -0.3044 -3.3446
  206MOL    H3345543   7.719   7.204   3.926 -0.2420  0.2047  0.1988
  206MOL    H3445544   7.784   7.145   4.079 -0.4853 -0.2369  0.4190
  206MOL    C3545545   7.685   6.996   3.982  0.0483 -0.1770 -0.0663
  206MOL    C3645546   7.558   7.023   4.058 -0.1721 -0.3257  0.6799
  206MOL    O3745547   7.560   7.030   4.180  0.2965 -0.3906  0.1826
  206MOL    C3845548   7.435   7.039   3.978  0.3475 -0.2821  0.5314
  206MOL    C3945549   7.758   6.881   4.042  0.0300 -0.8368 -0.0949
  206MOL    H4045550   7.655   6.966   3.881  1.0762  1.4539 -0.8770
  206MOL    H4145551   7.453   6.999   3.878 -0.8847 -0.2361  0.2853
  206MOL    H4245552   7.362   6.972   4.023  0.0495 -2.7351 -3.3838
  206MOL    H4345553   7.408   7.143   3.963 -0.5476 -1.0634 -3.8891
  206MOL    H4445554   7.770   6.903   4.148 -0.8313  1.2386 -0.4066
  206MOL    H4545555   0.021   6.880   4.011  0.4628 -0.6515  1.3689
  206MOL    C4645556   7.697   6.739   4.012 -0.0041 -0.3877 -0.0003
  206MOL    C4745557   7.738   6.645   4.130  0.9021  0.3419  0.5141
  206MOL    O4845558   0.007   6.599   4.146  0.6791 -0.4975  0.1375
  206MOL    C4945559   7.638   6.620   4.237 -0.8221 -0.1586  0.0071
  206MOL    C5045560   7.741   6.677   3.883 -0.3315 -0.0934  0.1926
  206MOL    H5145561   7.589   6.751   4.024 -0.0929 -1.0679 -0.1023
  206MOL    H5245562   7.572   6.534   4.224  0.6649 -1.3492  0.2218
  206MOL    H5345563   7.695   6.602   4.328 -0.5763  1.8072  0.2612
  206MOL    H5445564   7.587   6.714   4.257  0.4187  0.4604  0.2926
  206MOL    H5545565   7.831   6.619   3.900 -1.2373 -1.0920  1.7005
  206MOL    H5645566   7.767   6.752   3.808 -1.5496  1.6968  1.4927
  206MOL    C5745567   7.635   6.589   3.817  0.1475  0.4843 -0.0708
  206MOL    C5845568   7.518   6.676   3.771  0.5282  0.1612  0.5419
  206MOL    O5945569   7.426   6.704   3.847 -0.0402 -0.1309  0.0400
  206MOL    C6045570   7.531   6.752   3.641 -0.4853 -0.6022 -0.0030
  206MOL    C6145571   7.578   6.468   3.893 -0.2069  0.3053 -0.3159
  206MOL    H6245572   7.683   6.556   3.725  2.2925 -3.4312  2.2953
  206MOL    H6345573   7.602   6.706   3.572 -0.8330  2.6140 -2.6137
  206MOL    H6445574   7.429   6.761   3.604 -0.4026  0.8088  0.0963
  206MOL    H6545575   7.574   6.850   3.662 -1.6640 -0.1841  0.4974
  206MOL    H6645576   7.496   6.421   3.840  0.5065 -1.1035 -0.1922
  206MOL    H6745577   7.531   6.502   3.985 -0.9598  0.1265 -0.6281
  206MOL    C6845578   7.694   6.367   3.933  0.3438  0.2968 -0.2123
  206MOL    C6945579   7.798   6.343   3.816 -0.1533 -0.1980 -0.5926
  206MOL    O7045580   7.749   6.322   3.705  1.0484  0.2406  0.5740
  206MOL    C7145581   0.105   6.361   3.832  0.5263  0.5125  0.4852
  206MOL    C7245582   7.626   6.234   3.973  0.3919  0.4972 -0.2201
  206MOL    H7345583   7.758   6.403   4.014  0.6739  0.8490 -0.7144
  206MOL    H7445584   0.140   6.405   3.738 -2.0979 -1.1667 -1.3385
  206MOL    H7545585   0.128   6.433   3.910 -1.1368  1.7644 -0.1356
  206MOL    H7645586   0.156   6.267   3.854  0.6303  1.0269  2.4612
  206MOL    H7745587   7.592   6.182   3.883  0.0590  0.2919  0.0256
  206MOL    H7845588   7.529   6.254   4.018  0.3049  0.1452 -0.2497
  206MOL    C7945589   7.708   6.143   4.063 -0.0170 -0.0707 -0.1325
  206MOL    C8045590   7.691   5.995   4.018  0.3437 -0.2327 -0.4910
  206MOL    O8145591   7.778   5.916   4.005 -0.4980 -0.0777 -0.0609
  206MOL    C8245592   7.551   5.942   4.002  0.1141 -0.5242  0.1554
  206MOL    C8345593   7.679   6.164   4.213  0.0802 -0.2406  0.2054
  206MOL    H8445594   7.812   6.166   4.041 -0.5978  0.3381 -2.7078
  206MOL    H8545595   7.555   5.833   3.996 -0.9394 -0.4421 -3.6338
  206MOL    H8645596   7.490   5.956   4.091  0.1029  1.6117 -0.1659
  206MOL    H8745597   7.497   5.961   3.909 -2.2695 -0.1700  1.5879
  206MOL    H8845598   7.571   6.168   4.225  0.1805  0.1142  1.0652
  206MOL    H8945599   7.706   6.269   4.226  1.3113 -0.2339 -2.1858
  206MOL    C9045600   7.766   6.083   4.309  0.5840 -0.0877 -0.1189
  206MOL    C9145601   7.673   5.992   4.397  0.1969  0.0288  0.0715
  206MOL    O9245602   7.621   6.031   4.504  0.1395  0.4465  0.5400
  206MOL    C9345603   7.661   5.847   4.357 -0.1859  0.3679  0.2114
  206MOL    C9445604   0.011   6.187   4.390  0.0090  0.1617  0.2886
  206MOL    H9545605   7.830   6.018   4.250 -0.4651  0.5339 -2.0093
  206MOL    H9645606   7.571   5.846   4.296  0.5500  2.2720 -0.9390
  206MOL    H9745607   7.745   5.801   4.304 -0.3774 -1.5727  1.5434
  206MOL    H9845608   7.643   5.787   4.446 -2.3906  0.4638 -0.1352
  206MOL    H9945609   0.057   6.127   4.469  1.2769  1.2986  0.4235
  206MOL   H10045610   7.793   6.264   4.438  2.1334  2.3850 -0.4806
  206MOL   C10145611   0.128   6.257   4.313  0.5452  0.2619 -1.1278
  206MOL   C10245612   0.232   6.154   4.287 -0.2101  0.2274 -0.3043
  206MOL   O10345613   0.304   6.120   4.376 -0.2488  0.0553  0.2345
  206MOL   C10445614   0.263   6.098   4.153  0.0699  0.4333  0.3675
  206MOL   C10545615   0.175   6.370   4.411 -0.2966 -0.0489  0.1839
  206MOL   H10645616   0.096   6.294   4.216 -2.5960 -0.6380 -0.5074
  206MOL   H10745617   0.303   6.171   4.083  0.3475  0.9237  1.0352
  206MOL   H10845618   0.327   6.011   4.173 -1.2090 -0.8443 -0.9520
  206MOL   H10945619   0.165   6.073   4.112 -0.2230  3.1718 -0.6880
  206MOL   H11045620   0.203   6.332   4.509 -0.8900  0.1318  0.4266
  206MOL   H11145621   0.095   6.438   4.442 -0.5963 -1.1709  1.9917
  206MOL   C11245622   0.294   6.461   4.369  0.2884 -0.1451 -0.2863
  206MOL   C11345623   0.294   6.503   4.221  0.2471 -0.5679  0.2041
  206MOL   O11445624   0.286   6.419   4.124 -0.0125  0.3182 -0.2172
  206MOL   C11545625   0.306   6.651   4.179 -0.0572  0.0076 -0.0466
  206MOL   C11645626   0.431   6.410   4.414 -0.0196 -0.1702  0.0887
  206MOL   H11745627   0.280   6.552   4.428  2.3571  0.5810 -0.8678
  206MOL   H11845628   0.412   6.675   4.169  0.5205 -1.9105  1.3301
  206MOL   H11945629   0.256   6.658   4.082  1.4495 -1.2300 -0.9336
  206MOL   H12045630   0.249   6.712   4.248  1.3299  1.7336 -0.3880
  206MOL   H12145631   0.439   6.307   4.379 -1.2779 -0.5225  0.8020
  206MOL   H12245632   0.433   6.415   4.523  0.9590  0.7510  0.0344
  206MOL   C12345633   0.556   6.500   4.377  0.5786  0.1249 -0.1694
  206MOL   C12445634   0.691   6.442   4.431 -0.3172  0.1843 -0.1556
  206MOL   O12545635   0.744   6.481   4.533  0.2106  0.6413 -0.1306
  206MOL   C12645636   0.747   6.322   4.358  0.4138  0.2499  0.0603
  206MOL   C12745637   0.544   6.643   4.427  0.1520  0.7111  0.7943
  206MOL   H12845638   0.555   6.503   4.268  0.6116  3.2458 -0.1330
  206MOL   H12945639   0.673   6.286   4.287  0.4839  2.4890 -1.1811
  206MOL   H13045640   0.824   6.364   4.293 -2.3548 -1.6892 -4.7495
  206MOL   H13145641   0.797   6.244   4.417  0.1911 -1.0752 -1.4452
  206MOL   H13245642   0.529   6.631   4.534 -0.4782 -2.4313  0.3876
  206MOL   H13345643   0.448   6.678   4.389  0.7174  1.1646 -0.2601
  206MOL   C13445644   0.651   6.747   4.380 -0.4466 -0.0815  0.1350
  206MOL   C13545645   0.648   6.868   4.476  0.2783  0.2597  0.0912
  206MOL   O13645646   0.626   6.984   4.439  0.1378 -0.1270 -0.3048
  206MOL   C13745647   0.692   6.845   4.618 -0.0484  0.1533 -0.5608
  206MOL   C13845648   0.646   6.780   4.232 -0.0759  0.5025  0.7506
  206MOL   H13945649   0.746   6.697   4.399 -0.7503 -0.7967 -0.1683
  206MOL   H14045650   0.748   6.925   4.665 -0.5756  0.1812  0.0199
  206MOL   H14145651   0.600   6.846   4.677 -0.7116  5.0054 -1.5041
  206MOL   H14245652   0.730   6.744   4.637 -0.4124  0.4768  1.9787
  206MOL   H14345653   0.555   6.837   4.215  0.6172  2.0462  2.0112
  206MOL   H14445654   0.643   6.686   4.177  3.1143  0.1713  1.0271
  206MOL   C14545655   0.769   6.858   4.190  0.0713 -0.2801 -0.1405
  206MOL   C14645656   0.743   6.911   4.046 -0.1959 -0.1728  0.1162
  206MOL   O14745657   0.733   6.833   3.956  0.5354 -0.2113 -0.1789
  206MOL   C14845658   0.746   7.064   4.024  0.3996 -0.6397 -0.3427
  206MOL   C14945659   0.904   6.780   4.190 -0.1459 -0.1270 -0.0510
  206MOL   H15045660   0.784   6.944   4.256 -1.2644 -0.6331  0.6305
  206MOL   H15145661   0.646   7.102   4.045  1.4386  1.3150  1.2438
  206MOL   H15245662   0.815   7.123   4.085 -0.9638  0.9731 -0.3179
  206MOL   H15345663   0.758   7.086   3.918 -0.4794 -1.3236 -0.5837
  206MOL   H15445664   0.958   6.779   4.095 -0.3895 -1.9459 -0.1856
  206MOL   H15545665   0.870   6.677   4.204 -1.8686  0.2035 -1.4929
  206MOL   C15645666   0.999   6.817   4.305 -0.7319  0.3043  0.0541
  206MOL   C15745667   1.041   6.956   4.272  0.2605  0.6954  0.1781
  206MOL   O15845668   1.107   6.987   4.173 -0.8224 -0.7017  0.0184
  206MOL   C15945669   1.001   7.057   4.375 -0.5896 -0.6012 -0.0451
  206MOL   C16045670   1.111   6.709   4.302 -0.0329 -0.3419 -0.5890
  206MOL   H16145671   0.949   6.820   4.402 -0.5056  0.7770  0.1609
  206MOL   H16245672   0.916   7.037   4.440  0.9454  0.5203  2.3611
  206MOL   H16345673   1.089   7.092   4.429 -0.6989 -0.1833 -0.1328
  206MOL   H16445674   0.956   7.135   4.313  0.5197  0.7321  0.7968
  206MOL   H16545675   1.164   6.715   4.207  0.1804  0.6297 -0.4055
  206MOL   H16645676   1.069   6.608   4.304 -1.0068  0.0743  2.1443
  206MOL   C16745677   1.213   6.724   4.415  0.2227  0.6134  0.1061
  206MOL   C16845678   1.354   6.754   4.353 -0.6910 -0.0360 -0.9087
  206MOL   O16945679   1.421   6.659   4.305  0.5057  0.1531 -0.3471
  206MOL   C17045680   1.425   6.882   4.378  0.0558  0.5970 -0.4743
  206MOL   C17145681   1.217   6.595   4.502 -0.8671 -0.0800 -0.0580
  206MOL   H17245682   1.191   6.814   4.473 -1.6233  1.2586 -1.5343
  206MOL   H17345683   1.487   6.913   4.294  2.1066  0.4361  0.9513
  206MOL   H17445684   1.357   6.966   4.391 -1.2497 -0.2417 -1.6363
  206MOL   H17545685   1.490   6.866   4.463  0.1136  2.8179 -0.0740
  206MOL   H17645686   1.254   6.512   4.442 -0.1724  0.1702  0.0079
  206MOL   H17745687   1.123   6.559   4.543 -0.3597 -0.9723  0.3294
  206MOL   C17845688   1.321   6.602   4.621  0.1921 -0.4189 -0.1859
  206MOL   C17945689   1.327   6.467   4.703 -0.3577  0.0936  0.1452
  206MOL   O18045690   1.226   6.411   4.737 -0.1961  0.3995  0.3355
  206MOL   C18145691   1.462   6.415   4.750 -0.5007 -0.0052  0.6308
  206MOL   C18245692   1.304   6.725   4.719  0.3415 -0.2965  0.7437
  206MOL   H18345693   1.419   6.609   4.573  0.7947  0.6139  1.1550
  206MOL   H18445694   1.548   6.445   4.690 -0.6236 -1.2198 -0.1639
  206MOL   H18545695   1.471   6.460   4.849 -0.3085  0.2091  0.5139
  206MOL   H18645696   1.468   6.307   4.759 -0.6317 -0.0437  0.2567
  206MOL   H18745697   1.287   6.818   4.665  3.3447 -0.0756  0.0741
  206MOL   H18845698   1.406   6.739   4.758  1.1382 -0.9825 -1.0611
  206MOL   C18945699   1.207   6.721   4.835  0.1841  0.2892 -0.6172
  206MOL   C19045700   1.059   6.714   4.769 -0.2183  0.1919 -0.6088
  206MOL   O19145701   1.021   6.796   4.684  0.0394  0.0394 -0.8191
  206MOL   C19245702   0.964   6.610   4.829  0.8414  0.3457  0.6199
  206MOL   C19345703   1.220   6.838   4.936  0.7290  0.2910  0.7669
  206MOL   H19445704   1.241   6.633   4.888  0.4632  0.6908 -0.1229
  206MOL   H19545705   0.935   6.605   4.934 -0.6745 -0.5778  0.1749
  206MOL   H19645706   0.866   6.629   4.785  0.9616 -2.7976 -1.1819
  206MOL   H19745707   0.988   6.509   4.796  0.0744  0.2254  0.4268
  206MOL   H19845708   1.158   6.924   4.910 -1.1933 -0.6474  2.1649
  206MOL   H19945709   1.324   6.872   4.943  1.0376 -0.6337  0.7550
  206MOL   C20045710   1.174   6.796   5.083 -0.3821 -0.4351  0.2221
  206MOL   C20145711   1.148   6.923   5.167 -0.4994  0.4046 -0.9643
  206MOL   O20245712   1.241   6.975   5.231  0.3677 -0.0933 -0.4863
  206MOL   C20345713   1.009   6.985   5.175  0.5284 -0.2041  0.2021
  206MOL   C20445714   1.279   6.702   5.147 -0.9002 -0.5370 -0.1640
  206MOL   H20545715   1.076   6.748   5.077 -0.3645 -0.3116 -1.1321
  206MOL   H20645716   0.997   7.050   5.089  2.2984  1.6586  1.2968
  206MOL   H20745717   0.922   6.920   5.184  1.1794 -0.7825  2.9707
  206MOL   H20845718   1.006   7.055   5.259 -2.7210  0.0344 -0.0793
  206MOL   H20945719   1.354   6.761   5.200  2.3036 -3.6179 -1.0577
  206MOL   H21045720   1.345   6.666   5.068  1.8462  3.5718  0.1112
  206MOL   C21145721   1.217   6.583   5.231  0.8063  0.3777  0.9931
  206MOL   C21245722   1.123   6.499   5.146  0.3284  0.9777 -0.1095
  206MOL   O21345723   0.996   6.512   5.157 -0.2962 -0.3925  0.6053
  206MOL   C21445724   1.170   6.379   5.068  0.0419 -0.3097 -1.0749
  206MOL   C21545725   1.153   6.644   5.360  0.3910  0.1522  0.2993
  206MOL   H21645726   1.304   6.522   5.254 -0.4131 -0.5879  3.2365
  206MOL   H21745727   1.175   6.290   5.132  0.5854  2.0796  2.3761
  206MOL   H21845728   1.112   6.366   4.977  0.8524 -1.4515 -1.4353
  206MOL   H21945729   1.269   6.399   5.028 -0.0408  0.7879 -0.7493
  206MOL   H22045730   1.157   6.568   5.439 -0.7613 -0.9241 -0.6451
  206MOL   H22145731   1.053   6.684   5.341  0.2456 -0.6815 -0.7604
  206MOL   H22245732   1.224   6.719   5.396 -0.5683  0.6811  1.1173
  207MOL     C145733   5.321   4.909   2.172 -0.0651 -0.2490 -0.5868
  207MOL     C245734   5.285   4.790   2.078  0.6141 -0.3842 -0.5534
  207MOL     O345735   5.208   4.811   1.984  0.1332  0.3173 -0.2334
  207MOL     C445736   5.347   4.654   2.104 -0.2891 -0.2032  0.3540
  207MOL     C545737   5.256   5.040   2.127 -0.2215  0.9092  0.6511
  207MOL     H645738   5.281   4.883   2.270  1.9237  0.7683  0.5236
  207MOL     H745739   5.403   4.671   2.196  0.6445 -2.1673  0.1734
  207MOL     H845740   5.265   4.583   2.117 -1.6909  0.8915 -2.0962
  207MOL     H945741   5.402   4.628   2.013  1.4207 -0.7463  1.5228
  207MOL    H1045742   5.148   5.045   2.140 -0.5411 -1.4652 -0.7600
  207MOL    H1145743   5.255   5.039   2.018 -1.8397  0.2511  0.6554
  207MOL    H1245744   5.430   4.915   2.185 -0.2114 -0.8489  1.1068
  207MOL    C1345745   5.339   5.162   2.170  0.3418 -0.6730 -0.7274
  207MOL    C1445746   5.322   5.185   2.323  0.4693  0.3455  0.1429
  207MOL    O1545747   5.249   5.269   2.365  0.0367 -0.2709 -0.5996
  207MOL    C1645748   5.416   5.101   2.416 -0.8845 -0.6109  0.0743
  207MOL    C1745749   5.322   5.282   2.077  0.7955  0.3641  0.4560
  207MOL    H1845750   5.444   5.136   2.156  0.8452  1.6355 -1.5038
  207MOL    H1945751   5.398   4.994   2.402  0.1594 -0.7795 -0.0335
  207MOL    H2045752   5.520   5.114   2.387 -0.7413  0.8018  1.2031
  207MOL    H2145753   5.407   5.131   2.520 -3.6998  0.9700 -0.5731
  207MOL    H2245754   5.240   5.348   2.108  1.3626  1.1017  0.4022
  207MOL    H2345755   5.286   5.247   1.980  1.2004  0.6343  0.2067
  207MOL    C2445756   5.447   5.367   2.039 -0.6437  0.5842 -0.7839
  207MOL    C2545757   5.533   5.283   1.945 -0.2121  0.1183  0.4868
  207MOL    O2645758   5.621   5.200   1.983 -0.0686 -0.5299  0.0108
  207MOL    C2745759   5.514   5.307   1.795  0.1637  0.0063  0.4072
  207MOL    C2845760   5.519   5.404   2.169 -0.6354  0.4678 -0.0694
  207MOL    H2945761   5.423   5.460   1.986  0.3580  0.0943 -2.1153
  207MOL    H3045762   5.504   5.415   1.783  1.6381  0.1359  0.1524
  207MOL    H3145763   5.606   5.279   1.743  1.7960  2.3040  1.9653
  207MOL    H3245764   5.424   5.251   1.771  1.6647 -1.7900 -1.1612
  207MOL    H3345765   5.569   5.317   2.212  0.4020  1.0035 -0.1753
  207MOL    H3445766   5.452   5.433   2.250  1.2042 -0.4704  1.8405
  207MOL    C3545767   5.625   5.511   2.143  0.2090  0.5406  0.3808
  207MOL    C3645768   5.740   5.507   2.244 -0.2231  1.1051 -0.2561
  207MOL    O3745769   5.736   5.560   2.352 -0.5358  0.1781 -0.0824
  207MOL    C3845770   5.856   5.425   2.201  0.1144  0.0773  0.0319
  207MOL    C3945771   5.570   5.655   2.137  0.2432 -0.4625 -0.2716
  207MOL    H4045772   5.676   5.496   2.047 -0.7889  0.4196 -0.1318
  207MOL    H4145773   5.821   5.330   2.162  1.7802  0.2712 -2.0660
  207MOL    H4245774   5.909   5.481   2.124  1.8471 -0.6572  0.6577
  207MOL    H4345775   5.931   5.418   2.279  0.2367  0.8805 -0.0076
  207MOL    H4445776   5.558   5.689   2.240  1.7538  0.9922 -0.5529
  207MOL    H4545777   5.478   5.645   2.079 -0.1519  1.0836  0.0618
  207MOL    C4645778   5.654   5.755   2.056 -0.0160  0.0601 -0.5582
  207MOL    C4745779   5.781   5.802   2.121  0.0304 -0.4495  0.0641
  207MOL    O4845780   5.791   5.875   2.218  0.7155  0.0477 -0.3883
  207MOL    C4945781   5.907   5.768   2.047 -0.0999  0.7299  0.7076
  207MOL    C5045782   5.566   5.887   2.018 -0.2403 -0.1696 -0.3228
  207MOL    H5145783   5.692   5.694   1.974  1.6011  0.2769  0.0148
  207MOL    H5245784   5.887   5.754   1.941 -2.9926 -1.1219  1.4463
  207MOL    H5345785   5.991   5.837   2.050 -0.3350  0.9674  2.7143
  207MOL    H5445786   5.950   5.677   2.089 -3.2383 -0.6349  1.1040
  207MOL    H5545787   5.624   5.972   1.983  2.2587 -1.6829  0.0793
  207MOL    H5645788   5.506   5.923   2.103  1.7325  4.5073 -0.7673
  207MOL    C5745789   5.475   5.867   1.902 -0.4190  0.2706  0.5435
  207MOL    C5845790   5.552   5.853   1.771  0.4497 -0.1464  0.1011
  207MOL    O5945791   5.653   5.920   1.750 -0.0283  0.2441 -0.6864
  207MOL    C6045792   5.510   5.747   1.666 -0.1827 -0.5391 -0.4695
  207MOL    C6145793   5.354   5.966   1.891 -0.2171 -0.8855 -0.1672
  207MOL    H6245794   5.433   5.770   1.930  1.0213 -0.7529 -0.7630
  207MOL    H6345795   5.408   5.766   1.635 -0.0946  0.0412 -0.4136
  207MOL    H6445796   5.583   5.754   1.585 -0.2433  1.4314 -0.3853
  207MOL    H6545797   5.515   5.657   1.727 -2.9666  0.2233  0.9723
  207MOL    H6645798   5.385   6.057   1.840 -3.2994  0.7541  0.8008
  207MOL    H6745799   5.328   5.983   1.995 -0.8675  1.7041 -0.7250
  207MOL    C6845800   5.227   5.903   1.826 -0.1107  0.0253 -0.1463
  207MOL    C6945801   5.148   6.016   1.767  0.8663  0.5445  0.1817
  207MOL    O7045802   5.064   6.071   1.835  0.1900  0.0320  0.6998
  207MOL    C7145803   5.166   6.067   1.623  0.2682  0.4461 -0.0281
  207MOL    C7245804   5.144   5.813   1.924 -0.6532  0.0337 -0.2254
  207MOL    H7345805   5.265   5.858   1.735 -1.5797  1.1581 -1.3545
  207MOL    H7445806   5.094   6.148   1.612 -0.0062 -0.0688 -2.1992
  207MOL    H7545807   5.262   6.109   1.594  0.1563  0.1583 -0.8110
  207MOL    H7645808   5.138   5.987   1.555 -0.7322  0.4962  0.3243
  207MOL    H7745809   5.064   5.862   1.979 -1.2055 -0.9937 -0.1007
  207MOL    H7845810   5.209   5.776   2.004 -0.3513  0.2037 -0.3884
  207MOL    C7945811   5.071   5.694   1.861  0.2238 -0.2170 -0.3246
  207MOL    C8045812   5.162   5.574   1.824  0.1437  1.0687 -0.3519
  207MOL    O8145813   5.287   5.583   1.807  0.1904  0.0936  0.4046
  207MOL    C8245814   5.095   5.436   1.824 -0.4808  0.6382 -0.1992
  207MOL    C8345815   4.986   5.728   1.734  0.4847 -0.0606  0.6889
  207MOL    H8445816   5.002   5.648   1.932  1.2749 -0.4691  0.5497
  207MOL    H8545817   5.118   5.386   1.918  0.0451  1.9101  0.3511
  207MOL    H8645818   4.989   5.432   1.800 -0.4009  0.4522 -0.5309
  207MOL    H8745819   5.135   5.365   1.752  0.3022 -1.1970  1.9843
  207MOL    H8845820   4.971   5.634   1.681  1.9254  0.9562 -1.5964
  207MOL    H8945821   5.040   5.782   1.656  1.4712 -0.5225  1.0572
  207MOL    C9045822   4.854   5.801   1.772  0.0611 -0.4504 -0.1495
  207MOL    C9145823   4.765   5.731   1.860  0.2703 -0.2735  0.2959
  207MOL    O9245824   4.762   5.611   1.862  0.0509 -0.2546 -0.1476
  207MOL    C9345825   4.703   5.802   1.979 -0.2575  0.4202 -0.0379
  207MOL    C9445826   4.775   5.823   1.646  0.8349 -0.1244 -1.0921
  207MOL    H9545827   4.885   5.894   1.819 -0.3518 -0.3630 -0.0530
  207MOL    H9645828   4.777   5.854   2.040 -2.1695  0.2809  2.4605
  207MOL    H9745829   4.642   5.884   1.941  1.5835  1.7813 -0.1293
  207MOL    H9845830   4.651   5.736   2.049  0.1900 -1.1315 -1.1511
  207MOL    H9945831   4.668   5.811   1.662  0.8372 -0.9012 -1.6705
  207MOL   H10045832   4.790   5.743   1.574 -0.5694 -2.5038  1.1519
  207MOL   C10145833   4.781   5.964   1.582 -0.8852 -0.4928  0.1543
  207MOL   C10245834   4.729   6.076   1.681 -0.0754  0.7111 -0.1057
  207MOL   O10345835   4.642   6.051   1.763  0.4384 -0.1902 -0.2341
  207MOL   C10445836   4.799   6.216   1.675 -0.2502 -0.0800  0.4998
  207MOL   C10545837   4.719   5.975   1.439 -0.3629  0.1094 -0.8359
  207MOL   H10645838   4.888   5.979   1.579 -0.9866 -0.1632 -1.9933
  207MOL   H10745839   4.866   6.221   1.589 -1.6163  3.4277 -0.4270
  207MOL   H10845840   4.730   6.300   1.675  0.3624  0.4318 -1.1445
  207MOL   H10945841   4.866   6.234   1.759  0.5698  0.2301 -0.2124
  207MOL   H11045842   4.658   6.065   1.444  0.8058  0.8228  1.0286
  207MOL   H11145843   4.644   5.895   1.436  1.4447 -1.6400 -0.2039
  207MOL   C11245844   4.819   5.969   1.323  0.4605  0.6181  0.4031
  207MOL   C11345845   4.875   5.832   1.289 -0.7534 -0.0668 -0.5258
  207MOL   O11445846   4.996   5.804   1.308  0.1826  0.4142 -0.1203
  207MOL   C11545847   4.782   5.723   1.231 -0.3210  0.3019 -0.3937
  207MOL   C11645848   4.924   6.086   1.337 -0.1736 -0.2656 -0.2314
  207MOL   H11745849   4.756   5.996   1.239  2.5712 -1.7191 -2.0296
  207MOL   H11845850   4.686   5.766   1.204 -0.7980  0.3281  1.2475
  207MOL   H11945851   4.826   5.690   1.137  0.7961  2.3701 -0.6309
  207MOL   H12045852   4.773   5.641   1.303 -1.2839  1.2173  0.5486
  207MOL   H12145853   5.007   6.065   1.405  0.0219  1.6756  0.1449
  207MOL   H12245854   4.876   6.170   1.386  0.1862  0.4202 -1.0538
  207MOL   C12345855   4.979   6.145   1.204  0.2460  0.2324  0.2722
  207MOL   C12445856   5.108   6.222   1.241  1.2945 -0.7130  0.1908
  207MOL   O12545857   5.089   6.343   1.256  0.0137 -0.3241  0.4858
  207MOL   C12645858   5.225   6.147   1.283 -0.4231 -0.2844  0.2451
  207MOL   C12745859   4.862   6.220   1.128  0.2039 -1.1098 -0.3876
  207MOL   H12845860   5.013   6.066   1.137 -0.2059  0.7039 -0.5169
  207MOL   H12945861   5.215   6.041   1.258  0.0674 -0.4598  0.7714
  207MOL   H13045862   5.319   6.171   1.233  1.9149 -3.7922  2.6597
  207MOL   H13145863   5.246   6.149   1.390  1.0250 -0.9684 -0.0093
  207MOL   H13245864   4.818   6.291   1.197  2.4398  0.6237 -0.6918
  207MOL   H13345865   4.784   6.149   1.102 -0.8483 -0.5354  1.1304
  207MOL   C13445866   4.905   6.305   1.001  0.4866 -0.3810 -1.1314
  207MOL   C13545867   4.786   6.386   0.948  0.9067  0.4314  0.1337
  207MOL   O13645868   4.680   6.332   0.941  0.2462 -0.2280 -0.1551
  207MOL   C13745869   4.802   6.531   0.888 -0.2842  0.0480  0.1894
  207MOL   C13845870   4.951   6.210   0.891  0.3483  0.2338  0.0360
  207MOL   H13945871   4.975   6.384   1.027 -0.4508  0.4669 -1.1219
  207MOL   H14045872   4.881   6.573   0.950  1.0299 -0.4655 -1.1227
  207MOL   H14145873   4.842   6.551   0.789 -0.4038 -0.3040  0.0708
  207MOL   H14245874   4.713   6.590   0.911 -0.0446 -0.2350  1.9117
  207MOL   H14345875   4.922   6.248   0.793 -1.0574 -0.5305  0.1378
  207MOL   H14445876   4.909   6.109   0.895 -0.8699  0.7494  0.7573
  207MOL   C14545877   5.106   6.202   0.880 -0.6412 -0.7497 -0.2321
  207MOL   C14645878   5.177   6.342   0.862 -0.1201 -0.7108 -0.1811
  207MOL   O14745879   5.139   6.433   0.791 -0.5066  0.6101  0.4947
  207MOL   C14845880   5.307   6.348   0.934  0.6955  0.1461  0.0976
  207MOL   C14945881   5.142   6.110   0.765  0.5414  0.2342  0.8081
  207MOL   H15045882   5.148   6.163   0.973  2.2442 -1.0804 -1.6193
  207MOL   H15145883   5.308   6.289   1.025 -0.1017  1.0450  0.7033
  207MOL   H15245884   5.386   6.297   0.878  1.0106  0.3164  0.3863
  207MOL   H15345885   5.331   6.453   0.949 -1.6544  0.8838 -1.0652
  207MOL   H15445886   5.232   6.145   0.715  0.6450 -0.1234  0.7462
  207MOL   H15545887   5.066   6.112   0.686  1.4088  0.6302 -0.0260
  207MOL   C15645888   5.167   5.963   0.807  0.1449  0.5721 -0.5599
  207MOL   C15745889   5.272   5.941   0.922  0.3460 -0.2507  0.1821
  207MOL   O15845890   5.236   5.915   1.035  0.2972 -0.1084  0.8087
  207MOL   C15945891   5.419   5.963   0.887  0.3609  0.3218  0.2414
  207MOL   C16045892   5.207   5.889   0.678 -0.7639  0.0354 -0.0746
  207MOL   H16145893   5.073   5.929   0.850  1.6644 -0.6133  1.9173
  207MOL   H16245894   5.430   6.037   0.807  0.7290  1.4432  1.3264
  207MOL   H16345895   5.486   5.993   0.968 -0.1696  1.2292  0.3522
  207MOL   H16445896   5.456   5.871   0.842  1.6707  0.6039  0.7098
  207MOL   H16545897   5.306   5.911   0.638 -0.0308 -1.0513  1.0844
  207MOL   H16645898   5.135   5.916   0.602 -0.0431 -0.7461 -1.0508
  207MOL   C16745899   5.208   5.734   0.683  0.0055 -0.2387  0.2112
  207MOL   C16845900   5.290   5.659   0.584  0.2294 -0.0450  0.5428
  207MOL   O16945901   5.406   5.621   0.611  0.3535  0.0712 -0.0025
  207MOL   C17045902   5.229   5.625   0.450  0.1516  0.1359 -1.0805
  207MOL   C17145903   5.068   5.677   0.689 -0.1356 -0.3233 -0.3646
  207MOL   H17245904   5.262   5.706   0.773 -1.9018 -0.6753  1.2370
  207MOL   H17345905   5.151   5.695   0.419  0.9509  2.2327  1.4354
  207MOL   H17445906   5.309   5.634   0.376  0.5807  3.4406 -0.3135
  207MOL   H17545907   5.185   5.526   0.447 -2.8222  1.2618  2.0637
  207MOL   H17645908   5.024   5.650   0.593  0.2003 -5.5608  0.8000
  207MOL   H17745909   4.999   5.749   0.733  0.2249 -0.7033  0.8531
  207MOL   C17845910   5.069   5.548   0.777 -0.1281 -0.3851  0.3570
  207MOL   C17945911   4.970   5.449   0.718 -0.0310  0.7511 -0.3899
  207MOL   O18045912   4.860   5.423   0.766 -0.1391  0.3776  0.6879
  207MOL   C18145913   5.003   5.378   0.592  0.3917  0.8043  0.6373
  207MOL   C18245914   5.041   5.589   0.925 -0.1981 -0.2504 -0.1815
  207MOL   H18345915   5.166   5.500   0.763  0.2695  0.0191  1.6038
  207MOL   H18445916   5.108   5.373   0.562 -0.0098 -2.7720 -0.4642
  207MOL   H18545917   4.976   5.274   0.611  3.4009  0.0008  0.8058
  207MOL   H18645918   4.943   5.416   0.510 -1.0445  0.4706  1.5174
  207MOL   H18745919   4.933   5.578   0.942 -0.6401 -0.2844 -2.8372
  207MOL   H18845920   5.046   5.695   0.951 -2.5529 -0.1579  0.0900
  207MOL   C18945921   5.120   5.511   1.037 -0.6494 -0.7808  0.2276
  207MOL   C19045922   5.031   5.419   1.122  0.2709 -0.4081 -0.9065
  207MOL   O19145923   5.006   5.443   1.242 -0.4863 -0.6647  0.0581
  207MOL   C19245924   4.971   5.299   1.052 -0.1233  0.6608 -0.6377
  207MOL   C19345925   5.213   5.605   1.114 -0.5878  0.1912 -0.2580
  207MOL   H19445926   5.189   5.440   0.990 -1.7634 -1.4738 -0.3874
  207MOL   H19545927   4.957   5.226   1.132  1.4742  0.3132 -0.6644
  207MOL   H19645928   4.872   5.306   1.008 -0.9636 -0.0155  1.0837
  207MOL   H19745929   5.045   5.269   0.978  1.2409  1.9877  0.1563
  207MOL   H19845930   5.163   5.690   1.162 -1.2474 -1.5662  2.2940
  207MOL   H19945931   5.271   5.650   1.033 -0.9120  1.5233  0.2279
  207MOL   C20045932   5.312   5.541   1.215 -0.0003  0.9547  0.4710
  207MOL   C20145933   5.335   5.629   1.335 -0.5861 -0.1693 -0.0668
  207MOL   O20245934   5.413   5.720   1.324 -0.1992  0.0086  0.4454
  207MOL   C20345935   5.246   5.601   1.454  0.5559  0.4377  0.2293
  207MOL   C20445936   5.445   5.500   1.137  0.5512  0.2466 -0.2512
  207MOL   H20545937   5.262   5.456   1.260  1.0765  0.1395  0.1426
  207MOL   H20645938   5.306   5.631   1.540 -0.1867  0.6118  0.6906
  207MOL   H20745939   5.156   5.663   1.457 -0.2198 -0.6872  0.6450
  207MOL   H20845940   5.213   5.498   1.460  2.0814  0.0131  1.3326
  207MOL   H20945941   5.502   5.579   1.089 -0.6845  0.6521 -1.0777
  207MOL   H21045942   5.420   5.449   1.044  2.3963  0.8346 -1.1060
  207MOL   C21145943   5.545   5.412   1.222 -0.1034 -0.0236  0.5239
  207MOL   C21245944   5.682   5.394   1.151 -0.7887 -0.1335 -0.3077
  207MOL   O21345945   5.785   5.430   1.207  0.2894  0.0688 -0.7545
  207MOL   C21445946   5.687   5.335   1.008  0.4282 -0.5748 -0.9060
  207MOL   C21545947   5.490   5.278   1.272 -0.4679 -0.2546  0.2251
  207MOL   H21645948   5.564   5.475   1.309 -0.6931  0.1876  0.4983
  207MOL   H21745949   5.790   5.357   0.977  0.5099  0.8003  0.3088
  207MOL   H21845950   5.673   5.227   1.015 -1.5382 -0.1673  1.8680
  207MOL   H21945951   5.619   5.379   0.935  2.0004  0.2577 -1.8937
  207MOL   H22045952   5.562   5.197   1.286 -0.5858  0.0666  2.9641
  207MOL   H22145953   5.412   5.254   1.201 -0.1242 -0.1551 -0.1869
  207MOL   H22245954   5.456   5.299   1.374  3.3271  0.2963  1.4858
  208MOL     C145955   3.270   5.706   1.222  0.1798  0.0452 -0.2290
  208MOL     C245956   3.328   5.654   1.092  0.0810 -0.2256  0.0696
  208MOL     O345957   3.294   5.693   0.981 -0.2650  0.6674  0.0407
  208MOL     C445958   3.456   5.571   1.103  0.1351 -0.4922 -0.3451
  208MOL     C545959   3.120   5.737   1.217 -0.4043 -0.3020 -0.8541
  208MOL     H645960   3.303   5.634   1.297 -2.0011 -0.2234  0.5171
  208MOL     H745961   3.492   5.518   1.015 -1.0874  0.2356 -1.2947
  208MOL     H845962   3.546   5.621   1.139  0.5476  0.7869 -3.0675
  208MOL     H945963   3.430   5.496   1.178 -1.2481 -0.1509 -0.4715
  208MOL    H1045964   3.087   5.753   1.320 -0.1025  0.4946 -0.8802
  208MOL    H1145965   3.071   5.644   1.187  3.5516 -2.0646 -2.1043
  208MOL    H1245966   3.322   5.797   1.253 -1.7597  0.5432  1.6865
  208MOL    C1345967   3.086   5.866   1.135  0.4586 -0.1226 -0.2175
  208MOL    C1445968   3.141   5.996   1.207  0.0780  0.1762  0.0637
  208MOL    O1545969   3.148   5.995   1.331 -0.1318  0.2716 -0.2580
  208MOL    C1645970   3.181   6.115   1.127 -0.2742  0.2505 -0.1808
  208MOL    C1745971   2.944   5.882   1.089  0.2214  0.4245  0.2749
  208MOL    H1845972   3.147   5.871   1.045  2.5958  2.9598  1.2868
  208MOL    H1945973   3.108   6.196   1.129 -1.9331 -1.2281  0.9420
  208MOL    H2045974   3.273   6.147   1.178 -1.0626 -0.6653  1.8719
  208MOL    H2145975   3.206   6.087   1.025 -0.6864  1.3583 -0.5912
  208MOL    H2245976   2.881   5.882   1.178  1.6704 -1.3515  1.3414
  208MOL    H2345977   2.915   5.790   1.037 -1.7120  1.7782 -1.1422
  208MOL    C2445978   2.910   5.987   0.984  0.8812 -0.2583  0.1746
  208MOL    C2545979   2.762   5.998   0.986 -0.4515 -0.0553  0.5659
  208MOL    O2645980   2.700   5.953   0.893  0.5008 -0.2927  0.0628
  208MOL    C2745981   2.701   6.075   1.101 -0.6522  0.4198  0.0322
  208MOL    C2845982   2.989   5.968   0.845  0.7599  0.3929 -0.4686
  208MOL    H2945983   2.942   6.081   1.030  1.6447 -0.3858 -0.0787
  208MOL    H3045984   2.779   6.120   1.163  0.4198 -2.5809  0.9874
  208MOL    H3145985   2.642   6.157   1.061 -3.3759 -1.0598  0.8904
  208MOL    H3245986   2.634   6.012   1.159 -0.1595 -0.2109 -0.0793
  208MOL    H3345987   2.938   5.880   0.807  0.4815  0.7703 -0.9775
  208MOL    H3445988   3.093   5.956   0.875  0.6790  2.0495  0.6008
  208MOL    C3545989   2.965   6.083   0.747 -0.4359 -0.7240  0.6576
  208MOL    C3645990   2.941   6.046   0.603 -0.7024  0.4353  0.1900
  208MOL    O3745991   3.024   6.062   0.512  0.2191 -0.0462 -0.3648
  208MOL    C3845992   2.816   5.977   0.576 -0.1428 -0.0767 -0.1971
  208MOL    C3945993   3.069   6.192   0.772  0.2283  0.2685 -0.5611
  208MOL    H4045994   2.871   6.132   0.770 -1.7891 -2.6787 -0.6034
  208MOL    H4145995   2.798   5.966   0.469  0.3248  0.3525 -0.3239
  208MOL    H4245996   2.837   5.875   0.607  0.6798  0.3820  0.8274
  208MOL    H4345997   2.725   6.018   0.621  0.2786  0.8757 -0.1883
  208MOL    H4445998   3.164   6.164   0.728  0.3899 -1.2966  0.7368
  208MOL    H4545999   3.098   6.197   0.877  0.0343 -0.6279 -0.4611
  208MOL    C4646000   3.028   6.329   0.726  0.4359 -0.3382  0.2244
  208MOL    C4746001   3.142   6.394   0.642 -0.3331  0.5625 -0.4615
  208MOL    O4846002   3.252   6.434   0.688 -0.1610 -0.3492  0.8396
  208MOL    C4946003   3.097   6.426   0.503 -0.7718  0.1451 -0.2492
  208MOL    C5046004   2.983   6.423   0.837 -0.4753 -0.2617 -0.5084
  208MOL    H5146005   2.954   6.316   0.648  0.4554 -1.3567  0.3610
  208MOL    H5246006   3.039   6.342   0.467 -1.4258  1.1156 -1.5117
  208MOL    H5346007   3.043   6.520   0.512 -2.4814 -0.7625 -0.9097
  208MOL    H5446008   3.183   6.449   0.441  0.1228  1.2437  1.3456
  208MOL    H5546009   3.063   6.442   0.909 -1.3680 -3.0791  1.3379
  208MOL    H5646010   2.903   6.369   0.888 -3.1271  1.9214 -2.2086
  208MOL    C5746011   2.925   6.564   0.800  0.4466 -0.1134 -0.3117
  208MOL    C5846012   2.914   6.653   0.921  0.0605  0.0231  0.0948
  208MOL    O5946013   2.866   6.619   1.031 -0.1352  0.1295 -0.5284
  208MOL    C6046014   2.969   6.794   0.892 -0.2610 -0.5676 -0.8263
  208MOL    C6146015   2.798   6.559   0.712  0.1596 -0.1201  0.1932
  208MOL    H6246016   3.006   6.606   0.741  0.9174 -0.0129  0.4035
  208MOL    H6346017   3.047   6.802   0.817  0.8666  0.3163  0.4149
  208MOL    H6446018   2.888   6.849   0.843 -0.9219  0.5871  1.4637
  208MOL    H6546019   3.004   6.846   0.982 -2.5379 -0.7522  0.2280
  208MOL    H6646020   2.830   6.514   0.618 -2.0440 -2.1864  0.4070
  208MOL    H6746021   2.770   6.656   0.670 -2.4617 -0.3109  1.4150
  208MOL    C6846022   2.682   6.486   0.773  0.4051 -0.0989  0.4977
  208MOL    C6946023   2.654   6.359   0.691 -0.5831 -0.7257 -1.1051
  208MOL    O7046024   2.692   6.345   0.577  0.2762  0.1395  0.1892
  208MOL    C7146025   2.579   6.252   0.772  0.3025 -0.1663 -0.0700
  208MOL    C7246026   2.552   6.578   0.782 -0.0481 -0.2619 -0.4320
  208MOL    H7346027   2.704   6.450   0.873  0.5941  1.3822  1.0036
  208MOL    H7446028   2.564   6.162   0.712 -2.3970  0.4482 -0.4086
  208MOL    H7546029   2.639   6.239   0.862  0.4409  2.1849  0.2184
  208MOL    H7646030   2.479   6.292   0.790 -0.6201 -3.0650  1.6111
  208MOL    H7746031   2.454   6.532   0.767  0.1038 -0.6040 -0.3611
  208MOL    H7846032   2.554   6.652   0.702  4.8764 -0.0354 -0.2440
  208MOL    C7946033   2.535   6.650   0.914  0.1693 -0.2566  0.0306
  208MOL    C8046034   2.481   6.552   1.027  0.3638  0.0090  0.6676
  208MOL    O8146035   2.388   6.474   1.014  0.0081  0.5284  0.1539
  208MOL    C8246036   2.547   6.563   1.157  0.2844  0.8697  0.0569
  208MOL    C8346037   2.454   6.779   0.887 -0.0189 -0.2420  0.6948
  208MOL    H8446038   2.634   6.684   0.946 -0.2902  0.7109  0.4457
  208MOL    H8546039   2.499   6.493   1.225  1.1025 -2.1010 -2.3112
  208MOL    H8646040   2.653   6.537   1.161 -0.2408 -1.1394  1.4096
  208MOL    H8746041   2.519   6.660   1.198  1.3814  1.1533  0.1583
  208MOL    H8846042   2.367   6.756   0.826  0.4772 -0.8427  0.2118
  208MOL    H8946043   2.502   6.838   0.809 -1.7956  0.0680 -0.1848
  208MOL    C9046044   2.423   6.871   1.011  0.3075  0.1433 -0.4190
  208MOL    C9146045   2.270   6.913   1.014  0.1350  0.4682  0.0673
  208MOL    O9246046   2.236   7.029   0.991  0.2827  0.4738 -0.1579
  208MOL    C9346047   2.170   6.793   1.027 -0.4047 -0.5620  0.5221
  208MOL    C9446048   2.505   7.006   1.025 -0.0736 -0.2358 -0.2644
  208MOL    H9546049   2.429   6.815   1.104 -0.9187  0.3799 -0.1964
  208MOL    H9646050   2.107   6.795   1.116  0.3564  2.0625  1.0468
  208MOL    H9746051   2.102   6.799   0.942  1.0066  2.8216 -0.4877
  208MOL    H9846052   2.223   6.698   1.018  0.8774  0.3313 -1.7537
  208MOL    H9946053   2.470   7.070   1.106  0.8112 -1.8478  1.4230
  208MOL   H10046054   2.486   7.057   0.931 -2.7010  0.4637  0.5883
  208MOL   C10146055   2.659   6.986   1.044 -0.7069 -0.5603 -0.5002
  208MOL   C10246056   2.700   6.915   1.175 -1.1225  0.1353  0.6639
  208MOL   O10346057   2.609   6.869   1.248  0.0499  0.2272  0.0177
  208MOL   C10446058   2.846   6.889   1.212  0.1239 -0.4950  0.1047
  208MOL   C10546059   2.748   7.107   0.996  0.1800 -0.3449  0.2019
  208MOL   H10646060   2.675   6.911   0.966 -0.2870 -1.9125  0.8718
  208MOL   H10746061   2.851   6.920   1.317  0.6784  1.1996 -0.4041
  208MOL   H10846062   2.881   6.785   1.214  1.4216 -0.0625  1.8029
  208MOL   H10946063   2.909   6.963   1.163  2.0078 -0.1239  2.9415
  208MOL   H11046064   2.706   7.139   0.901 -0.5088  2.0172  1.2625
  208MOL   H11146065   2.848   7.070   0.973  0.9493  2.0825 -0.4648
  208MOL   C11246066   2.762   7.229   1.092 -0.6036 -0.7841 -0.6382
  208MOL   C11346067   2.668   7.350   1.054  0.6956 -0.0101 -0.1126
  208MOL   O11446068   2.670   7.399   0.938  0.5752 -0.0262 -0.0663
  208MOL   C11546069   2.552   7.390   1.149  0.0664  0.4394 -0.1696
  208MOL   C11646070   2.910   7.278   1.101 -0.8091  0.3141 -0.1599
  208MOL   H11746071   2.725   7.199   1.190 -1.5503  1.5917 -0.2522
  208MOL   H11846072   2.479   7.311   1.128 -1.4363  1.5651  0.6537
  208MOL   H11946073   2.590   7.377   1.251  1.6130  0.1913 -0.7820
  208MOL   H12046074   2.513   7.490   1.129  2.2748  0.9539 -1.9690
  208MOL   H12146075   2.947   7.292   0.999 -2.1123 -1.2814 -0.8741
  208MOL   H12246076   2.969   7.205   1.156  1.3875  1.5995 -0.7526
  208MOL   C12346077   2.940   7.407   1.176 -0.4779  0.0552 -0.5670
  208MOL   C12446078   3.081   7.461   1.164  0.0946  0.0609  0.7994
  208MOL   O12546079   3.166   7.468   1.255  0.2556  0.1423  0.5624
  208MOL   C12646080   3.115   7.515   1.023 -0.8218  0.7517  0.0330
  208MOL   C12746081   2.904   7.392   1.325  0.6077 -0.1074  0.2308
  208MOL   H12846082   2.875   7.489   1.145  1.9230  1.4823 -1.9638
  208MOL   H12946083   3.199   7.455   0.990 -1.0528  0.1277  0.5814
  208MOL   H13046084   3.033   7.519   0.950 -0.5939  0.6697 -0.2314
  208MOL   H13146085   3.153   7.615   1.043 -0.1443  0.3256  0.8808
  208MOL   H13246086   2.955   7.307   1.372 -0.6582 -0.2808  1.3323
  208MOL   H13346087   2.803   7.352   1.328  0.1002  1.2484  1.4348
  208MOL   C13446088   2.910   7.517   1.408 -1.1171 -0.3713 -0.4483
  208MOL   C13546089   2.960   7.479   1.546 -0.9823 -0.0779  0.4095
  208MOL   O13646090   2.898   7.401   1.613  0.6390 -0.1615  0.4139
  208MOL   C13746091   3.094   7.539   1.588 -0.1371 -0.3580  0.5131
  208MOL   C13846092   2.772   7.587   1.415  0.0813 -0.0560  0.5171
  208MOL   H13946093   2.985   7.579   1.359  2.2320 -2.5295  1.7374
  208MOL   H14046094   3.122   7.485   1.678  0.9616  0.2190  0.5244
  208MOL   H14146095   3.171   7.529   1.511 -0.4113  0.5284  0.1234
  208MOL   H14246096   3.092   7.645   1.613  2.6853  0.3584 -1.9385
  208MOL   H14346097   2.701   7.524   1.469  0.5886  0.5552  1.9310
  208MOL   H14446098   2.730   7.585   1.315  1.4607 -1.8977 -0.0573
  208MOL   C14546099   2.752   7.731   1.466  0.1854 -0.5920  0.0156
  208MOL   C14646100   2.614   7.787   1.437  0.0113 -0.0257 -0.0699
  208MOL   O14746101   2.529   7.734   1.361 -0.3115 -1.0562  0.1665
  208MOL   C14846102   2.562   0.069   1.507  0.0644 -0.4327  0.5098
  208MOL   C14946103   2.875   7.821   1.425  0.4557  0.0612  0.6961
  208MOL   H15046104   2.761   7.718   1.574  1.1855 -0.3659 -0.0308
  208MOL   H15146105   2.585   0.153   1.443  1.1720 -1.5897 -0.6338
  208MOL   H15246106   2.453   0.063   1.507  0.0447 -0.2852  1.8166
  208MOL   H15346107   2.600   0.076   1.609  1.1488  2.8210 -0.0804
  208MOL   H15446108   2.966   7.761   1.418  2.2329  2.5048  1.9740
  208MOL   H15546109   2.904   0.036   1.513 -0.0601  0.6212  0.5068
  208MOL   C15646110   2.863   0.070   1.303 -0.0285 -0.0515 -0.1254
  208MOL   C15746111   2.866   7.824   1.174  0.6546  0.3441  0.3734
  208MOL   O15846112   2.962   7.751   1.156 -0.3633 -0.1987 -0.1280
  208MOL   C15946113   2.736   7.827   1.097 -0.0168  0.4283 -0.3597
  208MOL   C16046114   2.967   0.183   1.291  0.1476 -0.3739  0.7887
  208MOL   H16146115   2.763   0.112   1.316 -0.9942 -2.6778  1.2543
  208MOL   H16246116   2.665   7.774   1.161  0.3877 -1.1697 -1.1974
  208MOL   H16346117   2.702   0.086   1.076  0.5349  1.0149  1.4619
  208MOL   H16446118   2.736   7.770   1.004 -2.9017 -2.0711  1.0896
  208MOL   H16546119   3.064   0.137   1.309 -0.1534 -1.7263 -0.9790
  208MOL   H16646120   2.948   0.254   1.372 -0.1158  0.4073  0.0569
  208MOL   C16746121   2.968   0.269   1.160  0.0916  0.0324 -0.5506
  208MOL   C16846122   3.096   0.350   1.151 -0.2414  0.6894  0.2450
  208MOL   O16946123   3.104   0.467   1.172  0.5409 -0.3147 -0.4817
  208MOL   C17046124   3.215   0.281   1.072  0.6739 -0.4634 -0.5806
  208MOL   C17146125   2.836   0.347   1.131  0.3709  0.0761 -0.2522
  208MOL   H17246126   2.970   0.204   1.073 -0.1739 -1.2078  0.3474
  208MOL   H17346127   3.301   0.264   1.136 -0.9499 -2.6744  1.0369
  208MOL   H17446128   3.183   0.182   1.039 -1.1922  0.1158 -0.5500
  208MOL   H17546129   3.240   0.347   0.988 -0.5243  0.3927 -0.2840
  208MOL   H17646130   2.766   0.266   1.153  1.7995 -1.1023  0.0952
  208MOL   H17746131   2.827   0.351   1.022 -0.8802 -0.2392 -0.1733
  208MOL   C17846132   2.801   0.477   1.204  0.4549 -0.6433  1.1432
  208MOL   C17946133   2.667   0.467   1.275  0.6832  0.6593  0.2100
  208MOL   O18046134   2.564   0.455   1.218 -0.6522  0.2286  0.1880
  208MOL   C18146135   2.679   0.447   1.422  0.5328 -0.2025  0.2064
  208MOL   C18246136   2.804   0.599   1.109  0.0888 -0.0432 -0.5015
  208MOL   H18346137   2.883   0.484   1.275  0.4074  0.6646  1.0677
  208MOL   H18446138   2.613   0.363   1.446  1.1599 -0.2260  1.8518
  208MOL   H18546139   2.783   0.426   1.445  1.1154  1.1530 -1.1259
  208MOL   H18646140   2.639   0.535   1.471 -3.2033 -1.6456 -0.0702
  208MOL   H18746141   2.723   0.582   1.038 -3.1594 -0.2507  3.0691
  208MOL   H18846142   2.892   0.599   1.045  0.3849  0.2077 -0.0961
  208MOL   C18946143   2.809   0.737   1.186 -0.4684  0.2472 -0.2982
  208MOL   C19046144   2.744   0.850   1.092  1.0142 -0.0087  0.6314
  208MOL   O19146145   2.802   0.879   0.987 -0.6852  0.3475 -0.0541
  208MOL   C19246146   2.619   0.917   1.135 -0.0887  1.0131  0.0764
  208MOL   C19346147   2.951   0.769   1.223 -0.7905 -0.1142  0.0498
  208MOL   H19446148   2.745   0.732   1.275 -0.1583 -2.0978 -0.1816
  208MOL   H19546149   2.575   0.983   1.060 -1.3125  0.0948 -0.0227
  208MOL   H19646150   2.549   0.839   1.165  0.1928  0.5170 -0.5608
  208MOL   H19746151   2.644   0.984   1.217  2.0412 -1.7657  1.7895
  208MOL   H19846152   3.006   0.766   1.128 -0.6973  0.6234  0.0726
  208MOL   H19946153   2.996   0.687   1.277 -2.3718 -0.5602  0.7135
  208MOL   C20046154   2.971   0.902   1.288  0.2315 -0.2656 -1.0035
  208MOL   C20146155   3.115   0.958   1.286  0.3153  0.4701 -0.7079
  208MOL   O20246156   3.210   0.880   1.289  0.0081 -0.6905  0.2108
  208MOL   C20346157   3.130   1.105   1.281  0.1892  0.0090 -0.7731
  208MOL   C20446158   2.916   0.908   1.436  0.1554 -0.0340 -0.5472
  208MOL   H20546159   2.917   0.976   1.229 -0.5450  2.1110  2.5451
  208MOL   H20646160   3.222   1.115   1.224  0.4696  0.1656 -0.2892
  208MOL   H20746161   3.046   1.165   1.246  0.1033 -0.7198 -1.8477
  208MOL   H20846162   3.149   1.142   1.381 -0.7968  0.1520 -0.6329
  208MOL   H20946163   2.810   0.888   1.452  0.8843 -3.7260  0.1430
  208MOL   H21046164   2.907   1.015   1.456 -0.1220 -0.7451  3.7218
  208MOL   C21146165   3.003   0.848   1.547 -0.0042 -0.0952  0.4675
  208MOL   C21246166   2.989   0.698   1.549  0.1227  0.0534  0.2849
  208MOL   O21346167   2.882   0.645   1.555 -0.6311 -0.3013 -0.2152
  208MOL   C21446168   3.113   0.615   1.531  0.8158  0.0895  0.3197
  208MOL   C21546169   2.972   0.896   1.681  0.6831 -0.6842 -0.4069
  208MOL   H21646170   3.109   0.860   1.526 -0.2239  0.8187 -0.1634
  208MOL   H21746171   3.085   0.510   1.538  1.6030 -0.1311  0.2997
  208MOL   H21846172   3.177   0.650   1.451  0.1036 -1.5109 -0.9910
  208MOL   H21946173   3.166   0.630   1.625 -0.0071 -2.9883  1.3580
  208MOL   H22046174   2.876   0.868   1.723  0.6102 -0.0854 -0.1567
  208MOL   H22146175   2.972   1.005   1.692  0.6181 -0.9000  2.1176
  208MOL   H22246176   3.046   0.861   1.753 -1.3695 -2.0623  1.0589
  209MOL     C146177   2.993   2.344   2.832 -0.6106  0.1751  0.2867
  209MOL     C246178   2.927   2.204   2.823  0.6589  0.0442  0.1027
  209MOL     O346179   2.814   2.191   2.865 -0.7859  0.6772 -0.2787
  209MOL     C446180   3.011   2.084   2.782  0.3477 -0.1080 -0.6111
  209MOL     C546181   2.900   2.446   2.902  0.1833  0.2468  0.0917
  209MOL     H646182   3.089   2.336   2.884 -1.0556  1.9215  1.4226
  209MOL     H746183   3.091   2.058   2.851 -1.1573 -3.2521  0.0132
  209MOL     H846184   2.940   2.001   2.785 -0.8919  0.9639  0.3831
  209MOL     H946185   3.051   2.114   2.685 -0.1902  1.0743 -0.4776
  209MOL    H1046186   2.860   2.405   2.995 -0.8452 -2.0184 -1.3035
  209MOL    H1146187   2.821   2.471   2.832  1.1653  2.1885 -0.3814
  209MOL    H1246188   3.003   2.379   2.730 -1.9803 -1.9211 -0.6240
  209MOL    C1346189   2.957   2.585   2.938 -0.3771 -0.3275  0.4065
  209MOL    C1446190   2.932   2.628   3.087  0.2447 -0.5867 -0.2016
  209MOL    O1546191   2.849   2.714   3.118 -0.3756 -0.3152 -0.0882
  209MOL    C1646192   3.018   2.563   3.191 -0.3069 -0.5279 -0.2456
  209MOL    C1746193   2.908   2.692   2.831 -0.1873  0.1457 -0.3896
  209MOL    H1846194   3.065   2.572   2.927 -0.5868  0.0303 -2.4411
  209MOL    H1946195   3.112   2.613   3.214 -1.0075 -0.6446  3.1190
  209MOL    H2046196   2.965   2.542   3.284  3.0662 -0.5213  1.7643
  209MOL    H2146197   3.033   2.461   3.156 -1.2480 -1.2256  1.2946
  209MOL    H2246198   2.805   2.717   2.857 -0.0053  0.0316  0.4454
  209MOL    H2346199   2.889   2.646   2.734 -1.6783  1.6670 -0.8456
  209MOL    C2446200   2.986   2.832   2.832 -0.4040 -0.5287  0.7629
  209MOL    C2546201   2.905   2.947   2.772  1.2756  0.9564 -0.5157
  209MOL    O2646202   2.935   2.994   2.662 -0.4433 -0.4854  0.0224
  209MOL    C2746203   2.797   3.010   2.856 -0.0037  0.5389  0.2165
  209MOL    C2846204   3.131   2.818   2.777  0.3701  0.0594  0.2912
  209MOL    H2946205   2.986   2.858   2.938 -2.0140 -2.8953  1.3699
  209MOL    H3046206   2.804   2.981   2.961  1.6465 -0.8071 -0.2285
  209MOL    H3146207   2.814   3.117   2.853 -0.0929  0.5465 -0.1193
  209MOL    H3246208   2.697   2.994   2.815  0.6526 -1.9905 -0.5142
  209MOL    H3346209   3.119   2.779   2.676  0.9639  0.0701  0.2098
  209MOL    H3446210   3.184   2.736   2.827 -1.3721 -0.1598  1.8118
  209MOL    C3546211   3.215   2.947   2.789 -0.4545 -0.4944  0.3774
  209MOL    C3646212   3.360   2.911   2.741 -0.4028 -0.6833  0.2090
  209MOL    O3746213   3.411   2.964   2.646  0.2577 -0.5394 -0.6228
  209MOL    C3846214   3.440   2.824   2.827 -0.5134  0.1978  0.0403
  209MOL    C3946215   3.198   3.023   2.921 -0.3348  0.1878  0.3361
  209MOL    H4046216   3.184   3.015   2.709  1.5276  0.3809  0.3119
  209MOL    H4146217   3.467   2.873   2.920 -0.5179 -0.9029  0.6288
  209MOL    H4246218   3.379   2.735   2.847 -1.6672  0.2506 -2.9182
  209MOL    H4346219   3.519   2.802   2.756 -0.9209  0.5683 -0.5371
  209MOL    H4446220   3.212   2.940   2.991 -0.0096 -0.4401 -0.4650
  209MOL    H4546221   3.093   3.053   2.917 -0.0762  1.0920  0.3566
  209MOL    C4646222   3.294   3.143   2.942 -0.1854  0.4546  0.6288
  209MOL    C4746223   3.312   3.170   3.089 -0.5087 -0.6092 -0.5610
  209MOL    O4846224   3.222   3.207   3.162 -0.5865  0.1098 -0.1411
  209MOL    C4946225   3.446   3.149   3.158  0.0779 -0.0298 -0.0132
  209MOL    C5046226   3.236   3.260   2.861  0.3715  0.0179  0.7757
  209MOL    H5146227   3.394   3.118   2.906 -0.6599  0.4244 -0.7054
  209MOL    H5246228   3.479   3.249   3.187 -0.9138  0.8344 -1.7435
  209MOL    H5346229   3.424   3.082   3.240 -0.9906  1.0513  0.6072
  209MOL    H5446230   3.524   3.124   3.086  0.0731 -2.4618  0.8191
  209MOL    H5546231   3.136   3.291   2.890  0.5360 -0.2301  1.6077
  209MOL    H5646232   3.221   3.211   2.764 -1.3659  1.7235  0.1621
  209MOL    C5746233   3.331   3.383   2.840 -0.1174  0.0536  0.1738
  209MOL    C5846234   3.473   3.338   2.796 -0.5670 -0.2913  0.1032
  209MOL    O5946235   3.572   3.343   2.869 -0.4028  0.1181 -0.2660
  209MOL    C6046236   3.494   3.311   2.649 -0.4821  0.3227 -0.1840
  209MOL    C6146237   3.337   3.491   2.957 -0.0446 -0.8977 -0.2299
  209MOL    H6246238   3.276   3.428   2.757 -1.9519  1.6398  2.1694
  209MOL    H6346239   3.533   3.210   2.634  0.3655  0.6815 -0.4352
  209MOL    H6446240   3.399   3.298   2.596  0.3607  0.4587 -1.7462
  209MOL    H6546241   3.550   3.388   2.597  0.6280  0.3653  1.0619
  209MOL    H6646242   3.420   3.558   2.938 -1.7734  0.9336 -1.5951
  209MOL    H6746243   3.351   3.449   3.056 -2.7826  1.5311  1.2732
  209MOL    C6846244   3.219   3.592   2.961  0.8938 -0.6052 -0.5146
  209MOL    C6946245   3.211   3.684   2.837  0.7979 -0.2804  0.4094
  209MOL    O7046246   3.307   3.725   2.777 -0.5519 -1.0274  0.0123
  209MOL    C7146247   3.071   3.730   2.800 -0.9078  0.3197 -0.7073
  209MOL    C7246248   3.194   3.672   3.089 -0.1595  0.1481  0.0062
  209MOL    H7346249   3.137   3.521   2.947 -1.8262  2.2199  0.5876
  209MOL    H7446250   3.020   3.640   2.766 -2.3608  0.9817 -0.3340
  209MOL    H7546251   3.029   3.764   2.895  0.9696 -0.0073  0.2624
  209MOL    H7646252   3.062   3.810   2.726  1.8218  0.8887 -0.4704
  209MOL    H7746253   3.194   3.604   3.175  0.6916  1.4546  1.0728
  209MOL    H7846254   3.094   3.713   3.092 -1.5790 -3.0273 -1.7653
  209MOL    C7946255   3.294   3.791   3.114 -0.5337  0.1975  0.4315
  209MOL    C8046256   3.364   3.786   3.248  0.4163  1.0000 -0.7624
  209MOL    O8146257   3.322   3.847   3.344  0.0563 -0.4805  0.8202
  209MOL    C8246258   3.497   3.701   3.250 -0.9355 -0.0340 -0.5070
  209MOL    C8346259   3.228   3.928   3.106  0.5512 -0.4551 -0.6273
  209MOL    H8446260   3.370   3.785   3.036 -1.6427  0.9934 -0.7217
  209MOL    H8546261   3.484   3.592   3.247  2.6034 -0.4703 -1.7489
  209MOL    H8646262   3.577   3.730   3.183 -0.7597  0.1985 -0.1957
  209MOL    H8746263   3.539   3.719   3.349  1.1421 -2.4676 -0.8948
  209MOL    H8846264   3.152   3.925   3.184  0.8502 -1.2076 -0.3647
  209MOL    H8946265   3.165   3.939   3.017  0.5437 -2.6814 -0.9394
  209MOL    C9046266   3.314   4.057   3.111 -0.9188 -0.0183  1.1273
  209MOL    C9146267   3.244   4.160   3.205 -1.0902  0.2475  0.2023
  209MOL    O9246268   3.125   4.187   3.191 -0.0451  0.1388 -0.1717
  209MOL    C9346269   3.337   4.234   3.304 -0.2880  0.2825 -0.0644
  209MOL    C9446270   3.351   4.133   2.977 -0.3015 -0.2869  0.1385
  209MOL    H9546271   3.407   4.043   3.167  0.4811 -0.1595 -1.1716
  209MOL    H9646272   3.380   4.312   3.240  0.0271  0.1382 -0.0284
  209MOL    H9746273   3.286   4.293   3.381 -1.7614 -1.6309  0.4592
  209MOL    H9846274   3.415   4.175   3.351 -1.5081 -0.4024  1.1150
  209MOL    H9946275   3.393   4.229   3.008  0.1291 -0.4839  0.1663
  209MOL   H10046276   3.262   4.160   2.920  1.8577 -0.2039 -3.3440
  209MOL   C10146277   3.453   4.066   2.879  0.4564  0.0636  0.3936
  209MOL   C10246278   3.590   4.045   2.938  0.4308 -0.0056  0.1630
  209MOL   O10346279   3.623   3.934   2.985 -1.1091 -0.0830 -0.4580
  209MOL   C10446280   3.679   4.168   2.962 -0.7240 -0.1921 -0.7670
  209MOL   C10546281   3.468   4.138   2.741  0.6482  0.3296 -0.3844
  209MOL   H10646282   3.420   3.966   2.852 -1.0858  0.9371 -1.0605
  209MOL   H10746283   3.620   4.259   2.947  1.0786  0.7798 -2.1142
  209MOL   H10846284   3.715   4.173   3.065  2.8470  0.2378 -1.9767
  209MOL   H10946285   3.765   4.171   2.896 -0.5104  1.0116 -0.4467
  209MOL   H11046286   3.496   4.244   2.747  2.0024 -0.0588  0.3661
  209MOL   H11146287   3.366   4.143   2.703  0.3943  1.4077  0.4132
  209MOL   C11246288   3.560   4.064   2.641 -0.1655  0.1919 -0.0158
  209MOL   C11346289   3.614   4.167   2.547  0.2863 -0.1395 -0.0333
  209MOL   O11446290   3.732   4.170   2.528 -0.4441  0.2890  0.0342
  209MOL   C11546291   3.515   4.250   2.456 -0.8945 -0.0980  0.5579
  209MOL   C11646292   3.503   3.944   2.563  0.1176 -0.7616  0.3684
  209MOL   H11746293   3.648   4.030   2.695 -0.8315 -1.7105 -0.1066
  209MOL   H11846294   3.485   4.343   2.505 -0.4635 -0.6230  1.8293
  209MOL   H11946295   3.577   4.267   2.368  2.7549 -0.9911  2.8544
  209MOL   H12046296   3.430   4.188   2.431 -1.6809  1.0182  0.4042
  209MOL   H12146297   3.447   3.976   2.475 -0.9105 -0.0419  1.2635
  209MOL   H12246298   3.433   3.884   2.623 -0.0090 -1.8880 -0.8928
  209MOL   C12346299   3.613   3.841   2.526  0.4200 -0.2305 -0.8943
  209MOL   C12446300   3.607   3.813   2.374  0.5871  0.0549 -0.0795
  209MOL   O12546301   3.566   3.706   2.335  0.1109 -0.3281  0.9289
  209MOL   C12646302   3.647   3.925   2.273 -0.5236 -0.0964  0.2695
  209MOL   C12746303   3.606   3.710   2.614 -0.3933  0.0553 -0.0108
  209MOL   H12846304   3.716   3.874   2.545  0.8102 -1.4623 -0.8243
  209MOL   H12946305   3.729   3.983   2.315  2.1121 -3.1311 -0.4561
  209MOL   H13046306   3.696   3.877   2.188  0.6921  2.6169 -0.6272
  209MOL   H13146307   3.564   3.993   2.251 -1.0035 -0.3282  1.3295
  209MOL   H13246308   3.554   3.624   2.573 -1.6685  0.4350  0.8007
  209MOL   H13346309   3.554   3.744   2.703 -1.4410 -1.9730  0.1754
  209MOL   C13446310   3.750   3.672   2.673  0.4319 -0.2015  0.5252
  209MOL   C13546311   3.842   3.598   2.566  0.5786 -0.6703 -0.3473
  209MOL   O13646312   3.810   3.493   2.506 -0.3103 -0.1262 -0.2033
  209MOL   C13746313   3.981   3.660   2.537  0.7780  0.0297  0.7605
  209MOL   C13846314   3.737   3.577   2.795  0.1845  0.3309 -0.9494
  209MOL   H13946315   3.791   3.761   2.719  2.3924 -1.3469  1.0648
  209MOL   H14046316   4.016   3.643   2.435 -2.6700 -0.5768 -0.4024
  209MOL   H14146317   3.964   3.768   2.544 -0.2127 -0.1153  0.6279
  209MOL   H14246318   4.061   3.652   2.611  0.7095 -2.0098  0.6366
  209MOL   H14346319   3.713   3.478   2.756  1.1696 -1.1557  2.0934
  209MOL   H14446320   3.652   3.607   2.857  0.0465  0.7284 -1.3318
  209MOL   C14546321   3.854   3.544   2.898 -0.4999 -0.8275  0.1131
  209MOL   C14646322   3.934   3.667   2.934 -0.0762 -0.2580  0.3384
  209MOL   O14746323   4.040   3.696   2.877  0.0674 -0.4896 -0.4522
  209MOL   C14846324   3.868   3.741   3.048  0.1762 -0.6786  0.1327
  209MOL   C14946325   3.941   3.427   2.843 -0.2615 -0.1117 -0.7018
  209MOL   H15046326   3.803   3.519   2.990 -2.3411  3.1974  0.3152
  209MOL   H15146327   3.861   3.848   3.031  1.9495 -0.1960  2.2058
  209MOL   H15246328   3.761   3.727   3.059  0.1315 -0.2122  0.3084
  209MOL   H15346329   3.925   3.739   3.141  3.4462  0.1387 -1.7578
  209MOL   H15446330   4.022   3.459   2.778 -1.1007  0.8524 -1.2744
  209MOL   H15546331   3.877   3.364   2.782 -0.2815 -0.7634 -0.0193
  209MOL   C15646332   3.999   3.339   2.954 -0.0535 -0.0580  0.1183
  209MOL   C15746333   4.122   3.271   2.900 -0.6546  0.0652 -1.0883
  209MOL   O15846334   4.106   3.160   2.842  0.4153  0.1365  0.0785
  209MOL   C15946335   4.258   3.339   2.910 -0.1596 -0.0861 -0.1140
  209MOL   C16046336   3.899   3.238   3.015  0.0158 -0.6051  0.0664
  209MOL   H16146337   4.040   3.404   3.032  1.0354  0.3365 -0.7802
  209MOL   H16246338   4.269   3.383   3.009  0.5656 -0.6302  0.0544
  209MOL   H16346339   4.331   3.266   2.875 -0.7542 -0.5566 -0.3618
  209MOL   H16446340   4.265   3.423   2.841 -1.2626 -1.2402 -1.6594
  209MOL   H16546341   3.852   3.175   2.940  1.0196  0.5288 -1.5617
  209MOL   H16646342   3.811   3.285   3.057  1.2263  2.0697 -0.2685
  209MOL   C16746343   3.939   3.165   3.147 -0.0282  0.3545  0.5980
  209MOL   C16846344   3.996   3.030   3.112 -0.4407 -0.4815 -0.2753
  209MOL   O16946345   4.121   3.007   3.132  0.0038 -0.4394  0.3393
  209MOL   C17046346   3.911   2.923   3.055 -0.0020  0.1509  0.0515
  209MOL   C17146347   3.818   3.147   3.253 -0.1897 -0.2278  1.0383
  209MOL   H17246348   4.014   3.224   3.199  0.2055  0.4007  0.2162
  209MOL   H17346349   3.878   2.849   3.127  3.5636 -1.6291 -0.0597
  209MOL   H17446350   3.818   2.963   3.015  0.4460  0.1825 -0.9827
  209MOL   H17546351   3.953   2.868   2.971 -0.8344  0.0047 -0.2659
  209MOL   H17646352   3.745   3.069   3.231 -0.6473  0.3295  0.5916
  209MOL   H17746353   3.752   3.233   3.258 -1.9801 -1.5491  0.6973
  209MOL   C17846354   3.863   3.121   3.403  0.1876 -0.1581  0.1311
  209MOL   C17946355   3.924   2.987   3.434 -0.0236 -0.2284  0.1514
  209MOL   O18046356   3.868   2.883   3.395 -0.2041  0.0970  0.0072
  209MOL   C18146357   4.036   2.979   3.533  0.8641 -0.2705 -0.5560
  209MOL   C18246358   3.746   3.139   3.503 -0.3432  0.7327  0.4119
  209MOL   H18346359   3.932   3.202   3.425  0.3713  0.7881 -3.6171
  209MOL   H18446360   4.022   3.057   3.607 -0.0748 -1.2260  0.2899
  209MOL   H18546361   4.033   2.890   3.596  2.9163 -1.3944 -1.9769
  209MOL   H18646362   4.140   2.994   3.503  1.2303  0.4368  1.0131
  209MOL   H18746363   3.774   3.098   3.600 -1.4223 -0.6100  0.1616
  209MOL   H18846364   3.668   3.071   3.472 -0.1673  0.7033  0.0363
  209MOL   C18946365   3.671   3.281   3.518 -0.4917 -0.3723 -1.0456
  209MOL   C19046366   3.773   3.387   3.566  0.3772  0.0896 -1.0313
  209MOL   O19146367   3.872   3.354   3.637  0.4293 -1.0770 -0.4221
  209MOL   C19246368   3.751   3.529   3.513 -0.3465  0.0461 -0.0905
  209MOL   C19346369   3.553   3.266   3.621 -0.0184  0.6118 -0.2029
  209MOL   H19446370   3.630   3.288   3.418 -1.0955 -1.8329 -0.9084
  209MOL   H19546371   3.849   3.577   3.515  0.3989 -1.4139 -1.1005
  209MOL   H19646372   3.710   3.532   3.412 -0.0881  1.9572 -0.1717
  209MOL   H19746373   3.685   3.582   3.582 -0.0310  1.1649 -0.6360
  209MOL   H19846374   3.490   3.184   3.586  2.8213 -2.2957  1.1943
  209MOL   H19946375   3.488   3.350   3.598  0.0831  0.2574 -1.8535
  209MOL   C20046376   3.579   3.265   3.776  0.2319 -0.0438  0.4554
  209MOL   C20146377   3.652   3.136   3.818 -1.3073 -0.0086  0.1223
  209MOL   O20246378   3.757   3.144   3.885 -0.1668  0.7018 -0.7039
  209MOL   C20346379   3.595   3.001   3.791  0.7720  0.6754  0.4813
  209MOL   C20446380   3.444   3.282   3.855 -0.4644  0.0529 -0.9745
  209MOL   H20546381   3.644   3.347   3.805 -0.1994  0.9511 -1.2822
  209MOL   H20646382   3.488   2.997   3.813  1.1289 -1.6451  2.0402
  209MOL   H20746383   3.613   2.973   3.687  1.0496  0.2651  0.6399
  209MOL   H20846384   3.630   2.929   3.865  0.8098 -0.3248 -0.4831
  209MOL   H20946385   3.378   3.196   3.844  0.0468 -0.7091  1.5839
  209MOL   H21046386   3.383   3.360   3.809  0.6681  1.8193  0.4068
  209MOL   C21146387   3.452   3.316   4.008 -0.5242 -0.0572 -0.4766
  209MOL   C21246388   3.481   3.193   4.093  0.4597  0.5053  0.1693
  209MOL   O21346389   3.424   3.083   4.076  0.2176 -0.0015 -0.0253
  209MOL   C21446390   3.606   3.199   4.182 -0.4143 -0.1975 -0.1581
  209MOL   C21546391   3.327   3.378   4.056  0.0437  0.6728  0.3877
  209MOL   H21646392   3.538   3.382   4.020 -0.8396 -0.0877  2.4477
  209MOL   H21746393   3.671   3.277   4.142  0.5660 -1.3299 -0.8076
  209MOL   H21846394   3.590   3.229   4.285 -0.0402 -1.0563  0.1529
  209MOL   H21946395   3.651   3.099   4.180 -2.3084 -1.1681  2.7960
  209MOL   H22046396   3.336   3.385   4.165  3.0848  0.9772  0.1685
  209MOL   H22146397   3.238   3.325   4.023  0.4360 -0.7371  1.5235
  209MOL   H22246398   3.311   3.476   4.010  0.6665 -0.6538 -2.7866
  210MOL     C146399   4.692   5.566   3.405  0.4850  0.1618  0.3160
  210MOL     C246400   4.682   5.456   3.295 -0.5793 -1.0381 -0.3070
  210MOL     O346401   4.611   5.476   3.199 -0.8966 -0.1254 -0.8332
  210MOL     C446402   4.777   5.340   3.310 -0.2027  0.5213  0.5651
  210MOL     C546403   4.638   5.695   3.360  0.3410  0.1425  0.1400
  210MOL     H646404   4.649   5.525   3.496 -0.9459  0.0035 -0.4060
  210MOL     H746405   4.792   5.309   3.413 -0.6589  0.2424  0.5531
  210MOL     H846406   4.734   5.249   3.267 -0.8394  1.0572  0.0657
  210MOL     H946407   4.876   5.358   3.268  1.2746 -0.7730  3.3779
  210MOL    H1046408   4.539   5.679   3.319  0.0671 -0.2853  0.9620
  210MOL    H1146409   4.699   5.731   3.277  0.8127  0.1309  0.4807
  210MOL    H1246410   4.798   5.590   3.404  0.6476 -0.5090 -1.2804
  210MOL    C1346411   4.648   5.807   3.463  0.0122  0.0615  0.3328
  210MOL    C1446412   4.586   5.770   3.597  0.9650  0.3012 -0.4047
  210MOL    O1546413   4.465   5.746   3.598 -0.2269  0.4224 -0.4019
  210MOL    C1646414   4.665   5.780   3.730  0.0924  0.0453 -0.0718
  210MOL    C1746415   4.588   5.941   3.406 -0.0274 -0.7382  0.4795
  210MOL    H1846416   4.754   5.830   3.472  0.5116 -0.8084 -2.7284
  210MOL    H1946417   4.656   5.684   3.780  1.8290 -0.3206 -0.4257
  210MOL    H2046418   4.768   5.793   3.694  0.0574 -0.4429 -0.3445
  210MOL    H2146419   4.640   5.868   3.789 -1.3292 -1.0077  0.9238
  210MOL    H2246420   4.481   5.923   3.402 -0.0556 -0.6563  0.7869
  210MOL    H2346421   4.623   5.966   3.306 -2.9627 -0.8036 -0.5988
  210MOL    C2446422   4.624   6.065   3.499  0.6633 -0.1006  1.3099
  210MOL    C2546423   4.521   6.173   3.464  1.0651 -0.0347  0.4811
  210MOL    O2646424   4.551   6.274   3.404 -0.3928 -0.2908  0.0442
  210MOL    C2746425   4.372   6.155   3.497 -0.0408 -0.2425  0.3215
  210MOL    C2846426   4.773   6.115   3.498 -0.1044 -0.1707 -0.2615
  210MOL    H2946427   4.591   6.051   3.602 -1.0077  2.2445  1.1331
  210MOL    H3046428   4.308   6.096   3.432 -0.0923 -0.5055  0.6093
  210MOL    H3146429   4.363   6.119   3.600  3.2257  2.4370  1.6359
  210MOL    H3246430   4.325   6.253   3.492  0.7631  0.0377 -2.5645
  210MOL    H3346431   4.795   6.182   3.415 -1.9610 -1.1141 -1.5568
  210MOL    H3446432   4.833   6.026   3.483 -0.4884 -0.2683 -1.2660
  210MOL    C3546433   4.810   6.188   3.639  0.1053  0.2003  0.0842
  210MOL    C3646434   4.814   6.094   3.759 -0.8860 -0.0367 -0.3199
  210MOL    O3746435   4.722   6.091   3.841 -0.2655 -0.0934  0.0947
  210MOL    C3846436   4.934   6.010   3.772 -0.3968  0.3934 -0.4145
  210MOL    C3946437   4.740   6.325   3.664 -0.2702 -0.4668 -0.2032
  210MOL    H4046438   4.910   6.230   3.632 -0.5024  1.3982 -2.0357
  210MOL    H4146439   5.028   6.056   3.801 -0.9834  0.9079  0.6971
  210MOL    H4246440   4.910   5.924   3.835 -0.0416 -0.4212 -1.3781
  210MOL    H4346441   4.954   5.986   3.668 -1.3108 -0.5914 -0.3783
  210MOL    H4446442   4.752   6.353   3.768  0.7045 -0.1646 -0.3964
  210MOL    H4546443   4.631   6.315   3.656 -0.4934  1.9883 -0.6450
  210MOL    C4646444   4.797   6.451   3.583 -0.4573  0.1433 -0.4736
  210MOL    C4746445   4.907   6.536   3.659  0.1189  0.6312  0.2373
  210MOL    O4846446   4.882   6.639   3.729  0.0627 -0.0528  0.2949
  210MOL    C4946447   5.056   6.499   3.632 -0.4871 -0.3571  0.0106
  210MOL    C5046448   4.692   6.546   3.518  0.2043  0.3198  0.2535
  210MOL    H5146449   4.823   6.408   3.486 -2.1994  1.0896 -1.3834
  210MOL    H5246450   5.055   6.450   3.535 -2.1715 -0.9830  0.3274
  210MOL    H5346451   5.113   6.592   3.635 -1.8664  0.5120 -0.6380
  210MOL    H5446452   5.103   6.428   3.701 -1.4783 -0.9541  0.0815
  210MOL    H5546453   4.655   6.495   3.429  2.7311 -3.7986  1.4114
  210MOL    H5646454   4.751   6.620   3.463  1.7543  0.1964  1.7059
  210MOL    C5746455   4.596   6.615   3.615  0.2586 -0.5323  0.1563
  210MOL    C5846456   4.468   6.541   3.642  0.2616  0.0156  0.3233
  210MOL    O5946457   4.454   6.483   3.750 -0.0655 -0.3626  0.5116
  210MOL    C6046458   4.357   6.536   3.536 -0.0183  0.1880  0.5546
  210MOL    C6146459   4.570   6.770   3.584  0.3489 -0.6428 -0.7646
  210MOL    H6246460   4.655   6.621   3.706 -3.0741 -1.5893  2.4850
  210MOL    H6346461   4.408   6.500   3.446  0.3916 -1.1294  1.3116
  210MOL    H6446462   4.286   6.458   3.562 -0.2584 -0.1111 -0.9365
  210MOL    H6546463   4.302   6.626   3.506  0.0960  0.2031  0.3913
  210MOL    H6646464   4.470   6.795   3.548  0.2792 -1.2085 -0.9763
  210MOL    H6746465   4.636   6.799   3.501  0.8975 -0.0047 -0.1121
  210MOL    C6846466   4.588   6.871   3.697  0.0078 -0.2100  0.0903
  210MOL    C6946467   4.478   6.855   3.800  0.4697 -0.4680  0.2217
  210MOL    O7046468   4.361   6.880   3.781 -0.8881 -0.2150 -0.1923
  210MOL    C7146469   4.531   6.807   3.933 -0.2109  0.1831 -0.4156
  210MOL    C7246470   4.607   7.015   3.656  0.6366  0.1698  0.2007
  210MOL    H7346471   4.682   6.844   3.745  0.3392  0.3328 -0.2545
  210MOL    H7446472   4.576   6.893   3.982  2.4829  1.7102 -5.3205
  210MOL    H7546473   4.446   6.762   3.985 -0.9963  2.4524  0.2963
  210MOL    H7646474   4.608   6.730   3.925  0.5210  0.7800  0.6984
  210MOL    H7746475   4.504   7.048   3.637  0.1633 -0.0965  2.1942
  210MOL    H7846476   4.661   7.021   3.562  0.2128 -0.7059 -0.1053
  210MOL    C7946477   4.682   7.097   3.771 -0.4156 -0.1523  0.2486
  210MOL    C8046478   4.586   7.169   3.857 -0.0086 -0.3032 -0.4737
  210MOL    O8146479   4.480   7.227   3.823  0.6053  0.1086  0.4997
  210MOL    C8246480   4.631   7.176   4.000 -0.4652 -0.1043  0.3647
  210MOL    C8346481   4.769   7.206   3.711 -0.6044 -0.3632  0.3673
  210MOL    H8446482   4.743   7.032   3.834 -0.3603 -0.6583 -0.3243
  210MOL    H8546483   4.737   7.155   4.010 -0.2078  0.7914 -0.4842
  210MOL    H8646484   4.606   7.269   4.050  0.0202  0.6877 -0.8473
  210MOL    H8746485   4.587   7.096   4.060 -1.0662 -1.4534 -1.8010
  210MOL    H8846486   4.821   7.277   3.775  1.0677 -1.5726  0.3956
  210MOL    H8946487   4.711   7.262   3.638  0.0903 -3.4309 -2.6725
  210MOL    C9046488   4.887   7.159   3.620  0.1728 -0.2652 -0.0681
  210MOL    C9146489   4.987   7.068   3.696 -0.7265  0.0324  0.7738
  210MOL    O9246490   5.059   7.115   3.786 -0.5138 -0.0894 -0.4518
  210MOL    C9346491   4.998   6.922   3.645 -0.0707  0.5585  0.6498
  210MOL    C9446492   4.950   7.294   3.559 -0.3355  0.0739  0.3932
  210MOL    H9546493   4.850   7.105   3.532  2.4889 -2.2626  0.1246
  210MOL    H9646494   4.899   6.878   3.637  0.3751 -0.2143 -0.8108
  210MOL    H9746495   5.051   6.904   3.552 -1.0473 -0.0267  0.2058
  210MOL    H9846496   5.054   6.859   3.715 -2.8078  0.5801  2.9597
  210MOL    H9946497   5.007   7.342   3.639  1.1819  0.0975 -0.6842
  210MOL   H10046498   4.871   7.369   3.551 -0.6994 -0.0014  2.9780
  210MOL   C10146499   5.039   7.290   3.428  0.0096 -1.2562  0.1878
  210MOL   C10246500   4.957   7.225   3.311  0.2451 -0.0702 -0.5221
  210MOL   O10346501   4.915   7.112   3.311 -0.3316  0.2936  0.5143
  210MOL   C10446502   4.929   7.317   3.195  0.6090 -0.0417 -0.1555
  210MOL   C10546503   5.180   7.224   3.452  0.3364  0.0835 -0.1201
  210MOL   H10646504   5.066   7.391   3.397  0.0152 -0.9979  1.0244
  210MOL   H10746505   4.969   7.417   3.208  1.4063 -0.5485  1.3798
  210MOL   H10846506   4.974   7.283   3.102  0.8909  0.0346 -0.0474
  210MOL   H10946507   4.822   7.326   3.173  0.3636 -2.8582 -0.3303
  210MOL   H11046508   5.165   7.117   3.468 -3.6032  0.6767  0.7822
  210MOL   H11146509   5.223   7.261   3.545 -1.0161  2.2040 -0.3036
  210MOL   C11246510   5.285   7.231   3.342  0.0655  0.5519 -0.2397
  210MOL   C11346511   5.378   7.110   3.352 -0.0126  0.5847  0.4695
  210MOL   O11446512   5.474   7.120   3.425  0.2098  0.0270 -0.4106
  210MOL   C11546513   5.341   6.985   3.270 -0.4664 -0.5374 -0.5037
  210MOL   C11646514   5.362   7.365   3.339  0.1010 -0.3654  0.1543
  210MOL   H11746515   5.219   7.214   3.257 -1.7616 -0.1389  1.2831
  210MOL   H11846516   5.369   7.003   3.166 -0.4108 -0.9032 -0.5526
  210MOL   H11946517   5.379   6.886   3.295  1.6330  0.4064  0.0706
  210MOL   H12046518   5.233   6.978   3.286 -1.0170  2.6715 -2.2875
  210MOL   H12146519   5.468   7.350   3.321  0.1953  1.3099 -0.8694
  210MOL   H12246520   5.355   7.402   3.441 -1.0814 -0.2277  0.0259
  210MOL   C12346521   5.314   7.469   3.232  0.5107  0.1738 -0.1703
  210MOL   C12446522   5.309   7.408   3.086 -0.3999  0.2988 -0.7765
  210MOL   O12546523   5.217   7.424   3.013  0.6835  0.0219  0.4309
  210MOL   C12646524   5.432   7.336   3.035  0.2876 -0.2059 -0.0490
  210MOL   C12746525   5.394   7.601   3.252 -0.0503 -0.2793  0.3845
  210MOL   H12846526   5.212   7.487   3.266  0.3091  2.1680 -1.7699
  210MOL   H12946527   5.495   7.291   3.112  1.9678  0.3314 -1.0782
  210MOL   H13046528   5.391   7.253   2.978 -0.9792  0.2535  0.1758
  210MOL   H13146529   5.488   7.411   2.979  0.7754 -1.1484 -0.8513
  210MOL   H13246530   5.476   7.603   3.180 -0.6037 -0.9514 -0.2681
  210MOL   H13346531   5.447   7.586   3.346 -0.5421 -1.0471  0.5384
  210MOL   C13446532   5.311   7.735   3.262 -0.1795  0.4602  0.4487
  210MOL   C13546533   5.218   7.730   3.144  0.1284  0.0130 -0.4462
  210MOL   O13646534   5.264   7.726   3.033  0.1878  0.2671 -0.4993
  210MOL   C13746535   5.070   7.710   3.158 -0.1789 -0.2956 -0.4768
  210MOL   C13846536   5.404   0.012   3.266  0.0962 -0.4294 -0.1159
  210MOL   H13946537   5.264   7.730   3.360  2.2411 -0.2838  1.6084
  210MOL   H14046538   5.019   7.747   3.069 -1.0850 -0.6714 -0.1175
  210MOL   H14146539   5.056   7.602   3.162 -2.1951 -0.1302 -1.9083
  210MOL   H14246540   5.026   7.757   3.245  0.2175 -2.7928  1.1229
  210MOL   H14346541   5.423   0.034   3.161  0.5140 -0.5973 -0.0769
  210MOL   H14446542   5.500   7.824   3.308  1.1008  2.9681  0.1314
  210MOL   C14546543   5.352   0.134   3.332 -0.0385 -0.3411  0.0078
  210MOL   C14646544   5.211   0.179   3.280  0.7353 -0.4715  0.0886
  210MOL   O14746545   5.113   0.137   3.327 -0.2389 -0.7576 -0.2945
  210MOL   C14846546   5.197   0.280   3.167  0.1887 -0.5135 -0.0111
  210MOL   C14946547   5.460   0.247   3.327  0.5354 -0.3032 -0.1587
  210MOL   H15046548   5.331   0.115   3.437 -2.9604 -2.4713 -0.8809
  210MOL   H15146549   5.279   0.252   3.101 -1.3769 -1.9019 -1.4046
  210MOL   H15246550   5.097   0.273   3.125 -0.5402  2.0629  1.2179
  210MOL   H15346551   5.206   0.380   3.211  1.9153 -0.2420 -0.9322
  210MOL   H15446552   5.407   0.339   3.352 -0.1063 -0.8611  0.5738
  210MOL   H15546553   5.503   0.264   3.229  1.1273  0.7408  0.2652
  210MOL   C15646554   5.570   0.240   3.432  0.6327  0.0539 -0.2403
  210MOL   C15746555   5.537   0.328   3.549 -0.0593  0.0110 -0.4630
  210MOL   O15846556   5.595   0.438   3.568  0.1587 -0.0619  0.7974
  210MOL   C15946557   5.441   0.278   3.654 -0.4161  0.0623  0.2698
  210MOL   C16046558   5.711   0.265   3.381  0.1767 -0.4221  0.8131
  210MOL   H16146559   5.581   0.135   3.460  0.2617  0.2058  0.4948
  210MOL   H16246560   5.502   0.266   3.744 -0.1993 -0.5449  0.0447
  210MOL   H16346561   5.370   0.359   3.673  0.8975  1.4332 -0.5701
  210MOL   H16446562   5.382   0.189   3.632 -0.7932  0.3383  0.1578
  210MOL   H16546563   5.711   0.369   3.348 -1.2426 -0.3459  1.0245
  210MOL   H16646564   5.741   0.200   3.299  0.8536  0.8887  0.0126
  210MOL   C16746565   5.831   0.246   3.484  0.6360 -0.9965  0.3399
  210MOL   C16846566   5.942   0.345   3.438  0.0644  0.2110  0.1604
  210MOL   O16946567   6.028   0.303   3.359 -0.3618 -0.7742  0.2155
  210MOL   C17046568   5.946   0.482   3.499 -0.0537  0.0045 -0.1244
  210MOL   C17146569   5.865   0.096   3.482  0.2525 -0.6422 -0.4040
  210MOL   H17246570   5.800   0.274   3.585  2.6866 -1.9676  1.2604
  210MOL   H17346571   6.021   0.493   3.576  1.0071 -2.8351 -0.6994
  210MOL   H17446572   5.971   0.553   3.420  2.5557  3.5697  3.6798
  210MOL   H17546573   5.854   0.516   3.547  1.6844 -0.4269  3.6243
  210MOL   H17646574   5.914   0.073   3.387  1.0644 -0.7116  0.0332
  210MOL   H17746575   5.773   0.041   3.460  0.9939 -1.4477 -1.5346
  210MOL   C17846576   5.954   0.046   3.598 -0.4974 -0.2690 -0.6101
  210MOL   C17946577   6.093   7.839   3.542 -0.0066  0.1232 -0.2040
  210MOL   O18046578   6.107   7.725   3.509  0.2904  0.2177  0.0611
  210MOL   C18146579   6.205   0.098   3.524 -0.1673  0.0427  0.3283
  210MOL   C18246580   5.878   7.781   3.685 -0.2703 -0.0811 -0.1975
  210MOL   H18346581   5.981   0.138   3.648  1.8124 -0.9942 -0.4238
  210MOL   H18446582   6.245   0.093   3.423  1.0513 -0.0062  0.8073
  210MOL   H18546583   6.174   0.201   3.541 -2.2950 -0.3800 -0.8505
  210MOL   H18646584   6.294   0.087   3.585  0.0877  0.5843  0.0616
  210MOL   H18746585   5.951   7.753   3.761 -0.8250 -1.4673 -0.1629
  210MOL   H18846586   5.850   7.692   3.629  0.5751  0.6252 -1.7790
  210MOL   C18946587   5.744   7.816   3.748  0.1764 -0.3671 -0.7762
  210MOL   C19046588   5.773   0.074   3.864  0.9067 -0.6493  0.0739
  210MOL   O19146589   5.767   0.195   3.839  0.3209 -0.0934  0.1337
  210MOL   C19246590   5.803   0.022   4.003 -0.7791 -0.4596 -0.0514
  210MOL   C19346591   5.655   7.692   3.790  0.6900  0.7051 -0.6352
  210MOL   H19446592   5.693   0.031   3.670  1.4917  0.0784 -1.3324
  210MOL   H19546593   5.898   0.056   4.045 -0.9090 -1.5146  1.1514
  210MOL   H19646594   5.713   0.044   4.060 -0.4417 -2.7541  1.4362
  210MOL   H19746595   5.808   7.755   4.010 -1.4739 -0.3894  1.8630
  210MOL   H19846596   5.575   7.715   3.860  1.0051 -0.1225  0.0046
  210MOL   H19946597   5.712   7.618   3.847 -1.3074 -0.0755  0.3816
  210MOL   C20046598   5.582   7.621   3.667  0.2662  0.0451 -0.0711
  210MOL   C20146599   5.435   7.665   3.668 -0.4547  0.2956 -0.1141
  210MOL   O20246600   5.386   7.737   3.582  0.4714  0.3209 -0.1594
  210MOL   C20346601   5.341   7.612   3.775  0.0017 -0.1727 -0.1537
  210MOL   C20446602   5.597   7.466   3.689 -0.8048  0.5813  0.6401
  210MOL   H20546603   5.621   7.659   3.573  0.7141  0.9734  0.4785
  210MOL   H20646604   5.265   7.552   3.725 -0.5276  0.1265  0.2785
  210MOL   H20746605   5.402   7.547   3.837  0.2017 -0.1819 -0.3579
  210MOL   H20846606   5.299   7.684   3.845 -0.2938 -0.5597  0.0679
  210MOL   H20946607   5.519   7.416   3.631  0.6387  0.0163 -0.8322
  210MOL   H21046608   5.574   7.427   3.788 -0.4076 -1.1889  0.0534
  210MOL   C21146609   5.729   7.407   3.652  0.1123  0.3855 -0.7779
  210MOL   C21246610   5.762   7.446   3.507 -0.1787 -0.4121  1.1368
  210MOL   O21346611   5.682   7.437   3.417 -0.3380 -0.2085 -0.1772
  210MOL   C21446612   5.913   7.482   3.480  0.3905  0.3414 -0.0248
  210MOL   C21546613   5.738   7.253   3.668  0.1951  1.2871 -0.1866
  210MOL   H21646614   5.806   7.455   3.713  0.8268  0.4704 -1.7209
  210MOL   H21746615   5.951   7.408   3.410 -0.3053 -0.9420  0.9256
  210MOL   H21846616   5.926   7.581   3.437 -0.9096  0.3890 -0.3365
  210MOL   H21946617   5.964   7.476   3.576  0.6775 -2.2724 -0.3043
  210MOL   H22046618   5.742   7.219   3.565  0.7441  3.9221 -1.0786
  210MOL   H22146619   5.662   7.195   3.722 -0.1714 -0.9463 -3.0242
  210MOL   H22246620   5.833   7.216   3.705 -0.5515 -1.4419 -0.8466
  211MOL     C146621   1.099   7.213   3.083 -0.3753  0.9700 -0.0834
  211MOL     C246622   1.224   7.298   3.061 -0.0442 -0.4618 -0.0123
  211MOL     O346623   1.333   7.254   3.045 -0.5651 -0.0336  0.3828
  211MOL     C446624   1.199   7.451   3.060  0.1872 -0.8095  0.0158
  211MOL     C546625   1.019   7.181   2.949 -0.2452  0.5340  0.4480
  211MOL     H646626   1.115   7.125   3.145 -1.4025  0.8799  0.0676
  211MOL     H746627   1.251   7.493   2.974  0.5398 -1.4594 -0.0899
  211MOL     H846628   1.093   7.470   3.044  0.3054 -0.7835 -0.7202
  211MOL     H946629   1.217   7.489   3.161 -1.0665  1.7190 -0.6650
  211MOL    H1046630   1.097   7.183   2.873 -0.6326  0.5763  0.0468
  211MOL    H1146631   0.963   7.269   2.916  0.8512  1.0341 -0.0837
  211MOL    H1246632   1.043   7.264   3.161 -0.9281 -0.2179  0.3066
  211MOL    C1346633   0.914   7.061   2.961 -0.4425  0.3919 -0.1232
  211MOL    C1446634   0.877   7.013   2.822 -0.1105  0.4523  0.1292
  211MOL    O1546635   0.859   7.085   2.727  0.1317  0.1613  0.1706
  211MOL    C1646636   0.871   6.864   2.812 -0.7433 -0.1144  0.7470
  211MOL    C1746637   0.785   7.078   3.051 -0.2603 -0.2831  0.1796
  211MOL    H1846638   0.970   6.975   2.997  1.8510  0.7910 -2.6552
  211MOL    H1946639   0.918   6.805   2.891  0.9327 -1.0164 -0.8662
  211MOL    H2046640   0.766   6.837   2.822 -1.0181  1.3571  2.0134
  211MOL    H2146641   0.913   6.830   2.717  0.1132  0.9787  0.7117
  211MOL    H2246642   0.704   7.018   3.010 -2.0506  2.4782 -0.4444
  211MOL    H2346643   0.743   7.177   3.031 -0.0175 -0.0097  1.0189
  211MOL    C2446644   0.805   7.028   3.197 -0.3829  0.6269 -0.5531
  211MOL    C2546645   0.800   6.875   3.208  0.0782 -0.4423 -0.0048
  211MOL    O2646646   0.708   6.816   3.160  0.5930  0.4897  0.1563
  211MOL    C2746647   0.922   6.793   3.268 -0.0708 -0.6625 -0.2559
  211MOL    C2846648   0.703   7.102   3.287 -0.1624  0.7231  0.5730
  211MOL    H2946649   0.909   7.051   3.222 -0.6482  1.1343  0.1016
  211MOL    H3046650   0.953   6.817   3.369 -0.2241  0.8034 -0.5562
  211MOL    H3146651   0.916   6.684   3.258  0.5702 -0.5510 -2.0861
  211MOL    H3246652   1.000   6.815   3.195 -0.1201  1.6438  0.3821
  211MOL    H3346653   0.606   7.058   3.266 -0.3911  0.2745  2.4932
  211MOL    H3446654   0.692   7.207   3.263  0.6108  1.0776  1.7312
  211MOL    C3546655   0.726   7.105   3.442  0.1703  0.0496 -0.3977
  211MOL    C3646656   0.875   7.146   3.482 -0.4234  0.2131  0.6677
  211MOL    O3746657   0.965   7.066   3.507  0.1710  0.1713 -0.9406
  211MOL    C3846658   0.909   7.295   3.475 -0.1027  0.1489  0.3197
  211MOL    C3946659   0.680   6.974   3.514 -0.2709  0.3048  1.0950
  211MOL    H4046660   0.670   7.189   3.483 -0.5919 -1.5577  1.9275
  211MOL    H4146661   0.998   7.307   3.536  1.5511 -1.2799 -1.7423
  211MOL    H4246662   0.945   7.328   3.378 -0.9775 -1.1663 -0.4678
  211MOL    H4346663   0.831   7.361   3.513  1.4708  0.8591  2.3905
  211MOL    H4446664   0.687   7.013   3.616  4.1496  0.1008  0.9526
  211MOL    H4546665   0.747   6.890   3.500 -0.1464  0.4577  0.7727
  211MOL    C4646666   0.536   6.925   3.491 -0.7442 -0.0680 -0.6692
  211MOL    C4746667   0.437   7.038   3.522  0.5171  0.2415  0.1354
  211MOL    O4846668   0.384   7.101   3.431  0.1143 -0.4384 -0.1027
  211MOL    C4946669   0.393   7.068   3.663  0.4008  0.2322  0.1048
  211MOL    C5046670   0.507   6.801   3.575 -0.0641  0.4579  0.6878
  211MOL    H5146671   0.533   6.894   3.387  1.5483  1.8235 -1.3368
  211MOL    H5246672   0.468   7.122   3.721  0.3300  0.6826 -0.2210
  211MOL    H5346673   0.307   7.133   3.676  0.9006  0.7746  0.7184
  211MOL    H5446674   0.378   6.980   3.725  0.9948 -1.0724 -1.5525
  211MOL    H5546675   0.543   6.820   3.676 -2.3908  1.0047  1.4490
  211MOL    H5646676   0.575   6.721   3.545 -1.1451  0.2810 -1.3587
  211MOL    C5746677   0.361   6.739   3.565 -0.0288 -0.2853 -0.1351
  211MOL    C5846678   0.342   6.638   3.683 -0.3735  0.5295  0.5712
  211MOL    O5946679   0.365   6.522   3.664 -0.3559  0.0142  0.5466
  211MOL    C6046680   0.318   6.693   3.821 -0.0097 -0.5561 -0.0767
  211MOL    C6146681   0.342   6.675   3.421 -0.3108 -0.4900 -0.1135
  211MOL    H6246682   0.284   6.813   3.585 -0.5668 -1.3068  1.6610
  211MOL    H6346683   0.339   6.799   3.810  0.8418 -0.6128  0.8985
  211MOL    H6446684   0.211   6.678   3.834  0.1889 -1.2368  0.8283
  211MOL    H6546685   0.387   6.652   3.895  1.1833 -0.9402 -1.3790
  211MOL    H6646686   0.322   6.569   3.435 -0.5753 -0.2245  1.7288
  211MOL    H6746687   0.436   6.684   3.366  0.1693 -0.1487  0.7463
  211MOL    C6846688   0.240   6.725   3.327  0.5525  1.0937  0.1634
  211MOL    C6946689   0.109   6.732   3.398  0.3044  0.0248 -0.0143
  211MOL    O7046690   0.079   6.668   3.499  0.2805  0.4579  0.0391
  211MOL    C7146691   0.000   6.829   3.346 -0.4038  1.2128  0.0877
  211MOL    C7246692   0.232   6.648   3.200 -0.6555 -0.0928  0.8112
  211MOL    H7346693   0.276   6.824   3.302  3.0999  0.7336  2.2115
  211MOL    H7446694   0.024   6.931   3.376 -2.1129  1.4559  0.6731
  211MOL    H7546695   0.013   6.825   3.238 -0.2195  2.7070  0.0441
  211MOL    H7646696   7.741   6.812   3.384 -0.7091  0.4911 -1.0253
  211MOL    H7746697   0.134   6.655   3.152 -1.1709 -1.2080  1.6795
  211MOL    H7846698   0.250   6.543   3.223  1.2742 -0.0649 -0.4819
  211MOL    C7946699   0.336   6.680   3.093 -0.4959 -0.1737  0.4325
  211MOL    C8046700   0.306   6.820   3.025  0.1007 -0.4667 -0.3747
  211MOL    O8146701   0.190   6.860   3.008  0.0689 -0.5862  0.6567
  211MOL    C8246702   0.431   6.895   2.968  0.7074  0.1135 -0.4972
  211MOL    C8346703   0.339   6.573   2.980 -0.2350  0.0137 -0.1304
  211MOL    H8446704   0.437   6.684   3.134 -0.6122 -0.8397  0.7932
  211MOL    H8546705   0.422   6.881   2.860  1.2532 -2.3510 -0.2699
  211MOL    H8646706   0.428   7.001   2.993 -0.6500  0.0397 -0.3109
  211MOL    H8746707   0.527   6.854   2.998  0.4059 -1.1884 -1.2524
  211MOL    H8846708   0.240   6.571   2.934 -1.0314  1.6517  1.4711
  211MOL    H8946709   0.346   6.477   3.032  2.4538 -0.4405 -1.2560
  211MOL    C9046710   0.460   6.558   2.888  1.1493 -1.3728  0.0024
  211MOL    C9146711   0.457   6.645   2.757 -0.4371 -0.1834 -0.7111
  211MOL    O9246712   0.556   6.708   2.727  0.0179 -0.1106  0.0789
  211MOL    C9346713   0.325   6.658   2.678  0.1710  0.2130  0.3029
  211MOL    C9446714   0.498   6.416   2.849  0.1181 -0.3088 -0.3854
  211MOL    H9546715   0.533   6.601   2.956  0.1405  0.7240 -0.2021
  211MOL    H9646716   0.241   6.640   2.745  0.7234  0.4257  1.0571
  211MOL    H9746717   0.307   6.754   2.630 -2.3010  0.9109  2.5028
  211MOL    H9846718   0.333   6.580   2.601  1.4075  0.3322  0.3050
  211MOL    H9946719   0.516   6.402   2.742  1.6687  0.6622 -0.2706
  211MOL   H10046720   0.427   6.340   2.881 -1.3009  1.1992  0.0567
  211MOL   C10146721   0.628   6.375   2.916 -0.4061  0.2086 -0.0650
  211MOL   C10246722   0.750   6.459   2.874 -0.3891  0.2876 -0.7987
  211MOL   O10346723   0.780   6.472   2.765  0.3785 -0.1380  0.3018
  211MOL   C10446724   0.847   6.504   2.991  0.1862  0.0707 -0.5079
  211MOL   C10546725   0.656   6.233   2.892 -0.8931  0.4176  0.4340
  211MOL   H10646726   0.618   6.402   3.022  1.7256 -1.2273  0.5371
  211MOL   H10746727   0.910   6.578   2.942 -0.9385  0.3510 -1.5494
  211MOL   H10846728   0.783   6.549   3.067  1.1895 -2.3001  1.8378
  211MOL   H10946729   0.891   6.416   3.037 -1.0793  0.4492  1.4830
  211MOL   H11046730   0.760   6.212   2.915  0.0051  1.7783 -2.1023
  211MOL   H11146731   0.649   6.208   2.786  0.5919 -0.6668  0.5741
  211MOL   C11246732   0.575   6.127   2.970  0.2787  0.0826  0.9580
  211MOL   C11346733   0.595   6.154   3.120 -1.1748  0.0628  0.1900
  211MOL   O11446734   0.704   6.134   3.170 -0.9649  0.2491 -0.0145
  211MOL   C11546735   0.480   6.199   3.203  0.1422  1.1337  0.1903
  211MOL   C11646736   0.609   5.979   2.943  0.1020 -0.7858  0.4352
  211MOL   H11746737   0.469   6.136   2.948  0.5352  2.6875  0.6900
  211MOL   H11846738   0.491   6.171   3.307 -1.5157  2.4615  0.7489
  211MOL   H11946739   0.477   6.308   3.212  0.7297  1.0690  1.1954
  211MOL   H12046740   0.388   6.168   3.153  1.2742 -1.5087 -0.3413
  211MOL   H12146741   0.541   5.920   3.005 -1.0733  0.5571  0.4399
  211MOL   H12246742   0.704   5.955   2.991  0.4698  0.5695  0.3866
  211MOL   C12346743   0.608   5.925   2.800  0.3812 -0.4642  0.2356
  211MOL   C12446744   0.475   5.947   2.722  0.2761  0.2246 -0.0754
  211MOL   O12546745   0.370   5.945   2.779  0.0563  0.5523  0.5355
  211MOL   C12646746   0.485   5.974   2.572  0.1001 -0.1936  0.1918
  211MOL   C12746747   0.647   5.773   2.796  0.5336 -0.0114 -0.4403
  211MOL   H12846748   0.680   5.990   2.749 -1.4202  1.9673  0.6928
  211MOL   H12946749   0.567   5.926   2.518  0.9193  0.2017  1.0635
  211MOL   H13046750   0.395   5.942   2.520 -0.3802 -1.6703  1.8868
  211MOL   H13146751   0.499   6.079   2.550  0.2834  0.3171  2.5405
  211MOL   H13246752   0.603   5.725   2.708 -0.1394  0.8448 -0.5864
  211MOL   H13346753   0.594   5.737   2.884 -0.8302 -0.2077 -1.3215
  211MOL   C13446754   0.799   5.737   2.821 -0.0071 -0.7367 -0.6676
  211MOL   C13546755   0.900   5.813   2.729 -0.5203 -0.5982 -0.1960
  211MOL   O13646756   0.994   5.870   2.778  0.4420  0.3837 -0.3468
  211MOL   C13746757   0.902   5.786   2.587  0.3152 -0.0607  0.1299
  211MOL   C13846758   0.823   5.588   2.817 -0.7178  0.2825  0.0173
  211MOL   H13946759   0.839   5.762   2.919 -1.3578 -0.1948 -0.2538
  211MOL   H14046760   0.966   5.852   2.529  0.8276 -0.6238  0.0564
  211MOL   H14146761   0.948   5.690   2.564  0.2961 -0.2129  0.7191
  211MOL   H14246762   0.799   5.799   2.553  0.1259 -1.1103  0.3094
  211MOL   H14346763   0.788   5.553   2.720 -1.1938 -1.0959  0.6762
  211MOL   H14446764   0.746   5.552   2.886 -1.1028 -0.0692 -0.5952
  211MOL   C14546765   0.971   5.534   2.839 -0.4921 -0.6463 -1.0945
  211MOL   C14646766   0.989   5.390   2.769  0.1873  0.0864 -0.4347
  211MOL   O14746767   0.928   5.292   2.810 -0.2349 -0.3669 -0.1635
  211MOL   C14846768   1.072   5.384   2.641 -1.0150 -0.5868 -0.5150
  211MOL   C14946769   1.026   5.535   2.983 -0.2171  1.2569  0.3490
  211MOL   H15046770   1.037   5.592   2.774  0.2043  0.7654  0.8052
  211MOL   H15146771   1.028   5.441   2.559 -2.2085  0.8771  1.1117
  211MOL   H15246772   1.172   5.416   2.670 -1.5924 -1.3656  2.5242
  211MOL   H15346773   1.067   5.278   2.613  1.6391 -1.1988  1.1784
  211MOL   H15446774   0.985   5.455   3.044 -0.8560  0.4536 -1.1087
  211MOL   H15546775   0.990   5.634   3.013 -0.0393  1.3180  0.3601
  211MOL   C15646776   1.179   5.540   3.008  0.3516 -0.8720  0.3442
  211MOL   C15746777   1.242   5.403   3.031  0.1878  0.0084 -0.0028
  211MOL   O15846778   1.314   5.354   2.942  0.4439 -0.1222 -0.4792
  211MOL   C15946779   1.240   5.333   3.174 -0.0638 -0.0347 -0.5618
  211MOL   C16046780   1.220   5.641   3.117 -0.0164  0.3959 -0.0401
  211MOL   H16146781   1.222   5.568   2.912  0.2107 -0.8488  0.2881
  211MOL   H16246782   1.334   5.301   3.220 -0.2123 -0.0995 -0.2973
  211MOL   H16346783   1.198   5.406   3.243  0.4567 -0.3767  0.1194
  211MOL   H16446784   1.166   5.252   3.177  1.7939 -1.7312  0.9151
  211MOL   H16546785   1.185   5.600   3.211 -0.1698  0.7383  0.0509
  211MOL   H16646786   1.159   5.730   3.109 -0.6298  0.2438  2.6032
  211MOL   C16746787   1.372   5.677   3.118 -0.4173  0.0760  0.3207
  211MOL   C16846788   1.426   5.738   3.247 -0.3021  0.0147  0.4112
  211MOL   O16946789   1.347   5.772   3.332 -0.2933 -0.0211  0.2238
  211MOL   C17046790   1.577   5.764   3.265 -0.7014  0.5261 -0.0799
  211MOL   C17146791   1.410   5.750   2.989  1.1376  0.1951 -0.0972
  211MOL   H17246792   1.426   5.582   3.113  0.4023  0.6005 -1.1463
  211MOL   H17346793   1.613   5.815   3.354  0.6784 -0.3466 -0.1269
  211MOL   H17446794   1.611   5.661   3.256 -2.2725 -0.0124  0.0118
  211MOL   H17546795   1.626   5.824   3.188  1.5582 -0.1807  0.7780
  211MOL   H17646796   1.464   5.839   3.023 -1.5977  1.0565  2.1328
  211MOL   H17746797   1.330   5.791   2.928 -1.7423 -2.7393  1.5957
  211MOL   C17846798   1.506   5.677   2.887  0.1304 -0.5991 -0.9543
  211MOL   C17946799   1.639   5.625   2.950  0.2612  0.1914 -0.0092
  211MOL   O18046800   1.716   5.699   3.011  0.5020 -0.1008  0.2426
  211MOL   C18146801   1.685   5.481   2.929  0.1431 -0.5942  0.6041
  211MOL   C18246802   1.548   5.772   2.774 -0.1284 -0.0638  0.7045
  211MOL   H18346803   1.457   5.592   2.841 -1.3303  0.2841 -1.0627
  211MOL   H18446804   1.706   5.462   2.824  1.1455 -1.7444  1.0100
  211MOL   H18546805   1.777   5.467   2.985 -0.0369 -2.3967  0.4606
  211MOL   H18646806   1.613   5.407   2.964  0.0410 -1.2754 -1.0455
  211MOL   H18746807   1.608   5.851   2.818  1.3314 -0.7135 -0.1082
  211MOL   H18846808   1.464   5.830   2.737 -0.2509  1.1176  2.7549
  211MOL   C18946809   1.624   5.721   2.646  0.2976  0.5756  0.0273
  211MOL   C19046810   1.668   5.833   2.554 -0.6812 -0.4182 -0.3463
  211MOL   O19146811   1.595   5.919   2.505 -0.0006  0.0715 -0.3328
  211MOL   C19246812   1.819   5.843   2.534 -0.2730  0.5617  0.1427
  211MOL   C19346813   1.557   5.615   2.557  0.3404 -0.1043 -0.6792
  211MOL   H19446814   1.716   5.675   2.681  1.3724  1.6841 -1.2682
  211MOL   H19546815   1.852   5.878   2.632 -1.0738  1.8026 -0.0212
  211MOL   H19646816   1.853   5.748   2.492 -1.6021 -0.4670  1.3692
  211MOL   H19746817   1.842   5.914   2.454 -1.6619  0.5638 -0.2644
  211MOL   H19846818   1.524   5.543   2.633  1.5345 -1.8937 -1.8334
  211MOL   H19946819   1.633   5.557   2.507 -1.3231 -0.5001 -2.8204
  211MOL   C20046820   1.436   5.652   2.459  0.4646 -0.4005 -0.4689
  211MOL   C20146821   1.316   5.714   2.531 -0.2423  0.0656  0.3146
  211MOL   O20246822   1.256   5.664   2.626 -0.2098  0.1478  0.5383
  211MOL   C20346823   1.272   5.841   2.476  0.0466  0.1214  0.1363
  211MOL   C20446824   1.405   5.520   2.378 -0.1523  0.9216 -0.3408
  211MOL   H20546825   1.479   5.719   2.385  0.7191  0.0368  0.0684
  211MOL   H20646826   1.234   5.898   2.561 -1.1042  0.4571 -0.5954
  211MOL   H20746827   1.347   5.896   2.419 -1.4338  1.5934 -0.4581
  211MOL   H20846828   1.179   5.820   2.422  0.0180 -1.3143  0.7312
  211MOL   H20946829   1.367   5.447   2.449 -0.5665 -0.3360 -1.8426
  211MOL   H21046830   1.499   5.471   2.354  0.0265 -0.5592  3.1392
  211MOL   C21146831   1.314   5.532   2.249 -0.2217 -0.7213 -0.0596
  211MOL   C21246832   1.330   5.408   2.155  0.4755 -0.2170  0.0333
  211MOL   O21346833   1.433   5.344   2.145 -0.6806  0.3319 -0.2525
  211MOL   C21446834   1.216   5.356   2.068 -0.1239  0.3905 -0.3870
  211MOL   C21546835   1.347   5.650   2.155 -0.0267  0.1892 -0.4223
  211MOL   H21646836   1.209   5.535   2.279 -0.1354 -2.1336  0.4040
  211MOL   H21746837   1.208   5.415   1.976 -0.4347 -1.5276 -1.6129
  211MOL   H21846838   1.248   5.255   2.046  2.2447  1.2269 -0.8861
  211MOL   H21946839   1.130   5.349   2.134  0.0123 -0.2726 -0.2778
  211MOL   H22046840   1.448   5.641   2.116 -0.0542 -1.6331 -0.1371
  211MOL   H22146841   1.336   5.746   2.204 -0.5359 -0.2230  0.2885
  211MOL   H22246842   1.261   5.649   2.087 -1.1646 -0.2503  0.9968
  212MOL     C146843   5.515   0.674   7.639 -0.5059  0.1504  0.0938
  212MOL     C246844   5.563   0.662   7.791  0.8100 -0.4035  1.7613
  212MOL     O346845   5.665   0.592   7.822  0.1565  0.4759 -0.3317
  212MOL     C446846   5.493   0.745   0.055  0.0973  0.7122  1.0421
  212MOL     C546847   5.615   0.625   7.529  0.0377  0.8003 -0.1549
  212MOL     H646848   5.427   0.610   7.630 -0.5955  0.5330 -1.9581
  212MOL     H746849   5.385   0.733   0.050  0.3926 -2.3944  1.1206
  212MOL     H846850   5.534   0.716   0.151 -2.1467 -1.2457  1.4357
  212MOL     H946851   5.526   0.848   0.035 -0.6152  0.8993  0.8268
  212MOL    H1046852   5.719   0.627   7.563 -0.1632  1.5587  0.4170
  212MOL    H1146853   5.622   0.699   7.450 -1.6221  1.0057 -0.1102
  212MOL    H1246854   5.487   0.778   7.622  1.3966  0.9697  1.7806
  212MOL    C1346855   5.604   0.480   7.473  0.0942 -0.1019 -0.3213
  212MOL    C1446856   5.471   0.458   7.403 -0.0366  0.7119 -0.0730
  212MOL    O1546857   5.364   0.444   7.465  0.3433  0.1189  0.2779
  212MOL    C1646858   5.482   0.449   7.257  0.2071 -0.5485  0.4405
  212MOL    C1746859   5.631   0.375   7.576 -0.3488 -0.3731  0.5616
  212MOL    H1846860   5.680   0.486   7.396 -3.0726 -0.1130 -3.5881
  212MOL    H1946861   5.484   0.345   7.225  1.2606 -0.3143 -0.2747
  212MOL    H2046862   5.403   0.495   7.198  0.7829  2.8568  2.1446
  212MOL    H2146863   5.573   0.504   7.231  0.6511 -2.2562 -1.7325
  212MOL    H2246864   5.581   0.286   7.536  1.0381 -0.6823 -0.5459
  212MOL    H2346865   5.562   0.384   7.660  0.4520  0.9921  1.0916
  212MOL    C2446866   5.783   0.335   7.613 -0.4704  0.1497 -0.5770
  212MOL    C2546867   5.872   0.308   7.494 -0.0964  0.3721 -0.0610
  212MOL    O2646868   5.824   0.283   7.385 -0.1036  0.0483  0.3214
  212MOL    C2746869   6.023   0.296   7.518  0.1918 -0.1451 -1.0608
  212MOL    C2846870   5.793   0.217   7.715  0.5939 -0.2439 -0.0598
  212MOL    H2946871   5.833   0.423   7.655  1.1010  0.4563 -3.0184
  212MOL    H3046872   6.078   0.376   7.469  0.9738 -0.4288 -0.6519
  212MOL    H3146873   6.042   0.317   7.623 -2.0359  0.7238 -0.7979
  212MOL    H3246874   6.067   0.204   7.479 -0.8955 -0.6442 -1.1474
  212MOL    H3346875   5.894   0.178   7.726  0.4113 -1.4671 -2.5986
  212MOL    H3446876   5.728   0.134   7.687  1.1717 -1.0021  0.8203
  212MOL    C3546877   5.759   0.250   0.021  1.0188  0.0153  0.6688
  212MOL    C3646878   5.871   0.337   0.084 -0.8141  0.0091 -0.8183
  212MOL    O3746879   5.986   0.347   0.037 -0.0238  0.2839  0.7392
  212MOL    C3846880   5.840   0.428   0.196 -0.5557  0.3106  0.0307
  212MOL    C3946881   5.741   0.124   0.102 -0.7076  0.1927  0.0791
  212MOL    H4046882   5.666   0.305   0.006  1.2420  0.4625  0.8940
  212MOL    H4146883   5.736   0.430   0.229 -0.4752 -2.1689  0.5904
  212MOL    H4246884   5.891   0.395   0.287 -2.1423  1.2046  1.2657
  212MOL    H4346885   5.879   0.526   0.170  0.6348 -0.4952 -1.3329
  212MOL    H4446886   5.737   0.163   0.204  0.3123 -0.3034  0.3129
  212MOL    H4546887   5.823   0.053   0.111 -1.5030 -0.8565 -0.9051
  212MOL    C4646888   5.607   0.043   0.065  0.4198  0.3006 -0.4406
  212MOL    C4746889   5.512   0.019   0.185 -0.5406  0.5017 -0.4479
  212MOL    O4846890   5.554   7.787   0.274 -0.1563  0.0250  0.2544
  212MOL    C4946891   5.384   0.096   0.197 -0.0726  0.8622 -0.3426
  212MOL    C5046892   5.639   7.751   0.000  0.1313  0.5828 -0.3953
  212MOL    H5146893   5.557   0.115   7.841  0.4446 -0.2790 -1.1034
  212MOL    H5246894   5.320   0.079   0.111  0.7820 -0.5824 -0.7140
  212MOL    H5346895   5.325   0.051   0.277 -2.6431  1.7278 -1.6889
  212MOL    H5446896   5.398   0.202   0.219  1.7531  0.4731  0.4363
  212MOL    H5546897   5.670   7.680   0.077  1.8320  1.2725 -0.4206
  212MOL    H5646898   5.731   7.761   7.785  0.9150 -0.9935  0.5379
  212MOL    C5746899   5.527   7.677   7.762 -0.8066  0.2546  0.2095
  212MOL    C5846900   5.467   7.760   7.645 -0.5593 -0.2661 -0.7581
  212MOL    O5946901   5.403   0.020   7.668  0.0889 -0.2962  0.8030
  212MOL    C6046902   5.487   7.714   7.501  0.6134  0.0598 -0.2418
  212MOL    C6146903   5.416   7.614   0.018 -0.4614  0.0434  0.2910
  212MOL    H6246904   5.574   7.592   7.713 -0.0431  0.0904  1.2267
  212MOL    H6346905   5.484   7.606   7.511 -2.2374  0.2845  2.0568
  212MOL    H6446906   5.400   7.757   7.451  1.3852  0.3272 -1.3935
  212MOL    H6546907   5.581   7.746   7.456  0.1608  1.6618 -0.1060
  212MOL    H6646908   5.347   7.691   0.054 -1.7452 -0.5341 -0.8798
  212MOL    H6746909   5.470   7.577   0.105 -1.3326 -1.6398  0.1273
  212MOL    C6846910   5.329   7.501   7.803 -0.3338  0.5578 -0.1883
  212MOL    C6946911   5.405   7.377   7.768 -0.5060 -0.6186  0.0847
  212MOL    O7046912   5.488   7.379   7.679 -0.0455 -0.4001 -0.1388
  212MOL    C7146913   5.388   7.249   0.014  0.5177 -0.7308 -0.1256
  212MOL    C7246914   5.226   7.537   7.696 -0.0640 -0.7046 -0.1354
  212MOL    H7346915   5.273   7.478   0.052 -0.8947 -2.2196 -1.1835
  212MOL    H7446916   5.344   7.162   7.807  1.4119 -0.4949 -1.3511
  212MOL    H7546917   5.481   7.215   0.059  1.1384  0.7792 -0.2600
  212MOL    H7646918   5.326   7.280   0.098 -0.6140  2.3718 -2.0373
  212MOL    H7746919   5.245   7.502   7.595 -1.7285  0.6548 -0.9467
  212MOL    H7846920   5.234   7.645   7.681  0.1484 -0.4660  1.5992
  212MOL    C7946921   5.075   7.486   7.724 -0.2819  0.3226  0.1296
  212MOL    C8046922   5.056   7.339   7.682  0.0389  1.2251 -0.3159
  212MOL    O8146923   5.141   7.274   7.618  0.0042  0.0005  0.2414
  212MOL    C8246924   4.932   7.269   7.740 -0.5217 -0.9794 -0.2512
  212MOL    C8346925   4.959   7.574   7.663  0.3073  0.3738 -0.1041
  212MOL    H8446926   5.059   7.480   7.832 -0.4327 -1.6894  0.0082
  212MOL    H8546927   4.958   7.190   7.811  1.1334 -1.8308 -1.7828
  212MOL    H8646928   4.863   7.340   7.785 -0.5381 -0.9122 -0.3846
  212MOL    H8746929   4.876   7.218   7.661  0.3113 -1.4191 -0.5584
  212MOL    H8846930   4.865   7.519   7.659  2.2150 -2.9803 -0.2295
  212MOL    H8946931   4.986   7.588   7.559 -1.7318  0.8890 -0.5884
  212MOL    C9046932   4.950   7.712   7.731  0.3062 -0.5926 -0.1468
  212MOL    C9146933   4.902   7.695   0.029 -0.4579 -0.3987 -0.3134
  212MOL    O9246934   4.825   7.608   0.067  0.1761  1.1040  0.5982
  212MOL    C9346935   4.956   7.800   0.135 -0.1853 -0.4194 -0.0490
  212MOL    C9446936   4.865   7.806   7.645  0.8821  0.7619  0.7142
  212MOL    H9546937   5.052   7.750   7.740 -0.0087 -0.0310  1.0156
  212MOL    H9646938   4.896   0.050   0.137  1.7791  0.9301 -1.6726
  212MOL    H9746939   4.961   7.754   0.233  2.5632  0.6123  0.3270
  212MOL    H9846940   5.057   7.832   0.113 -0.4208 -1.3308 -2.6094
  212MOL    H9946941   4.765   7.761   7.648 -0.6818  4.1145  1.2024
  212MOL   H10046942   4.885   7.796   7.538 -1.5366 -0.8914  0.3560
  212MOL   C10146943   4.878   0.117   7.675  0.2550 -0.9986  0.5734
  212MOL   C10246944   4.743   0.183   7.662 -0.4094  0.2538 -0.4800
  212MOL   O10346945   4.691   0.227   7.557 -0.0584 -0.2599  0.7900
  212MOL   C10446946   4.644   0.174   7.779  0.3088 -0.0886 -0.3843
  212MOL   C10546947   4.995   0.182   7.576  0.1646  0.1591 -0.2645
  212MOL   H10646948   4.897   0.120   7.782 -1.0353  1.1202  0.7745
  212MOL   H10746949   4.539   0.168   7.749  0.0959 -2.2436  0.6790
  212MOL   H10846950   4.652   0.071   7.816  2.4321  0.5311  0.9658
  212MOL   H10946951   4.665   0.249   0.013 -0.0799 -0.2415 -0.1266
  212MOL   H11046952   4.950   0.199   7.478 -0.0603  1.5658  0.0715
  212MOL   H11146953   5.082   0.117   7.564 -0.1730 -0.7070  1.7995
  212MOL   C11246954   5.057   0.313   7.622  0.5062  0.6319 -0.3511
  212MOL   C11346955   5.120   0.292   7.763 -0.4576  1.1097 -0.0358
  212MOL   O11446956   5.047   0.291   0.022  0.3827 -0.0533  0.3536
  212MOL   C11546957   5.271   0.291   7.772  0.3440 -0.1366  0.0510
  212MOL   C11646958   4.971   0.438   7.610  0.3451 -0.2043  0.0863
  212MOL   H11746959   5.141   0.325   7.554  0.2381  0.8854 -0.6413
  212MOL   H11846960   5.322   0.197   7.792  0.2953  0.3653  2.5987
  212MOL   H11946961   5.316   0.321   7.677  0.4135  0.5433  0.2972
  212MOL   H12046962   5.302   0.364   0.004 -1.2146 -0.1808  0.7755
  212MOL   H12146963   4.899   0.432   7.692 -1.5740 -0.1084 -1.5336
  212MOL   H12246964   4.916   0.437   7.516  1.3419 -3.2975 -0.5072
  212MOL   C12346965   5.056   0.573   7.607  0.1093  1.0755  0.2158
  212MOL   C12446966   5.034   0.650   7.741  0.6082  0.2844  0.0690
  212MOL   O12546967   5.129   0.681   7.809 -0.5749 -0.2109 -0.3098
  212MOL   C12646968   4.893   0.695   7.781  0.1835 -0.2489  0.2273
  212MOL   C12746969   5.054   0.642   7.469  0.0245 -0.2900 -0.3982
  212MOL   H12846970   5.158   0.534   7.606 -0.2835 -0.0022 -3.6908
  212MOL   H12946971   4.833   0.727   7.696  0.3027  0.5686  0.4473
  212MOL   H13046972   4.842   0.613   7.832 -0.8024  1.5573  2.2106
  212MOL   H13146973   4.897   0.777   0.010 -0.0581 -0.6952  0.7607
  212MOL   H13246974   4.949   0.653   7.441 -0.2527 -2.0446 -0.0545
  212MOL   H13346975   5.083   0.563   7.400 -0.1293 -1.9728  1.4117
  212MOL   C13446976   5.134   0.773   7.446 -0.4549  0.1775 -0.0099
  212MOL   C13546977   5.076   0.899   7.515  0.3329 -0.3597  0.6477
  212MOL   O13646978   5.125   0.946   7.618  0.3238 -0.0796  0.1764
  212MOL   C13746979   4.950   0.958   7.459 -1.3379 -0.3022 -0.0924
  212MOL   C13846980   5.177   0.797   7.298  0.1393 -0.2031 -0.6429
  212MOL   H13946981   5.218   0.754   7.512 -1.0576 -1.1815  0.3866
  212MOL   H14046982   4.913   0.900   7.375  2.0473 -0.3867 -1.5965
  212MOL   H14146983   4.873   0.947   7.536 -1.1182  1.3618  0.3945
  212MOL   H14246984   4.961   1.060   7.422 -1.8370 -0.5128 -0.8293
  212MOL   H14346985   5.089   0.792   7.234 -0.0451 -0.3154 -0.3814
  212MOL   H14446986   5.235   0.710   7.268  1.1144  0.6027 -1.0845
  212MOL   C14546987   5.262   0.917   7.270  0.2217  0.2955  0.1992
  212MOL   C14646988   5.240   0.973   7.130 -0.3142 -0.5953  0.3455
  212MOL   O14746989   5.250   0.892   7.038 -0.1480 -0.1793  0.4744
  212MOL   C14846990   5.197   1.111   7.111  0.2012 -0.4806 -0.1760
  212MOL   C14946991   5.414   0.883   7.304 -0.3090  1.2329  0.2605
  212MOL   H15046992   5.219   1.003   7.322 -3.6308 -0.9328 -0.8008
  212MOL   H15146993   5.195   1.151   7.010 -0.8687  0.9973  0.4125
  212MOL   H15246994   5.095   1.118   7.148  0.2983 -1.1050  0.2167
  212MOL   H15346995   5.273   1.169   7.163 -0.4269 -0.4686  0.7409
  212MOL   H15446996   5.461   0.839   7.216 -0.4721 -0.9502  1.2433
  212MOL   H15546997   5.412   0.795   7.368 -0.5350  0.5955 -0.6183
  212MOL   C15646998   5.505   0.997   7.361  0.3261  0.0747 -0.0909
  212MOL   C15746999   5.655   0.979   7.332  0.2723 -0.2581 -0.1105
  212MOL   O15847000   5.724   0.902   7.394  0.1753 -0.2794  0.1497
  212MOL   C15947001   5.716   1.054   7.219  0.2434  0.9335  0.6666
  212MOL   C16047002   5.463   1.036   7.504 -0.1377  0.2351  0.1932
  212MOL   H16147003   5.477   1.078   7.293 -0.1404  0.9654  1.1269
  212MOL   H16247004   5.677   1.156   7.225 -3.2890 -0.3083  0.1331
  212MOL   H16347005   5.824   1.041   7.214  0.4476  1.6294  2.8137
  212MOL   H16447006   5.676   1.001   7.133 -0.9429  1.7667  0.7006
  212MOL   H16547007   5.498   0.962   7.576 -1.7237 -0.0453  0.6844
  212MOL   H16647008   5.354   1.033   7.496 -0.2902  0.4767  2.0613
  212MOL   C16747009   5.492   1.184   7.535 -0.2346 -0.3970  0.4447
  212MOL   C16847010   5.640   1.218   7.572 -0.1716  0.2024  0.6817
  212MOL   O16947011   5.702   1.298   7.504  0.1075 -0.3782 -0.8777
  212MOL   C17047012   5.701   1.158   7.702 -0.5630  0.0747  0.5699
  212MOL   C17147013   5.402   1.242   7.650 -0.2759 -0.1001 -0.2566
  212MOL   H17247014   5.476   1.242   7.444  0.1800  0.4343  0.8930
  212MOL   H17347015   5.787   1.221   7.727 -0.0299 -1.0146  1.5032
  212MOL   H17447016   5.629   1.155   7.783 -1.6053 -0.5686 -0.3635
  212MOL   H17547017   5.742   1.059   7.683 -2.3020 -0.5851  0.1766
  212MOL   H17647018   5.426   1.174   7.732 -1.1135 -1.1734 -0.8841
  212MOL   H17747019   5.304   1.213   7.614 -1.1974  1.5179  0.9071
  212MOL   C17847020   5.386   1.387   7.699 -0.6301  0.3401 -0.2089
  212MOL   C17947021   5.295   1.399   7.820  0.8451 -0.3339  0.6664
  212MOL   O18047022   5.197   1.325   7.841 -0.4073  0.3569 -0.5200
  212MOL   C18147023   5.325   1.509   0.076  0.5818 -0.0518  0.0076
  212MOL   C18247024   5.345   1.474   7.579 -0.0671 -0.1194 -0.0626
  212MOL   H18347025   5.480   1.431   7.732 -0.5075 -0.1944  0.1756
  212MOL   H18447026   5.426   1.525   0.115  0.3391 -0.8622  1.0212
  212MOL   H18547027   5.304   1.605   0.029 -1.1343 -1.0293 -1.2754
  212MOL   H18647028   5.249   1.504   0.155 -0.4129  0.7450 -0.8816
  212MOL   H18747029   5.404   1.448   7.491  0.2531 -0.1514  0.1633
  212MOL   H18847030   5.378   1.576   7.598  0.7230 -0.5378  0.8554
  212MOL   C18947031   5.193   1.483   7.531 -0.2914  0.4887 -0.4930
  212MOL   C19047032   5.132   1.350   7.486  0.4879 -0.5797 -0.8722
  212MOL   O19147033   5.190   1.280   7.404  0.7905 -0.6096 -0.8386
  212MOL   C19247034   5.007   1.307   7.564  0.0810  0.6140 -0.6796
  212MOL   C19347035   5.177   1.593   7.427  0.5591  0.3270  0.3807
  212MOL   H19447036   5.132   1.510   7.617 -0.2825  2.1440 -0.9984
  212MOL   H19547037   5.010   1.199   7.582  0.9979  0.5469 -1.1680
  212MOL   H19647038   5.001   1.360   7.659 -0.2579  0.9229 -0.8746
  212MOL   H19747039   4.917   1.343   7.515  0.0304  1.4441  0.0157
  212MOL   H19847040   5.173   1.549   7.327 -0.0802 -0.3112  0.6767
  212MOL   H19947041   5.251   1.671   7.440 -0.1468  0.8171  1.5029
  212MOL   C20047042   5.042   1.666   7.457  0.1798 -0.5220  0.4109
  212MOL   C20147043   4.977   1.718   7.325 -0.0486 -0.0508  0.5929
  212MOL   O20247044   4.906   1.643   7.253 -0.3212 -0.1355  0.4123
  212MOL   C20347045   4.995   1.858   7.283  0.1840  0.5031 -0.4448
  212MOL   C20447046   5.047   1.774   7.576 -0.1559 -0.2380  0.5590
  212MOL   H20547047   4.966   1.595   7.488 -1.5370  1.4869  0.9050
  212MOL   H20647048   5.092   1.887   7.324  0.9411 -1.4442 -0.7951
  212MOL   H20747049   4.997   1.871   7.174  1.6447 -2.3056 -0.7936
  212MOL   H20847050   4.928   1.933   7.326  0.5611  0.5012  0.1514
  212MOL   H20947051   5.075   1.869   7.531 -3.7232  0.2244 -0.8478
  212MOL   H21047052   5.125   1.731   7.640  0.6179 -1.7344 -1.3500
  212MOL   C21147053   4.908   1.795   7.644  0.3040 -0.9440 -0.2453
  212MOL   C21247054   4.895   1.934   7.711  0.5523  0.1899 -0.5871
  212MOL   O21347055   4.989   2.004   7.741 -0.0705 -0.1030  0.0811
  212MOL   C21447056   4.757   1.971   7.746 -0.4534 -0.9540  0.5057
  212MOL   C21547057   4.881   1.683   7.752  0.2725 -0.0368  0.9250
  212MOL   H21647058   4.825   1.792   7.573 -1.1089  3.1947  1.0964
  212MOL   H21747059   4.680   1.907   7.705 -0.1916 -0.0555 -1.4554
  212MOL   H21847060   4.768   1.962   0.012  0.2506 -0.5759  0.4702
  212MOL   H21947061   4.720   2.068   7.713 -0.2892 -0.0328  2.8586
  212MOL   H22047062   4.866   1.586   7.706 -1.4763  0.0977  1.1879
  212MOL   H22147063   4.789   1.703   7.806 -0.7155  1.6181 -1.3097
  212MOL   H22247064   4.954   1.680   7.833  1.8571  1.0528 -0.4196
  213MOL     C147065   5.898   1.405   5.885  0.1699 -0.9609 -0.2185
  213MOL     C247066   5.808   1.497   5.801 -0.4608 -0.0634 -0.3347
  213MOL     O347067   5.773   1.612   5.831  0.2813 -0.3136 -0.4326
  213MOL     C447068   5.752   1.433   5.677  0.3007  0.3704 -0.0680
  213MOL     C547069   5.991   1.480   5.988 -0.6653  0.9990  0.8974
  213MOL     H647070   5.839   1.330   5.938  0.2596 -1.4558 -0.8138
  213MOL     H747071   5.800   1.337   5.658  0.0443  0.0969  0.6590
  213MOL     H847072   5.646   1.424   5.704  0.1094 -0.3640 -1.0215
  213MOL     H947073   5.760   1.494   5.587 -0.1997 -0.0046 -0.3737
  213MOL    H1047074   6.030   1.401   6.053  0.5568 -0.7868 -1.9175
  213MOL    H1147075   5.922   1.544   6.043 -1.2641 -0.4367  1.8586
  213MOL    H1247076   5.956   1.354   5.808 -2.2366  0.6260 -3.1902
  213MOL    C1347077   6.116   1.553   5.932 -0.4617  0.1872  0.6413
  213MOL    C1447078   6.209   1.462   5.837  0.6897  0.0129  1.0140
  213MOL    O1547079   6.201   1.340   5.836  0.2923 -0.3103 -0.4664
  213MOL    C1647080   6.310   1.536   5.740 -0.8234  0.8476 -0.2835
  213MOL    C1747081   6.201   1.602   6.052  0.8168  0.0716  0.3886
  213MOL    H1847082   6.075   1.636   5.875 -0.4052  0.1941  0.6103
  213MOL    H1947083   6.318   1.480   5.647 -1.1785  0.7344 -0.2477
  213MOL    H2047084   6.283   1.640   5.721  2.7427  2.3707  2.4618
  213MOL    H2147085   6.412   1.535   5.779 -0.7628  1.1176 -0.4371
  213MOL    H2247086   6.300   1.637   6.021  0.1896 -0.6508 -2.5637
  213MOL    H2347087   6.223   1.509   6.104  0.2167 -0.3326 -0.0747
  213MOL    C2447088   6.130   1.700   6.146  0.3418 -0.1800  0.0555
  213MOL    C2547089   6.077   1.829   6.079 -0.3737  0.3116  0.8035
  213MOL    O2647090   6.132   1.885   5.985 -0.5239  0.3176  0.1662
  213MOL    C2747091   5.945   1.884   6.132 -0.4373 -0.0236  0.3905
  213MOL    C2847092   6.202   1.722   6.279  0.3689  0.4704 -0.1114
  213MOL    H2947093   6.037   1.650   6.174  0.3665 -0.6896 -0.7349
  213MOL    H3047094   5.891   1.789   6.140 -1.1714  0.3144 -0.4936
  213MOL    H3147095   5.952   1.926   6.232  0.9441 -2.8313  1.5449
  213MOL    H3247096   5.881   1.948   6.072  1.2337 -0.1288 -1.5548
  213MOL    H3347097   6.191   1.823   6.316  0.8472  0.1893  0.8055
  213MOL    H3447098   6.310   1.726   6.264  0.5459  1.5059  1.3301
  213MOL    C3547099   6.169   1.637   6.403 -0.6181  0.5268  0.6683
  213MOL    C3647100   6.015   1.638   6.425  0.3191  0.6241  1.1308
  213MOL    O3747101   5.955   1.749   6.445  0.5093 -0.4930  0.4504
  213MOL    C3847102   5.943   1.508   6.411 -0.1208 -0.9231 -0.0570
  213MOL    C3947103   6.252   1.668   6.522 -0.5734 -0.0341  0.3140
  213MOL    H4047104   6.198   1.533   6.383 -1.2511  0.6208 -0.8208
  213MOL    H4147105   5.835   1.516   6.414 -0.0315  0.0963  0.9480
  213MOL    H4247106   5.978   1.456   6.322 -0.0013 -1.0700  0.0755
  213MOL    H4347107   5.958   1.451   6.502  0.0957 -0.2763  0.3207
  213MOL    H4447108   6.205   1.616   6.606  0.6518  0.3313  1.2468
  213MOL    H4547109   6.238   1.775   6.538  2.1039  0.5059 -0.6316
  213MOL    C4647110   6.402   1.632   6.515 -0.1268  0.1859 -0.2857
  213MOL    C4747111   6.427   1.519   6.615  0.0323  0.5925  0.0970
  213MOL    O4847112   6.447   1.550   6.733 -1.2023 -0.1094  0.0760
  213MOL    C4947113   6.418   1.370   6.569  0.1015 -0.2492 -0.4293
  213MOL    C5047114   6.479   1.765   6.545  0.8296 -0.8589 -0.3173
  213MOL    H5147115   6.432   1.598   6.416 -0.6237  0.4331 -0.5207
  213MOL    H5247116   6.324   1.348   6.518 -0.1612  1.0757 -0.5307
  213MOL    H5347117   6.505   1.344   6.507 -1.1353 -1.3244 -1.7575
  213MOL    H5447118   6.421   1.315   6.663  0.5496  0.8546  0.1995
  213MOL    H5547119   6.450   1.795   6.646  0.2038 -1.2700 -0.3754
  213MOL    H5647120   6.439   1.836   6.472 -1.1350  1.3215  2.7098
  213MOL    C5747121   6.633   1.766   6.519  0.0621 -0.4033  0.6136
  213MOL    C5847122   6.687   1.676   6.410 -0.3525  0.3407  0.3026
  213MOL    O5947123   6.748   1.568   6.430  0.2351  0.2491  0.5965
  213MOL    C6047124   6.653   1.723   6.269  0.4594  0.2441  0.1258
  213MOL    C6147125   6.713   1.745   6.650  0.5904  0.5133 -0.4991
  213MOL    H6247126   6.659   1.868   6.489  3.4453 -0.8434  1.7561
  213MOL    H6347127   6.655   1.831   6.274 -1.3415  0.2389  1.3535
  213MOL    H6447128   6.722   1.688   6.192 -1.4344  0.5937 -1.7794
  213MOL    H6547129   6.556   1.684   6.238  0.0048  1.5092 -0.0642
  213MOL    H6647130   6.818   1.740   6.622  0.4468  0.4781 -1.0517
  213MOL    H6747131   6.686   1.649   6.693 -0.4111  1.6599  1.4639
  213MOL    C6847132   6.691   1.845   6.770  0.1396 -0.2828 -0.2470
  213MOL    C6947133   6.740   1.991   6.736 -0.2862  1.0144  0.0322
  213MOL    O7047134   6.805   2.021   6.635 -0.3575 -0.2775 -0.4562
  213MOL    C7147135   6.719   2.103   6.841  0.2923 -0.1532  0.1531
  213MOL    C7247136   6.756   1.792   6.900 -0.0752 -0.1623 -0.4883
  213MOL    H7347137   6.583   1.856   6.777  0.0919 -0.8869  0.0921
  213MOL    H7447138   6.711   2.199   6.789  0.2493 -0.9961 -1.4081
  213MOL    H7547139   6.627   2.088   6.898 -1.0741  0.9061 -1.7127
  213MOL    H7647140   6.803   2.097   6.910  0.4760  2.2554  0.1833
  213MOL    H7747141   6.782   1.871   6.970  2.9046 -1.5313  0.0121
  213MOL    H7847142   6.854   1.747   6.885  0.3833  0.4224  0.6405
  213MOL    C7947143   6.675   1.674   6.971  0.1005 -0.6824  0.4986
  213MOL    C8047144   6.558   1.740   7.052 -0.1707 -0.3593  1.4159
  213MOL    O8147145   6.583   1.838   7.124 -0.1840 -0.0460 -0.0077
  213MOL    C8247146   6.418   1.679   7.029 -0.6036 -0.1311  0.0326
  213MOL    C8347147   6.760   1.567   7.045  0.3505 -0.2084  0.0725
  213MOL    H8447148   6.625   1.615   6.894 -0.6923 -0.8033  1.0964
  213MOL    H8547149   6.348   1.714   7.105  0.5702 -0.5438  1.3128
  213MOL    H8647150   6.389   1.716   6.930 -1.6999 -0.6934  0.1353
  213MOL    H8747151   6.426   1.571   7.032  0.7488 -0.0446 -0.3892
  213MOL    H8847152   6.693   1.518   7.115 -0.8626  0.4693 -0.5947
  213MOL    H8947153   6.840   1.617   7.101  1.4039 -0.1940 -1.4200
  213MOL    C9047154   6.806   1.459   6.947 -0.8612  0.3517 -1.0866
  213MOL    C9147155   6.696   1.357   6.915 -0.6454 -0.4731  0.9133
  213MOL    O9247156   6.602   1.338   6.981  0.0156 -0.2304 -0.3704
  213MOL    C9347157   6.707   1.289   6.780  0.5885 -0.4473  0.1740
  213MOL    C9447158   6.925   1.384   7.010  0.1458 -0.3460  0.1723
  213MOL    H9547159   6.829   1.507   6.852 -0.7285  2.1695 -0.1564
  213MOL    H9647160   6.620   1.229   6.754 -0.1561  0.6903  0.0025
  213MOL    H9747161   6.728   1.359   6.699 -0.2294  0.8109  1.0191
  213MOL    H9847162   6.785   1.214   6.790  0.9392 -0.4131 -2.0042
  213MOL    H9947163   6.902   1.278   7.001 -0.0028 -0.3200  0.2416
  213MOL   H10047164   6.918   1.392   7.119 -0.0099  0.3339  0.1119
  213MOL   C10147165   7.066   1.408   6.961  0.6242  0.0220  0.1217
  213MOL   C10247166   7.081   1.336   6.830  0.2441 -0.3974 -0.2135
  213MOL   O10347167   7.085   1.214   6.819  0.0540 -0.3472 -0.5682
  213MOL   C10447168   7.075   1.413   6.698 -0.0058 -0.1771 -0.5975
  213MOL   C10547169   7.167   1.356   7.066  0.2842  0.0533 -0.0511
  213MOL   H10647170   7.068   1.515   6.940  0.4711  0.4442  2.1693
  213MOL   H10747171   7.121   1.511   6.713 -1.0554  0.0631  1.1771
  213MOL   H10847172   7.130   1.347   6.631  2.5698 -0.0028  1.2315
  213MOL   H10947173   6.970   1.426   6.673  0.6800  2.7552 -2.1693
  213MOL   H11047174   7.263   1.375   7.018  0.7237  0.8372  1.1380
  213MOL   H11147175   7.150   1.248   7.074 -0.6275  0.0358 -1.9003
  213MOL   C11247176   7.168   1.427   7.200 -0.1710 -0.2700  0.0055
  213MOL   C11347177   7.233   1.562   7.181  0.3941 -0.2870 -0.3412
  213MOL   O11447178   7.340   1.572   7.118  0.0251  0.1560 -0.4001
  213MOL   C11547179   7.189   1.680   7.270  0.7718 -0.6272  0.2092
  213MOL   C11647180   7.226   1.345   7.317  0.4633  0.9613  0.1153
  213MOL   H11747181   7.063   1.442   7.227  0.1855  2.1090  0.1750
  213MOL   H11847182   7.257   1.765   7.269 -0.1846  0.1411 -2.3978
  213MOL   H11947183   7.089   1.716   7.250 -0.5885 -3.8457  0.8144
  213MOL   H12047184   7.185   1.642   7.373  1.0976 -1.1599  0.0268
  213MOL   H12147185   7.227   1.408   7.406 -1.2429  1.0526  0.0761
  213MOL   H12247186   7.330   1.311   7.318 -0.3802 -1.7852  2.1619
  213MOL   C12347187   7.130   1.227   7.368  0.1751 -0.6955 -0.2230
  213MOL   C12447188   7.000   1.293   7.422 -0.0140  0.7453 -0.9625
  213MOL   O12547189   7.004   1.378   7.509  0.0762  0.0905 -0.1356
  213MOL   C12647190   6.864   1.246   7.368 -0.6037 -0.3868  0.1072
  213MOL   C12747191   7.212   1.148   7.474 -0.4826  0.0348  0.1082
  213MOL   H12847192   7.102   1.173   7.278  0.9970 -0.8161 -0.4156
  213MOL   H12947193   6.885   1.158   7.307 -1.0074  1.2305 -2.4839
  213MOL   H13047194   6.804   1.215   7.453  0.4695  0.9137  1.3634
  213MOL   H13147195   6.817   1.323   7.306  1.0134  0.9606  0.5112
  213MOL   H13247196   7.292   1.203   7.523  1.3240 -2.4693  0.0728
  213MOL   H13347197   7.257   1.065   7.419  0.0521  1.5791 -1.8733
  213MOL   C13447198   7.126   1.079   7.584  0.5641 -0.3543  0.8498
  213MOL   C13547199   7.220   1.052   7.707 -0.6784 -0.4105  0.1595
  213MOL   O13647200   7.316   0.980   7.695 -0.4302  0.2481 -0.1414
  213MOL   C13747201   7.202   1.135   7.828  0.0044 -0.1074  0.4532
  213MOL   C13847202   7.045   0.957   7.538  0.2838 -0.4130 -0.3754
  213MOL   H13947203   7.050   1.143   7.629  0.1528 -0.6309  0.5511
  213MOL   H14047204   7.102   1.117   0.026  1.3856 -1.8385  3.3110
  213MOL   H14147205   7.284   1.109   0.052 -0.4565 -0.2198  0.9924
  213MOL   H14247206   7.217   1.239   7.801 -5.6798  0.4233 -1.4978
  213MOL   H14347207   7.102   0.869   7.510  3.6570  1.5270  0.1489
  213MOL   H14447208   6.979   0.978   7.453 -3.4784 -1.9187  2.0690
  213MOL   C14547209   6.948   0.895   7.648  0.3711 -0.2163 -0.2812
  213MOL   C14647210   6.898   0.755   7.601 -0.2312  0.2722 -0.4168
  213MOL   O14747211   6.791   0.739   7.538 -0.3972  0.0413  0.2127
  213MOL   C14847212   6.991   0.639   7.638 -0.6038  0.0880  0.4492
  213MOL   C14947213   6.835   0.999   7.683  0.3335 -0.0236  0.2646
  213MOL   H15047214   7.006   0.877   7.739 -1.0192  0.0049  0.6673
  213MOL   H15147215   7.031   0.599   7.545  1.8818  1.8487  0.6878
  213MOL   H15247216   7.079   0.668   7.695 -0.7884 -1.0276  1.3122
  213MOL   H15347217   6.944   0.562   7.699  0.2946  0.7910  2.0885
  213MOL   H15447218   6.800   1.041   7.589  1.7678 -0.6931 -0.5943
  213MOL   H15547219   6.875   1.086   7.734 -1.1951  1.0128 -0.2685
  213MOL   C15647220   6.716   0.937   7.762 -0.6089  0.4246 -0.6689
  213MOL   C15747221   6.580   1.007   7.737  0.3400 -0.2964  0.6903
  213MOL   O15847222   6.531   1.086   7.811  0.1652  0.0125 -0.4484
  213MOL   C15947223   6.509   0.976   7.608  0.2549 -0.6680  0.4281
  213MOL   C16047224   6.734   0.917   0.085 -0.0220 -0.9467  0.3407
  213MOL   H16147225   6.686   0.838   7.728  0.2935 -0.0919  0.0176
  213MOL   H16247226   6.557   0.910   7.535  0.4654  0.4320 -0.4459
  213MOL   H16347227   6.413   0.929   7.630  0.0578 -0.2743  0.4143
  213MOL   H16447228   6.503   1.066   7.546  1.4620 -0.7036  0.2579
  213MOL   H16547229   6.641   0.935   0.139  1.1524 -1.3707  2.5824
  213MOL   H16647230   6.790   1.006   0.113  0.3302 -1.7055  2.1183
  213MOL   C16747231   6.795   0.787   0.135 -0.3870  0.3282  0.2495
  213MOL   C16847232   6.687   0.677   0.124  0.0933 -0.2396  0.3215
  213MOL   O16947233   6.588   0.673   0.187  0.1107  0.3116  0.0797
  213MOL   C17047234   6.712   0.570   0.019  0.7702 -0.0778  0.5561
  213MOL   C17147235   6.846   0.812   0.284 -0.0757  0.0120 -0.1201
  213MOL   H17247236   6.876   0.746   0.074 -1.6222 -3.0365  0.7452
  213MOL   H17347237   6.773   0.596   7.774  0.2533 -3.4120 -0.8941
  213MOL   H17447238   6.758   0.475   0.045 -2.1016 -1.3944  1.0730
  213MOL   H17547239   6.613   0.556   7.816  0.3590  0.9686  1.1192
  213MOL   H17647240   6.782   0.780   0.366  3.7302 -0.7691  2.6910
  213MOL   H17747241   6.858   0.917   0.310  0.2895  0.0745 -0.5199
  213MOL   C17847242   6.983   0.752   0.325  0.0724  0.4695  0.4312
  213MOL   C17947243   7.095   0.825   0.250 -0.4200 -0.0191 -0.9354
  213MOL   O18047244   7.073   0.901   0.156 -0.2988  0.4140  0.4101
  213MOL   C18147245   7.232   0.768   0.291 -0.1723  0.0775  0.4676
  213MOL   C18247246   6.981   0.599   0.315 -0.0558  0.3340 -0.1055
  213MOL   H18347247   7.013   0.770   0.428  0.9593  0.9150  0.0973
  213MOL   H18447248   7.257   0.686   0.223 -0.1697  0.1511  0.3801
  213MOL   H18547249   7.307   0.845   0.274  1.9657 -2.1007 -0.2848
  213MOL   H18647250   7.232   0.742   0.397  1.6443  0.1633  0.5111
  213MOL   H18747251   7.078   0.558   0.341 -0.5798 -0.5711  0.4200
  213MOL   H18847252   6.965   0.562   0.214 -1.1608  0.6636 -0.0580
  213MOL   C18947253   6.884   0.524   0.413  0.0922 -0.0872 -0.1429
  213MOL   C19047254   6.908   0.534   0.564  0.1416  0.2747 -0.1880
  213MOL   O19147255   7.018   0.553   0.611 -0.2469  0.7328  0.1380
  213MOL   C19247256   6.791   0.503   0.659 -0.3186 -0.1128 -0.0433
  213MOL   C19347257   6.864   0.379   0.361  0.1376  0.3699  0.1431
  213MOL   H19447258   6.789   0.570   0.386 -0.2585 -0.9061 -0.3255
  213MOL   H19547259   6.709   0.477   0.592 -0.1681  0.5426 -0.4808
  213MOL   H19647260   6.811   0.419   0.725  1.4081  1.6594  1.7519
  213MOL   H19747261   6.758   0.591   0.714 -2.1206 -0.8144  0.0463
  213MOL   H19847262   6.838   0.365   0.256  2.8967 -0.3059 -0.4881
  213MOL   H19947263   6.764   0.351   0.394 -0.9272 -1.3579 -4.1349
  213MOL   C20047264   6.959   0.268   0.413 -0.3251  0.1935 -0.0988
  213MOL   C20147265   7.110   0.295   0.400  0.3891  0.1822  0.0750
  213MOL   O20247266   7.165   0.347   0.301  0.1667  0.2646  0.2584
  213MOL   C20347267   7.197   0.243   0.519 -0.5808  0.9128  0.3985
  213MOL   C20447268   6.920   0.138   0.340 -0.2996 -0.2788 -0.0607
  213MOL   H20547269   6.940   0.257   0.520 -0.2191 -1.1674 -0.2156
  213MOL   H20647270   7.131   0.234   0.605 -1.4092 -0.4678 -0.3532
  213MOL   H20747271   7.244   0.146   0.501 -1.0153  0.9359 -0.9664
  213MOL   H20847272   7.263   0.329   0.527  0.7693 -0.1832  1.0902
  213MOL   H20947273   7.002   0.068   0.356  1.0256  1.4390  0.7442
  213MOL   H21047274   6.925   0.165   0.234 -0.4834 -4.5111 -1.2447
  213MOL   C21147275   6.797   0.057   0.391  0.3219  1.0074 -0.3931
  213MOL   C21247276   6.839   7.824   0.521 -0.3781 -0.1127  0.4083
  213MOL   O21347277   6.939   7.761   0.536  0.6824  0.4579  0.5638
  213MOL   C21447278   6.738   7.835   0.639  0.1067  0.0274 -0.7062
  213MOL   C21547279   6.747   7.796   0.280  0.6869  0.4268 -0.2663
  213MOL   H21647280   6.707   0.117   0.389 -0.9555 -0.8882 -0.9056
  213MOL   H21747281   6.737   0.097   0.674 -1.1774 -1.1308  3.0089
  213MOL   H21847282   6.641   7.797   0.607  0.7006 -2.2640  0.1317
  213MOL   H21947283   6.787   7.773   0.714 -0.2836 -2.3406 -2.3611
  213MOL   H22047284   6.657   7.753   0.322  0.5496  1.9440  1.0593
  213MOL   H22147285   6.828   7.724   0.268  1.0216  1.0289 -1.6427
  213MOL   H22247286   6.701   7.841   0.193 -1.1001  0.0840  0.4859
  214MOL     C147287   3.027   6.104   5.381  0.9183  0.6917  0.2040
  214MOL     C247288   2.878   6.093   5.362 -0.1978  0.5325  0.2760
  214MOL     O347289   2.826   5.978   5.354  0.1571 -0.1507  0.0135
  214MOL     C447290   2.791   6.209   5.326  0.5200 -0.3562 -0.2819
  214MOL     C547291   3.098   6.144   5.249 -0.2598  0.1465 -0.6258
  214MOL     H647292   3.057   6.172   5.461  2.6173 -0.3078  0.4373
  214MOL     H747293   2.736   6.191   5.234 -1.8885 -0.8310  1.2012
  214MOL     H847294   2.727   6.219   5.414 -0.9824  0.9190 -1.4896
  214MOL     H947295   2.856   6.293   5.301  2.3581 -1.2141  1.4538
  214MOL    H1047296   3.129   6.248   5.254  2.9786 -0.7842 -0.2733
  214MOL    H1147297   3.025   6.145   5.168 -0.3871  1.2846 -0.5097
  214MOL    H1247298   3.068   6.011   5.421  0.1563  0.4906  0.5320
  214MOL    C1347299   3.224   6.059   5.215 -0.4741  0.8386 -0.0139
  214MOL    C1447300   3.326   6.062   5.331 -0.2890 -0.6815 -0.2076
  214MOL    O1547301   3.332   5.969   5.412 -0.2198 -1.1502  0.3369
  214MOL    C1647302   3.408   6.196   5.349  0.4487  0.2179 -0.7612
  214MOL    C1747303   3.298   6.081   5.077 -0.5592  0.2529  0.3322
  214MOL    H1847304   3.194   5.955   5.219  0.1237  0.6270 -0.9015
  214MOL    H1947305   3.417   6.216   5.456  0.0252 -0.5664 -0.5766
  214MOL    H2047306   3.505   6.196   5.299  1.1868  1.0166  0.6399
  214MOL    H2147307   3.351   6.284   5.317  0.5447  0.7457  0.4907
  214MOL    H2247308   3.399   6.044   5.089 -0.8934 -0.1774  2.0033
  214MOL    H2347309   3.305   6.188   5.057  0.2089 -0.3462 -2.8625
  214MOL    C2447310   3.238   5.998   4.953  0.2940 -0.0679 -0.0142
  214MOL    C2547311   3.364   5.967   4.866 -0.1457 -0.4926  0.6873
  214MOL    O2647312   3.394   6.009   4.756 -0.0695 -0.2172 -0.0214
  214MOL    C2747313   3.452   5.850   4.915 -0.0061 -0.7021 -0.0922
  214MOL    C2847314   3.137   6.081   4.876  0.0344 -0.5306  0.8729
  214MOL    H2947315   3.192   5.904   4.984 -2.2110  1.2556  0.4094
  214MOL    H3047316   3.448   5.829   5.022  0.5881 -0.7072 -0.0703
  214MOL    H3147317   3.428   5.756   4.864  0.2132 -1.4583  1.1914
  214MOL    H3247318   3.552   5.878   4.885 -0.9628  2.1591 -0.7166
  214MOL    H3347319   3.175   6.163   4.814 -1.7740  0.7202  1.3793
  214MOL    H3447320   3.087   6.128   4.961  0.8419 -0.9507  1.5962
  214MOL    C3547321   3.051   5.987   4.787 -0.3493 -0.2906 -0.7176
  214MOL    C3647322   3.001   6.059   4.662  0.3869  0.2422  0.1317
  214MOL    O3747323   2.879   6.091   4.652 -0.2942  0.6518 -0.0752
  214MOL    C3847324   3.105   6.101   4.561  0.1248 -0.0380 -0.2907
  214MOL    C3947325   2.939   5.929   4.867  0.0160 -0.5193  0.3955
  214MOL    H4047326   3.115   5.904   4.754 -0.8912 -0.3511 -1.6391
  214MOL    H4147327   3.083   6.038   4.475 -3.7429  1.4358 -0.5173
  214MOL    H4247328   3.106   6.209   4.544 -0.3228 -0.2816 -1.9231
  214MOL    H4347329   3.206   6.079   4.594 -0.4170 -1.3852  0.5532
  214MOL    H4447330   2.865   6.002   4.898  0.2447  0.1803 -0.6999
  214MOL    H4547331   2.979   5.905   4.965  0.3553 -1.2706  0.0822
  214MOL    C4647332   2.879   5.799   4.799  0.6905 -0.0938 -0.0382
  214MOL    C4747333   2.726   5.804   4.827 -0.0243  0.0395  0.2448
  214MOL    O4847334   2.679   5.773   4.936  0.3548 -0.7320 -0.3206
  214MOL    C4947335   2.640   5.826   4.704 -0.1014  0.2763  0.2272
  214MOL    C5047336   2.950   5.666   4.817  0.4784  0.4516 -0.1025
  214MOL    H5147337   2.886   5.814   4.691 -1.2759 -1.0067 -0.3329
  214MOL    H5247338   2.701   5.868   4.624 -1.5188 -1.6404 -1.9077
  214MOL    H5347339   2.587   5.737   4.673  0.6727 -0.4584  0.9967
  214MOL    H5447340   2.561   5.897   4.728 -1.2945 -1.3392  1.1566
  214MOL    H5547341   3.050   5.667   4.774  1.7266 -1.7020  2.5437
  214MOL    H5647342   2.908   5.594   4.747  2.7406  0.0882 -1.1378
  214MOL    C5747343   2.948   5.596   4.961 -0.8304 -1.0747  0.0463
  214MOL    C5847344   3.089   5.599   5.016 -0.2795  0.1298 -0.4581
  214MOL    O5947345   3.193   5.581   4.952  0.0773  0.1004 -0.1039
  214MOL    C6047346   3.097   5.623   5.166  0.7514 -0.4283  0.4062
  214MOL    C6147347   2.875   5.457   4.963  0.6992  0.1246 -0.2255
  214MOL    H6247348   2.881   5.646   5.031 -0.9591 -0.2515 -0.6587
  214MOL    H6347349   3.201   5.649   5.189  1.1698 -0.1049 -1.6790
  214MOL    H6447350   3.043   5.712   5.197 -0.9971 -0.9079 -1.1940
  214MOL    H6547351   3.079   5.533   5.224  0.0893 -0.0857  0.7324
  214MOL    H6647352   2.918   5.392   4.888 -0.2769  0.1491 -0.8238
  214MOL    H6747353   2.774   5.479   4.928 -0.0112 -1.8377  0.5228
  214MOL    C6847354   2.847   5.389   5.106 -1.2645  0.0255  0.4542
  214MOL    C6947355   2.949   5.274   5.130 -0.2399  0.4331 -0.2120
  214MOL    O7047356   3.038   5.295   5.206  0.1535  0.2414  0.0301
  214MOL    C7147357   2.938   5.147   5.056 -0.4716  0.4228 -0.4422
  214MOL    C7247358   2.698   5.341   5.126 -0.3681  0.5656  0.2767
  214MOL    H7347359   2.865   5.463   5.184  0.1948 -1.3252  1.4475
  214MOL    H7447360   2.981   5.059   5.103 -1.7344 -0.5853 -1.1249
  214MOL    H7547361   2.835   5.128   5.026 -0.4025 -0.5785 -0.0583
  214MOL    H7647362   2.999   5.143   4.965 -0.9024 -0.5289 -0.6974
  214MOL    H7747363   2.707   5.279   5.216 -0.9607  0.1421  0.0462
  214MOL    H7847364   2.678   5.270   5.046  2.3989 -1.2732  1.1184
  214MOL    C7947365   2.588   5.445   5.155 -0.1342 -0.0700  0.3413
  214MOL    C8047366   2.617   5.525   5.286  0.0961  0.6591  0.5188
  214MOL    O8147367   2.609   5.479   5.396  0.5618 -0.7499 -0.3938
  214MOL    C8247368   2.669   5.666   5.259  0.9064 -0.3918 -0.3280
  214MOL    C8347369   2.444   5.390   5.164 -0.1043  0.1240 -0.1981
  214MOL    H8447370   2.595   5.514   5.071 -3.1605 -2.0891 -1.6941
  214MOL    H8547371   2.605   5.727   5.323  2.5763 -0.3945  1.3701
  214MOL    H8647372   2.775   5.672   5.281  1.4157 -0.7365 -2.5427
  214MOL    H8747373   2.640   5.698   5.158 -0.4159  0.2783  0.2428
  214MOL    H8847374   2.385   5.455   5.229  0.7082 -1.1569  1.8707
  214MOL    H8947375   2.455   5.299   5.222 -0.3795 -0.3208 -0.8338
  214MOL    C9047376   2.370   5.368   5.033 -0.5537  0.0103 -0.0473
  214MOL    C9147377   2.401   5.469   4.924  0.9032 -0.8707  0.4057
  214MOL    O9247378   2.466   5.440   4.828  0.1064 -0.0298 -0.1186
  214MOL    C9347379   2.360   5.612   4.940 -0.7284 -0.1756  0.3870
  214MOL    C9447380   2.213   5.358   5.055  0.5465  0.3276  0.1447
  214MOL    H9547381   2.403   5.269   5.001  1.3201  0.3613  0.7106
  214MOL    H9647382   2.337   5.635   5.044  1.2272  0.1824  0.7736
  214MOL    H9747383   2.444   5.675   4.908 -0.1025 -1.6666 -0.9551
  214MOL    H9847384   2.278   5.644   4.876 -0.5933 -2.7593 -1.1147
  214MOL    H9947385   2.193   5.462   5.080  0.4028  0.6464 -1.2111
  214MOL   H10047386   2.169   5.307   5.140 -1.2828  1.9205  0.1932
  214MOL   C10147387   2.132   5.305   4.933 -0.0507  0.2881  0.0759
  214MOL   C10247388   1.999   5.385   4.923 -0.3104  0.6920 -0.4823
  214MOL   O10347389   1.884   5.334   4.943 -0.0583 -0.1599  0.1606
  214MOL   C10447390   2.017   5.533   4.877 -0.7012  0.2225  0.0404
  214MOL   C10547391   2.123   5.153   4.920 -0.3838  0.2277  0.6297
  214MOL   H10647392   2.190   5.337   4.847  0.8781 -1.4434  0.0313
  214MOL   H10747393   1.925   5.566   4.830  0.7945  0.7461 -2.5721
  214MOL   H10847394   2.037   5.597   4.963 -1.4868  0.6620 -0.1035
  214MOL   H10947395   2.100   5.545   4.808  0.0480  1.0901  1.0750
  214MOL   H11047396   2.030   5.121   4.874 -0.3568  1.1167 -0.0492
  214MOL   H11147397   2.132   5.106   5.018  2.5963  2.9977  1.7652
  214MOL   C11247398   2.219   5.094   4.808  0.0927 -0.2073  0.5951
  214MOL   C11347399   2.175   5.129   4.660 -0.0668 -0.5342 -0.0311
  214MOL   O11447400   2.104   5.053   4.595 -0.0138  0.7211  0.2924
  214MOL   C11547401   2.247   5.246   4.595  0.0470 -0.3536 -0.5030
  214MOL   C11647402   2.263   4.944   4.839 -0.3107  0.5111  0.1916
  214MOL   H11747403   2.303   5.154   4.843  0.5638  0.1736 -1.1455
  214MOL   H11847404   2.225   5.246   4.488 -2.7308  0.3225  0.0022
  214MOL   H11947405   2.226   5.333   4.658 -0.6257 -0.8950  0.0254
  214MOL   H12047406   2.354   5.239   4.614 -0.0398  1.5635  0.9210
  214MOL   H12147407   2.213   4.876   4.769  1.1051 -1.6716  1.2134
  214MOL   H12247408   2.234   4.912   4.939  1.8797  1.2502  1.0891
  214MOL   C12347409   2.410   4.916   4.833  0.1892 -0.4507 -1.0093
  214MOL   C12447410   2.485   4.962   4.964 -0.2961 -0.0615  0.2663
  214MOL   O12547411   2.573   5.052   4.960 -0.0318 -0.6651  0.7227
  214MOL   C12647412   2.466   4.884   5.093 -0.5971 -0.4072 -0.8798
  214MOL   C12747413   2.472   4.975   4.699  0.0955 -0.2190  0.1337
  214MOL   H12847414   2.426   4.809   4.846  1.4288 -0.2773 -1.0699
  214MOL   H12947415   2.508   4.946   5.172  0.2180 -1.0607 -0.7953
  214MOL   H13047416   2.363   4.857   5.117 -0.3332 -0.5015  0.2012
  214MOL   H13147417   2.526   4.793   5.091 -0.0870 -0.1204  0.4797
  214MOL   H13247418   2.472   5.083   4.711 -3.6922 -0.1973  0.3649
  214MOL   H13347419   2.413   4.958   4.609  0.2519 -1.8708  0.3272
  214MOL   C13447420   2.624   4.929   4.679  0.3564  0.5163 -0.1605
  214MOL   C13547421   2.695   5.047   4.603  0.4905 -0.0081 -0.6900
  214MOL   O13647422   2.705   5.043   4.481 -0.2028 -0.1431 -0.2829
  214MOL   C13747423   2.740   5.174   4.686  0.3804  0.2197 -0.1461
  214MOL   C13847424   2.611   4.809   4.585 -0.7670  0.2452 -0.2998
  214MOL   H13947425   2.672   4.898   4.772 -0.2059  1.1302  0.3452
  214MOL   H14047426   2.792   5.138   4.775 -0.8036  1.5475  1.1081
  214MOL   H14147427   2.811   5.233   4.628  0.3321  0.8362  0.4207
  214MOL   H14247428   2.660   5.243   4.712  0.5114 -1.0816  4.0210
  214MOL   H14347429   2.571   4.836   4.487  0.2166  2.4875 -0.1176
  214MOL   H14447430   2.547   4.730   4.623  1.8016 -0.9279  1.7544
  214MOL   C14547431   2.736   4.731   4.547 -0.6722 -0.2204 -0.1815
  214MOL   C14647432   2.702   4.621   4.452 -0.0849  0.0033  0.0762
  214MOL   O14747433   2.650   4.517   4.482  0.0340 -0.0034  0.0365
  214MOL   C14847434   2.714   4.652   4.300 -0.3317  0.0388 -0.2347
  214MOL   C14947435   2.792   4.669   4.680 -0.0830 -0.3627 -1.0201
  214MOL   H15047436   2.805   4.793   4.489 -1.2765 -1.1514 -1.9316
  214MOL   H15147437   2.657   4.588   4.234 -0.6353  0.4509 -0.3695
  214MOL   H15247438   2.685   4.756   4.285  0.4890  0.2322 -0.5038
  214MOL   H15347439   2.820   4.658   4.273 -0.3090  4.1340  0.4254
  214MOL   H15447440   2.720   4.620   4.747  1.4614  1.2105  1.8891
  214MOL   H15547441   2.824   4.752   4.743 -2.1847 -0.4227  0.1869
  214MOL   C15647442   2.913   4.570   4.659  0.1863 -1.1948 -0.2645
  214MOL   C15747443   2.954   4.496   4.790 -0.3022 -0.1461 -0.2335
  214MOL   O15847444   2.923   4.543   4.895 -0.1363  0.4431 -0.4375
  214MOL   C15947445   3.018   4.356   4.774  0.3584  0.1485  0.1042
  214MOL   C16047446   3.027   4.623   4.569 -0.4753  0.1353  0.4694
  214MOL   H16147447   2.870   4.487   4.603  0.3249 -0.1065 -2.0155
  214MOL   H16247448   3.051   4.316   4.871 -1.8306  2.4915  1.8813
  214MOL   H16347449   2.941   4.289   4.738  0.1324  0.0706  0.7155
  214MOL   H16447450   3.100   4.349   4.702  0.3555 -0.9957  0.2110
  214MOL   H16547451   2.994   4.668   4.475 -1.4056 -0.9899  0.2564
  214MOL   H16647452   3.086   4.538   4.534  0.4794  0.7984  0.4434
  214MOL   C16747453   3.134   4.714   4.630 -0.1555 -0.5287 -0.1192
  214MOL   C16847454   3.094   4.863   4.641 -0.5550 -0.6018  0.3794
  214MOL   O16947455   3.089   4.939   4.543  0.1955 -0.2114 -0.5686
  214MOL   C17047456   3.064   4.921   4.782  0.2982  0.5432  0.7941
  214MOL   C17147457   3.269   4.693   4.575  0.0242 -1.1522  0.1708
  214MOL   H17247458   3.152   4.688   4.734  1.5461  0.1172 -0.2308
  214MOL   H17347459   2.969   4.976   4.782  0.6620  1.2213 -0.9486
  214MOL   H17447460   3.058   4.851   4.865 -1.3238  1.6804  1.6684
  214MOL   H17547461   3.147   4.985   4.810 -0.7497  1.3952  2.0192
  214MOL   H17647462   3.284   4.585   4.575  1.0277 -1.0362 -1.3723
  214MOL   H17747463   3.335   4.726   4.655  1.6204 -0.4904 -1.3835
  214MOL   C17847464   3.314   4.761   4.436 -0.1968 -0.0157 -0.7612
  214MOL   C17947465   3.253   4.678   4.317  0.0807 -0.2977  0.3582
  214MOL   O18047466   3.304   4.569   4.298  0.3603  0.0917 -0.2230
  214MOL   C18147467   3.137   4.742   4.234  0.4067  0.0854 -0.3910
  214MOL   C18247468   3.470   4.773   4.414  0.2082 -0.1709  0.0636
  214MOL   H18347469   3.281   4.864   4.424 -0.6453  0.0077  0.5544
  214MOL   H18447470   3.183   4.820   4.174 -1.6889  1.6066 -0.0826
  214MOL   H18547471   3.098   4.662   4.170  2.0655 -2.3118  1.5087
  214MOL   H18647472   3.053   4.786   4.288 -1.0601 -1.0218 -1.7013
  214MOL   H18747473   3.490   4.808   4.312 -2.2871  0.0307 -0.3854
  214MOL   H18847474   3.522   4.678   4.417  0.0906 -0.2119  0.7334
  214MOL   C18947475   3.550   4.864   4.508 -0.0237 -0.2130 -0.5131
  214MOL   C19047476   3.499   5.004   4.523 -0.1887  0.3292 -1.2433
  214MOL   O19147477   3.452   5.050   4.628  0.5293 -0.0072  0.2189
  214MOL   C19247478   3.511   5.104   4.407 -0.2997  0.1680  0.5667
  214MOL   C19347479   3.707   4.877   4.468 -0.7173  0.4936 -0.1487
  214MOL   H19447480   3.540   4.829   4.610 -2.4422  0.4170 -0.5143
  214MOL   H19547481   3.414   5.119   4.359 -0.1234 -2.7181 -0.7642
  214MOL   H19647482   3.559   5.201   4.421 -0.9077  0.0854  3.4706
  214MOL   H19747483   3.563   5.062   4.321  1.4571 -0.8800  2.1270
  214MOL   H19847484   3.758   4.956   4.523  2.2847 -1.1233 -0.4681
  214MOL   H19947485   3.712   4.907   4.363 -1.2349 -0.3839 -0.4329
  214MOL   C20047486   3.790   4.751   4.460 -0.5342  0.2958 -0.3447
  214MOL   C20147487   3.777   4.668   4.587  0.0859  0.0714 -0.9987
  214MOL   O20247488   3.816   4.717   4.696 -0.5751  0.0193 -0.1592
  214MOL   C20347489   3.742   4.520   4.582  0.5584 -1.0271  0.2384
  214MOL   C20447490   3.933   4.790   4.424  0.7938 -0.2498 -0.2233
  214MOL   H20547491   3.754   4.674   4.392 -1.9966  0.9206 -0.3134
  214MOL   H20647492   3.812   4.459   4.639  1.6401 -1.5496 -1.5785
  214MOL   H20747493   3.644   4.519   4.629  0.0364  2.2293 -0.6611
  214MOL   H20847494   3.737   4.479   4.481 -1.5854  0.3999 -0.2561
  214MOL   H20947495   3.989   4.849   4.497 -0.0135  0.6738 -0.3491
  214MOL   H21047496   3.931   4.865   4.345  2.7928  0.2906  0.2011
  214MOL   C21147497   4.027   4.673   4.379  0.0949 -0.2233  0.3539
  214MOL   C21247498   3.975   4.565   4.280  0.1263  0.4494  0.4097
  214MOL   O21347499   3.946   4.446   4.312 -0.4848  0.3825 -0.3827
  214MOL   C21447500   3.948   4.616   4.145  0.2971  0.0046 -0.0803
  214MOL   C21547501   4.113   4.628   4.491  0.0467 -0.8487  0.6377
  214MOL   H21647502   4.100   4.732   4.323  0.5413  2.0992  3.2570
  214MOL   H21747503   3.884   4.704   4.151  2.1519  1.4175 -0.5098
  214MOL   H21847504   4.034   4.630   4.080 -0.1944 -0.6706 -0.8953
  214MOL   H21947505   3.902   4.536   4.087 -2.1140  1.6981 -0.6113
  214MOL   H22047506   4.176   4.549   4.452  1.5488  1.4542 -1.8002
  214MOL   H22147507   4.059   4.592   4.579 -0.5374 -0.4102  0.4638
  214MOL   H22247508   4.179   4.708   4.526 -0.2688  0.2187 -1.1127
  215MOL     C147509   1.449   1.540   1.798  0.0634  0.4926 -0.0974
  215MOL     C247510   1.538   1.589   1.911  0.0256 -0.5986  0.3451
  215MOL     O347511   1.656   1.561   1.928 -0.4124  0.0632  0.0420
  215MOL     C447512   1.461   1.662   2.020  0.1315 -0.0717 -0.0210
  215MOL     C547513   1.518   1.472   1.678  0.7383  0.1155 -0.7570
  215MOL     H647514   1.363   1.486   1.836 -0.3262 -0.6636 -2.4860
  215MOL     H747515   1.447   1.764   1.984  1.0090 -0.0009 -0.1805
  215MOL     H847516   1.366   1.610   2.022  0.8190 -1.3576 -0.2643
  215MOL     H947517   1.497   1.661   2.123  0.7988 -0.0512 -0.2485
  215MOL    H1047518   1.617   1.517   1.672  0.3851  0.8323 -1.2624
  215MOL    H1147519   1.464   1.511   1.591  0.5182  2.7616  0.5086
  215MOL    H1247520   1.427   1.638   1.754 -2.2298  1.2774  2.6922
  215MOL    C1347521   1.511   1.310   1.677  0.4237 -0.6830  0.0882
  215MOL    C1447522   1.586   1.262   1.798 -0.4992 -1.1459  0.5972
  215MOL    O1547523   1.522   1.215   1.895  0.6042  0.0746 -0.1011
  215MOL    C1647524   1.734   1.279   1.802 -0.4312 -0.1328  0.0863
  215MOL    C1747525   1.562   1.249   1.544  0.1398  0.7008 -0.0483
  215MOL    H1847526   1.411   1.276   1.701 -0.4298  1.0304 -0.8987
  215MOL    H1947527   1.773   1.376   1.773 -1.1415  0.1683  0.1104
  215MOL    H2047528   1.764   1.252   1.903 -1.5750  2.0463  1.0383
  215MOL    H2147529   1.779   1.217   1.725 -0.3849 -1.7340  1.3565
  215MOL    H2247530   1.659   1.284   1.509  1.6142 -1.8071  1.4479
  215MOL    H2347531   1.484   1.291   1.479  1.5570  1.2943 -1.3993
  215MOL    C2447532   1.558   1.093   1.532 -0.2844  0.2300 -0.8191
  215MOL    C2547533   1.623   1.038   1.404 -0.1870 -0.0661 -0.4807
  215MOL    O2647534   1.717   0.950   1.398  0.3522  0.2462  0.9298
  215MOL    C2747535   1.563   1.082   1.276  0.3143 -0.6689  0.1364
  215MOL    C2847536   1.413   1.040   1.556 -0.2255 -0.7926 -0.2697
  215MOL    H2947537   1.622   1.060   1.614 -0.9535 -2.2460 -1.2628
  215MOL    H3047538   1.457   1.105   1.281  0.7993  1.9436 -0.3639
  215MOL    H3147539   1.620   1.175   1.263  1.1316 -1.4715 -2.5176
  215MOL    H3247540   1.571   1.010   1.195 -2.4958 -1.4324  0.5063
  215MOL    H3347541   1.359   1.007   1.467  0.2012 -0.2826 -0.7225
  215MOL    H3447542   1.356   1.120   1.603 -0.8520 -1.5265  0.2321
  215MOL    C3547543   1.408   0.918   1.652 -0.0322  0.0763  0.0725
  215MOL    C3647544   1.490   0.799   1.605 -0.2040  0.1260  0.0574
  215MOL    O3747545   1.461   0.741   1.503 -0.1956 -0.4258 -0.1913
  215MOL    C3847546   1.617   0.769   1.697  0.0897  0.4489 -0.2285
  215MOL    C3947547   1.261   0.884   1.696 -0.3877  0.3248  0.2425
  215MOL    H4047548   1.464   0.956   1.738  0.5648  0.5769 -0.5260
  215MOL    H4147549   1.683   0.855   1.686  1.8259 -0.4274  2.6952
  215MOL    H4247550   1.578   0.754   1.798 -1.3320 -1.1423 -1.0062
  215MOL    H4347551   1.671   0.682   1.660 -1.7355 -0.0850 -1.7370
  215MOL    H4447552   1.187   0.872   1.617 -1.5950  1.0249  1.2421
  215MOL    H4547553   1.227   0.975   1.744 -0.9012  1.4372 -2.1390
  215MOL    C4647554   1.241   0.769   1.793 -0.1182 -0.2240  0.2978
  215MOL    C4747555   1.102   0.712   1.777  0.3732  0.2911  0.0808
  215MOL    O4847556   1.028   0.721   1.872  0.1732 -0.2403 -0.4023
  215MOL    C4947557   1.057   0.635   1.654 -0.6096 -0.4797 -0.6068
  215MOL    C5047558   1.282   0.818   1.935  0.5753  1.1015 -0.2382
  215MOL    H5147559   1.301   0.688   1.751 -0.3729  0.2882 -1.0890
  215MOL    H5247560   1.065   0.526   1.659  0.3457 -0.3740  0.5034
  215MOL    H5347561   0.948   0.640   1.653 -0.6972 -1.9223 -1.9623
  215MOL    H5447562   1.107   0.659   1.560  0.8981 -1.2762 -0.0265
  215MOL    H5547563   1.207   0.884   1.980 -0.5422 -1.7711  2.2280
  215MOL    H5647564   1.358   0.896   1.937 -0.2969  1.9602  0.0261
  215MOL    C5747565   1.298   0.695   2.025 -0.2313 -0.2194  0.0365
  215MOL    C5847566   1.272   0.742   2.167  0.2760  0.4812  0.2086
  215MOL    O5947567   1.354   0.727   2.257 -0.1261  0.3231  0.8126
  215MOL    C6047568   1.139   0.806   2.209 -0.5043 -0.0825  0.1164
  215MOL    C6147569   1.434   0.619   2.001 -0.0507 -0.2616  0.1595
  215MOL    H6247570   1.217   0.624   2.013 -3.0051  2.7151  0.6779
  215MOL    H6347571   1.130   0.797   2.318 -1.8913 -1.3305 -0.0787
  215MOL    H6447572   1.126   0.911   2.181  1.0971 -0.2277 -1.2097
  215MOL    H6547573   1.054   0.753   2.167 -0.4137  0.0672 -0.2534
  215MOL    H6647574   1.519   0.668   2.049  1.3963 -0.8375 -1.7518
  215MOL    H6747575   1.453   0.615   1.894 -0.2027  3.3788 -0.0809
  215MOL    C6847576   1.428   0.486   2.063 -1.3932  0.0437 -0.0344
  215MOL    C6947577   1.562   0.427   2.108 -0.0845 -0.3001  0.3407
  215MOL    O7047578   1.669   0.466   2.065  0.4453  0.1044 -0.2511
  215MOL    C7147579   1.563   0.317   2.212  0.0905 -0.0090 -0.2054
  215MOL    C7247580   1.340   0.376   1.982 -0.1412  0.5044 -0.0731
  215MOL    H7347581   1.380   0.497   2.160 -2.3411  1.8497 -0.6930
  215MOL    H7447582   1.483   0.244   2.201  2.3349 -2.3235 -1.6914
  215MOL    H7547583   1.659   0.268   2.222 -0.1721 -0.2751  1.1382
  215MOL    H7647584   1.545   0.367   2.307  2.3678  1.7371 -0.6472
  215MOL    H7747585   1.241   0.407   1.947  0.0262  0.5221 -0.5384
  215MOL    H7847586   1.309   0.301   2.054  0.2817 -0.1437 -0.5621
  215MOL    C7947587   1.399   0.303   1.860  0.6176  0.5221  0.0099
  215MOL    C8047588   1.404   0.392   1.738  0.2070 -0.4029  0.6296
  215MOL    O8147589   1.303   0.447   1.687 -0.3197 -0.1294  0.2249
  215MOL    C8247590   1.535   0.424   1.675  0.4938  0.4004 -0.6850
  215MOL    C8347591   1.304   0.180   1.825  0.1728  0.3314  0.5073
  215MOL    H8447592   1.500   0.264   1.870 -0.4108 -2.9771 -2.2662
  215MOL    H8547593   1.608   0.351   1.710  0.0727  1.5682  2.8284
  215MOL    H8647594   1.537   0.426   1.566 -0.6256 -0.4999 -0.7393
  215MOL    H8747595   1.570   0.517   1.719 -1.9577  0.4930  1.2522
  215MOL    H8847596   1.201   0.214   1.830  0.6848  2.0438 -0.0846
  215MOL    H8947597   1.316   0.106   1.905 -1.1777 -0.3760  0.0720
  215MOL    C9047598   1.314   0.105   1.688  0.3170 -0.3209  0.8633
  215MOL    C9147599   1.203   7.840   1.671 -0.6822  0.3890 -0.3124
  215MOL    O9247600   1.233   7.720   1.693 -0.1693 -0.1070  0.3262
  215MOL    C9347601   1.058   0.038   1.636  0.0332 -0.1766  0.6560
  215MOL    C9447602   1.451   0.032   1.678  0.0550 -0.3710 -0.0789
  215MOL    H9547603   1.291   0.168   1.602 -0.8099 -2.0490 -0.1334
  215MOL    H9647604   1.054   0.120   1.564 -1.4349 -1.1410 -0.3942
  215MOL    H9747605   1.012   7.789   1.596 -1.5525 -0.2384  2.5901
  215MOL    H9847606   1.009   0.063   1.729  2.6337  2.1875  1.4602
  215MOL    H9947607   1.452   7.803   1.760  1.1855  1.3550  1.4420
  215MOL   H10047608   1.519   0.115   1.699  1.0317 -0.9737 -0.8294
  215MOL   C10147609   1.485   7.801   1.550 -0.3605  0.6864 -0.0505
  215MOL   C10247610   1.596   7.692   1.574  0.1566  0.4150  0.2601
  215MOL   O10347611   1.718   7.711   1.560  0.3276 -0.1193 -0.0113
  215MOL   C10447612   1.544   7.553   1.615 -0.6335 -0.1160  0.3258
  215MOL   C10547613   1.534   0.058   1.445  0.2492 -0.3026 -0.0524
  215MOL   H10647614   1.408   7.745   1.499  2.8967 -2.1179 -2.1107
  215MOL   H10747615   1.493   7.497   1.536  0.7448 -1.8847  0.6729
  215MOL   H10847616   1.621   7.493   1.662 -1.8755  0.0529  2.6339
  215MOL   H10947617   1.463   7.558   1.688 -0.6403  0.6060  0.2719
  215MOL   H11047618   1.581   0.002   1.364  0.0589  1.2291 -1.2633
  215MOL   H11147619   1.612   0.122   1.485 -0.6244  0.5768  0.2537
  215MOL   C11247620   1.442   0.155   1.373  0.4584 -0.1682 -0.1293
  215MOL   C11347621   1.317   0.085   1.319  0.0936 -0.4887 -0.1105
  215MOL   O11447622   1.210   0.135   1.344 -0.3416 -0.3067  0.0903
  215MOL   C11547623   1.335   7.804   1.231 -0.5451  0.2977 -0.2170
  215MOL   C11647624   1.513   0.238   1.267  0.1722  0.5029 -0.2040
  215MOL   H11747625   1.411   0.225   1.451  1.9317 -1.6062  1.8141
  215MOL   H11847626   1.370   7.717   1.286 -2.5201  0.5309  1.4966
  215MOL   H11947627   1.235   7.791   1.187 -1.8175  3.0276  1.7233
  215MOL   H12047628   1.401   7.831   1.148 -1.3936  0.6675 -0.7813
  215MOL   H12147629   1.585   0.177   1.213  0.7108  0.5269  0.4827
  215MOL   H12247630   1.573   0.312   1.319 -0.2835 -1.0841  2.6996
  215MOL   C12347631   1.421   0.324   1.175 -0.3960 -0.8604 -0.0913
  215MOL   C12447632   1.487   0.359   1.041 -0.0821  0.2561 -0.4964
  215MOL   O12547633   1.545   0.464   1.018  0.0114 -0.1238  0.0012
  215MOL   C12647634   1.465   0.253   0.930  0.1808  0.4593  0.1461
  215MOL   C12747635   1.375   0.443   1.247  0.1633 -0.1862  0.2973
  215MOL   H12847636   1.332   0.270   1.142  0.6046 -2.0559 -0.8484
  215MOL   H12947637   1.410   0.165   0.963  1.4599 -0.5380 -0.2966
  215MOL   H13047638   1.411   0.301   0.848 -0.3681  1.7617  1.2729
  215MOL   H13147639   1.563   0.217   0.898 -0.0815 -0.2139  0.0774
  215MOL   H13247640   1.463   0.505   1.263 -1.3475  1.8219  1.0357
  215MOL   H13347641   1.350   0.422   1.351 -1.3396  0.9621  0.1837
  215MOL   C13447642   1.266   0.525   1.179 -0.3233  0.2001  0.5941
  215MOL   C13547643   1.277   0.669   1.229 -0.7223 -0.6209  0.8867
  215MOL   O13647644   1.193   0.715   1.304 -0.9625 -0.9852  0.5999
  215MOL   C13747645   1.385   0.758   1.177 -0.6430  0.5135  0.1714
  215MOL   C13847646   1.120   0.469   1.213 -0.3155  0.4490  0.0158
  215MOL   H13947647   1.282   0.523   1.071 -1.2828  0.5716  0.4386
  215MOL   H14047648   1.365   0.859   1.212  1.0697  0.0048  2.7358
  215MOL   H14147649   1.488   0.734   1.205 -0.9477 -2.0282 -0.6989
  215MOL   H14247650   1.381   0.756   1.068  0.6463 -1.9622  0.1345
  215MOL   H14347651   1.095   0.494   1.316  2.5827 -0.2618  0.9282
  215MOL   H14447652   1.122   0.360   1.216  3.2779  0.3786 -1.6025
  215MOL   C14547653   0.993   0.516   1.130 -1.0071  0.3013  0.3284
  215MOL   C14647654   0.865   0.505   1.207 -0.0661 -0.1151  0.5030
  215MOL   O14747655   0.824   0.399   1.243 -0.2432  0.2184 -0.2575
  215MOL   C14847656   0.789   0.632   1.233  0.1724  0.2686  0.0663
  215MOL   C14947657   0.985   0.447   0.994  0.4513  0.6714  0.5428
  215MOL   H15047658   1.019   0.621   1.117 -1.1377  0.2680 -0.2097
  215MOL   H15147659   0.836   0.684   1.316 -0.3319  0.6792  0.0966
  215MOL   H15247660   0.792   0.699   1.147  1.1859 -0.4034 -0.4415
  215MOL   H15347661   0.689   0.609   1.269 -0.3220  1.0593 -0.7869
  215MOL   H15447662   1.076   0.473   0.940 -0.0742  0.7984 -0.2933
  215MOL   H15547663   0.912   0.510   0.942  0.5257  0.5016  0.2269
  215MOL   C15647664   0.940   0.300   0.991 -0.1025 -0.1279 -0.8869
  215MOL   C15747665   1.040   0.195   1.034 -0.4280  0.4984 -0.4636
  215MOL   O15847666   1.159   0.206   1.008 -0.3046  0.3864  0.0229
  215MOL   C15947667   0.996   0.064   1.098  0.4137 -1.3597 -0.1697
  215MOL   C16047668   0.887   0.264   0.850 -0.9188 -0.2271  1.0171
  215MOL   H16147669   0.855   0.281   1.056  0.7984 -1.0822  0.0534
  215MOL   H16247670   1.032   0.057   1.200  1.1944  2.0287 -0.1729
  215MOL   H16347671   0.888   0.060   1.108  0.5028 -1.2797  0.8096
  215MOL   H16447672   1.026   7.828   1.027  2.1608  0.1956 -1.1997
  215MOL   H16547673   0.802   0.325   0.820 -0.1623 -0.5777 -1.9211
  215MOL   H16647674   0.843   0.165   0.851  1.2026 -1.1973  0.6802
  215MOL   C16747675   0.990   0.259   0.731 -0.0226 -0.1955  0.3666
  215MOL   C16847676   0.999   0.388   0.641  0.1948  0.0524  0.6466
  215MOL   O16947677   0.906   0.468   0.635 -0.6119 -0.5038 -0.0877
  215MOL   C17047678   1.124   0.427   0.566 -0.4155  0.6261 -0.5024
  215MOL   C17147679   0.981   0.133   0.639 -0.0803 -0.1418  0.0327
  215MOL   H17247680   1.088   0.277   0.776  0.5346 -1.3230 -0.3768
  215MOL   H17347681   1.103   0.446   0.461 -0.2059 -2.3599 -1.1438
  215MOL   H17447682   1.175   0.517   0.600  0.1335 -0.8369  2.7297
  215MOL   H17547683   1.188   0.339   0.568 -0.3397  0.7087  1.7047
  215MOL   H17647684   1.045   0.141   0.551  0.6325 -0.4680  0.5140
  215MOL   H17747685   0.881   0.114   0.600 -0.0918 -0.5807  0.2671
  215MOL   C17847686   1.034   7.840   0.714 -0.2101  0.8041  0.4006
  215MOL   C17947687   1.189   7.831   0.703 -0.4591 -0.6056 -0.5745
  215MOL   O18047688   1.238   7.836   0.589  0.0345 -0.3111 -0.1099
  215MOL   C18147689   1.261   7.793   0.827 -0.5312  0.3028  0.7025
  215MOL   C18247690   0.965   7.718   0.644  0.0115  0.3355  0.0290
  215MOL   H18347691   0.992   7.826   0.813  1.4213 -1.8657  0.7592
  215MOL   H18447692   1.271   0.015   0.915 -1.8267 -0.9843  1.8118
  215MOL   H18547693   1.230   7.693   0.858 -0.2192 -0.0216 -0.0190
  215MOL   H18647694   1.362   7.775   0.790 -1.4513 -1.5926 -0.9731
  215MOL   H18747695   1.023   7.626   0.656 -0.4491  0.3098  2.0916
  215MOL   H18847696   0.971   7.733   0.536  0.9384 -0.5237 -0.0457
  215MOL   C18947697   0.822   7.681   0.691 -0.4765 -0.3945 -0.3588
  215MOL   C19047698   0.821   7.588   0.816  0.0769  0.1276  0.3876
  215MOL   O19147699   0.812   7.463   0.805 -0.3378 -0.2743  0.3183
  215MOL   C19247700   0.821   7.649   0.958 -0.1142  0.5371  0.1054
  215MOL   C19347701   0.740   7.622   0.576  0.4007 -0.2610 -0.5431
  215MOL   H19447702   0.781   7.771   0.738  1.4484  1.5043 -2.2360
  215MOL   H19547703   0.779   7.750   0.957  0.2477  0.6855 -0.3968
  215MOL   H19647704   0.748   7.588   1.011 -1.0531  2.1074  0.6480
  215MOL   H19747705   0.923   7.654   0.996  0.2470  0.8132 -0.8778
  215MOL   H19847706   0.790   7.528   0.551 -0.3310 -0.8710  0.2104
  215MOL   H19947707   0.749   7.686   0.489 -1.9912 -0.1916 -0.7670
  215MOL   C20047708   0.591   7.574   0.607 -0.1800 -0.2431 -0.1216
  215MOL   C20147709   0.533   7.465   0.518 -0.8125 -0.2912  0.4960
  215MOL   O20247710   0.568   7.467   0.399  0.4833  0.5917  0.6112
  215MOL   C20347711   0.447   7.351   0.575  0.0334  0.1352  0.5625
  215MOL   C20447712   0.503   7.706   0.616 -0.5391  0.1179 -0.4047
  215MOL   H20547713   0.602   7.519   0.700 -0.0550  0.4313  0.2666
  215MOL   H20647714   0.486   7.258   0.531  1.2462  1.3934 -1.0990
  215MOL   H20747715   0.465   7.351   0.682 -0.2357 -2.2831  0.6347
  215MOL   H20847716   0.342   7.352   0.546  0.1326 -4.2666 -0.4254
  215MOL   H20947717   0.522   7.762   0.525 -0.7527  0.3042 -0.3344
  215MOL   H21047718   0.542   7.774   0.691  0.2046 -0.1667 -0.5346
  215MOL   C21147719   0.351   7.691   0.656 -0.2254  0.4444  0.1532
  215MOL   C21247720   0.320   7.587   0.770  0.1184  0.0604 -0.0718
  215MOL   O21347721   0.224   7.507   0.765  0.1717  0.4956  0.7730
  215MOL   C21447722   0.406   7.596   0.890  0.6258  0.6654  0.8475
  215MOL   C21547723   0.263   7.655   0.534  0.4123 -0.3673 -0.6185
  215MOL   H21647724   0.311   7.789   0.680  0.3251  1.3024 -2.2680
  215MOL   H21747725   0.332   7.602   0.970 -0.2615 -0.4458  0.1313
  215MOL   H21847726   0.463   7.504   0.890 -0.4713 -0.0265  0.3582
  215MOL   H21947727   0.460   7.689   0.875 -0.0101  1.0522  0.9187
  215MOL   H22047728   0.291   7.699   0.438 -2.3415 -0.6507 -1.6117
  215MOL   H22147729   0.161   7.690   0.554  0.3968  0.2079 -1.6353
  215MOL   H22247730   0.253   7.547   0.523  1.3870 -0.5510  0.3355
  216MOL     C147731   0.496   5.436   1.765  0.5275 -0.0013 -0.1359
  216MOL     C247732   0.396   5.328   1.804  0.1691 -0.7105  0.5740
  216MOL     O347733   0.295   5.307   1.744  1.1390 -0.7641  0.2720
  216MOL     C447734   0.430   5.252   1.928 -0.2486 -0.1319  0.0520
  216MOL     C547735   0.485   5.489   1.614 -0.2142 -0.0781 -0.4402
  216MOL     H647736   0.472   5.509   1.843  2.1088 -0.7374  1.0504
  216MOL     H747737   0.412   5.310   2.018  0.1961  1.5576 -0.9129
  216MOL     H847738   0.368   5.162   1.924 -0.9765  0.3600  0.1009
  216MOL     H947739   0.535   5.226   1.934 -0.6108 -1.4896  0.5990
  216MOL    H1047740   0.487   5.598   1.619 -0.6056 -0.1764  2.9385
  216MOL    H1147741   0.388   5.463   1.573 -0.4764  0.7461 -0.3449
  216MOL    H1247742   0.601   5.412   1.783  0.5716  0.2243 -0.0876
  216MOL    C1347743   0.601   5.445   1.525  0.1891  0.0483  0.4130
  216MOL    C1447744   0.732   5.518   1.565 -0.0854  0.1008 -0.4817
  216MOL    O1547745   0.733   5.633   1.615  0.2331  0.3864 -0.5694
  216MOL    C1647746   0.860   5.442   1.542  0.4532  0.0570  0.7908
  216MOL    C1747747   0.569   5.475   1.380  0.0303 -0.1279 -0.0487
  216MOL    H1847748   0.611   5.336   1.533 -0.3392 -0.0209  0.1416
  216MOL    H1947749   0.845   5.334   1.535 -1.5625  0.4330 -1.1370
  216MOL    H2047750   0.895   5.480   1.446 -1.2185 -0.2448  0.0481
  216MOL    H2147751   0.933   5.466   1.620  0.3945 -0.2313  0.9365
  216MOL    H2247752   0.654   5.521   1.329  1.0897 -2.1898 -0.2014
  216MOL    H2347753   0.493   5.553   1.377  1.3093  1.1426  0.1114
  216MOL    C2447754   0.539   5.346   1.288 -0.5387  0.8815  0.4367
  216MOL    C2547755   0.416   5.267   1.332 -0.1533 -0.2732  0.1949
  216MOL    O2647756   0.426   5.171   1.406  0.0734  0.3857 -0.2200
  216MOL    C2747757   0.274   5.312   1.305 -0.4356 -0.4473 -0.2236
  216MOL    C2847758   0.669   5.258   1.280 -0.5786 -0.0297  0.2066
  216MOL    H2947759   0.521   5.376   1.185  0.8271  1.5412  0.3797
  216MOL    H3047760   0.246   5.413   1.334 -1.1182 -0.3573 -1.1577
  216MOL    H3147761   0.250   5.302   1.199  1.8961 -0.6890 -0.7652
  216MOL    H3247762   0.189   5.261   1.349 -0.1078 -3.3207 -2.7467
  216MOL    H3347763   0.704   5.213   1.372 -1.3368 -0.6760  0.1910
  216MOL    H3447764   0.748   5.328   1.253 -0.0620  0.2831  2.4198
  216MOL    C3547765   0.670   5.147   1.168 -0.2173  0.3702  0.4209
  216MOL    C3647766   0.759   5.038   1.213  0.3197  0.3197 -0.1567
  216MOL    O3747767   0.711   4.924   1.234  0.2569 -0.2947  0.3974
  216MOL    C3847768   0.913   5.062   1.221 -0.8193 -1.1927 -0.9652
  216MOL    C3947769   0.709   5.212   1.028 -0.0620 -0.6257  0.2788
  216MOL    H4047770   0.570   5.108   1.186 -0.5372  1.2866  0.6476
  216MOL    H4147771   0.932   5.169   1.218 -0.0656 -1.0887  3.3817
  216MOL    H4247772   0.945   5.030   1.320 -3.1612 -1.5866 -0.2967
  216MOL    H4347773   0.969   5.026   1.135  0.5881 -2.2233  0.3614
  216MOL    H4447774   0.814   5.202   1.000 -0.5550  0.1695 -1.9628
  216MOL    H4547775   0.697   5.320   1.035  2.0254 -0.3668 -0.0535
  216MOL    C4647776   0.626   5.163   0.910  0.3529 -0.2843  0.0377
  216MOL    C4747777   0.477   5.200   0.933 -0.2609  0.1511  0.2670
  216MOL    O4847778   0.445   5.321   0.945  0.2945  0.3349 -0.5384
  216MOL    C4947779   0.371   5.092   0.924  0.2525 -0.0342 -0.4947
  216MOL    C5047780   0.650   5.012   0.871 -0.0663  0.5526  0.5498
  216MOL    H5147781   0.653   5.219   0.820  2.7606  0.5064  1.2201
  216MOL    H5247782   0.406   5.003   0.976  0.7173  0.7073  0.4803
  216MOL    H5347783   0.284   5.129   0.978  1.4961 -0.4375  1.8700
  216MOL    H5447784   0.334   5.071   0.824 -1.5312  1.7521 -0.2424
  216MOL    H5547785   0.598   4.990   0.777  0.0702 -0.0489  0.6117
  216MOL    H5647786   0.609   4.951   0.951  0.9227  0.4738  1.0039
  216MOL    C5747787   0.789   4.953   0.857  0.4754 -0.7377 -0.2437
  216MOL    C5847788   0.879   5.038   0.760  0.5435 -0.1182  0.3557
  216MOL    O5947789   0.825   5.111   0.671  0.1113 -0.1916 -0.7095
  216MOL    C6047790   1.029   5.028   0.772 -0.1547  0.3304 -0.4218
  216MOL    C6147791   0.794   4.804   0.817 -0.4668 -0.4628  0.1500
  216MOL    H6247792   0.836   4.962   0.954 -0.1734 -1.7674  0.1802
  216MOL    H6347793   1.050   5.052   0.877  2.1109 -0.4888 -0.6624
  216MOL    H6447794   1.071   4.927   0.769 -1.0458 -0.1304  1.8007
  216MOL    H6547795   1.079   5.093   0.700  1.0375  0.3464  0.3864
  216MOL    H6647796   0.893   4.789   0.776  0.2110  1.9960  0.8160
  216MOL    H6747797   0.725   4.797   0.733  0.0983  1.4405 -0.4820
  216MOL    C6847798   0.753   4.701   0.922 -0.5076 -0.2391  0.0594
  216MOL    C6947799   0.850   4.687   1.038  1.1808 -0.0218 -0.1133
  216MOL    O7047800   0.961   4.732   1.023  0.6206  0.2871  0.2441
  216MOL    C7147801   0.800   4.615   1.166  0.0985 -0.0430  0.1758
  216MOL    C7247802   0.697   4.572   0.862 -0.3273  0.5729  0.1302
  216MOL    H7347803   0.665   4.746   0.967  0.3568  0.7660  0.7912
  216MOL    H7447804   0.695   4.589   1.151 -0.0216  0.0306  0.9210
  216MOL    H7547805   0.862   4.531   1.197 -1.6039 -1.3437  0.1733
  216MOL    H7647806   0.811   4.682   1.251  1.8359  0.3806 -0.3608
  216MOL    H7747807   0.617   4.605   0.795 -0.5473  1.7916  0.9809
  216MOL    H7847808   0.648   4.507   0.934 -0.0191  2.0165  1.6553
  216MOL    C7947809   0.781   4.475   0.775 -0.0348 -0.3622 -0.4418
  216MOL    C8047810   0.698   4.393   0.676 -0.5871  0.7053  0.2011
  216MOL    O8147811   0.707   4.267   0.666  0.2094 -0.1777 -0.0122
  216MOL    C8247812   0.610   4.474   0.583 -0.2411 -0.5419 -0.3504
  216MOL    C8347813   0.885   4.390   0.860  0.0148  0.3456 -0.0811
  216MOL    H8447814   0.840   4.538   0.708 -0.5978 -0.4859 -1.0687
  216MOL    H8547815   0.677   4.541   0.530  1.1423 -1.8320 -0.2550
  216MOL    H8647816   0.565   4.415   0.503 -0.4148 -1.6843  0.5788
  216MOL    H8747817   0.529   4.530   0.630  1.6897 -0.0771  2.5264
  216MOL    H8847818   0.841   4.320   0.931  0.1318 -0.3465 -0.6846
  216MOL    H8947819   0.924   4.460   0.933  0.5505 -1.5289  1.4487
  216MOL    C9047820   0.996   4.322   0.778  0.2064 -0.2756 -0.2978
  216MOL    C9147821   1.067   4.214   0.860  1.1027 -0.1655 -0.3235
  216MOL    O9247822   1.174   4.237   0.924  0.5402 -0.2527 -0.7135
  216MOL    C9347823   1.013   4.067   0.849  0.1539 -0.3386 -0.6228
  216MOL    C9447824   1.096   4.426   0.727  0.3518 -0.8531  0.1727
  216MOL    H9547825   0.943   4.275   0.695  1.3398  0.9883 -1.7424
  216MOL    H9647826   0.923   4.069   0.788 -0.2048  0.4875 -0.0677
  216MOL    H9747827   1.085   4.012   0.788  0.0848  1.2392 -2.1459
  216MOL    H9847828   0.980   4.024   0.944 -1.5555  0.8778 -0.6531
  216MOL    H9947829   1.156   4.452   0.813  0.8500 -3.0657  0.5048
  216MOL   H10047830   1.043   4.517   0.697  1.0667 -0.9771 -1.5470
  216MOL   C10147831   1.190   4.395   0.607 -0.7447  0.5685 -0.0949
  216MOL   C10247832   1.114   4.311   0.495  0.5246  0.3757 -0.4601
  216MOL   O10347833   1.100   4.189   0.502  0.2762  0.2077 -0.1429
  216MOL   C10447834   1.049   4.389   0.381  0.7563 -0.0107 -0.1773
  216MOL   C10547835   1.316   4.297   0.651  0.2107  0.6597 -0.3814
  216MOL   H10647836   1.230   4.485   0.560  2.1439 -0.8818 -0.5427
  216MOL   H10747837   1.069   4.352   0.280 -1.0054  3.6208 -1.9635
  216MOL   H10847838   0.940   4.400   0.383  0.8768  1.2741 -0.2112
  216MOL   H10947839   1.088   4.490   0.388 -1.9845  1.1390 -0.6276
  216MOL   H11047840   1.364   4.276   0.556  0.4990  1.5974 -0.4437
  216MOL   H11147841   1.285   4.197   0.683 -0.8671  1.3107  0.6373
  216MOL   C11247842   1.416   4.360   0.753  0.5768  0.5121  0.1743
  216MOL   C11347843   1.456   4.498   0.710 -0.2483 -0.0547  0.3627
  216MOL   O11447844   1.481   4.534   0.593 -0.1603  0.3381  0.3202
  216MOL   C11547845   1.483   4.590   0.828  0.3026 -0.2151  0.7244
  216MOL   C11647846   1.550   4.282   0.771  0.2988 -0.6359 -0.5718
  216MOL   H11747847   1.375   4.369   0.854  0.6258  0.1593  0.2291
  216MOL   H11847848   1.384   4.608   0.869 -1.4127 -1.7020 -2.5850
  216MOL   H11947849   1.563   4.564   0.897 -0.6841 -2.8856  0.9142
  216MOL   H12047850   1.516   4.689   0.796 -1.3071 -1.0927 -4.1801
  216MOL   H12147851   1.625   4.342   0.822  0.9727 -0.7379 -1.4430
  216MOL   H12247852   1.596   4.263   0.674 -0.3464 -1.1568 -0.7833
  216MOL   C12347853   1.541   4.156   0.868  0.1652  0.2304 -0.1150
  216MOL   C12447854   1.493   4.184   1.013 -0.1924 -0.3928 -0.5485
  216MOL   O12547855   1.508   4.292   1.061  0.0044  0.0956  0.2100
  216MOL   C12647856   1.418   4.076   1.090 -0.6139  1.2958  0.5424
  216MOL   C12747857   1.669   4.069   0.861 -0.4083 -0.0090 -0.3816
  216MOL   H12847858   1.457   4.099   0.828  0.1224  2.4189 -3.3411
  216MOL   H12947859   1.313   4.059   1.064 -0.6680 -1.1369  2.1458
  216MOL   H13047860   1.463   3.976   1.083  0.3872  1.7450  0.4861
  216MOL   H13147861   1.434   4.109   1.193  2.3726 -0.0563  0.5798
  216MOL   H13247862   1.657   4.005   0.947  1.5922 -0.6222 -0.5290
  216MOL   H13347863   1.759   4.128   0.878 -0.1782 -1.2863  3.0859
  216MOL   C13447864   1.692   3.989   0.722 -0.1656 -0.2279  0.1582
  216MOL   C13547865   1.564   3.932   0.653 -0.5576  0.0882  0.0339
  216MOL   O13647866   1.503   3.838   0.703  0.0389 -0.2256  0.8331
  216MOL   C13747867   1.516   3.998   0.524 -0.1556  0.1067 -0.1336
  216MOL   C13847868   1.799   3.880   0.724 -0.6999 -0.3623 -0.4890
  216MOL   H13947869   1.731   4.067   0.658  0.4852  0.5460  1.4850
  216MOL   H14047870   1.601   3.989   0.456 -0.9327 -2.2324 -0.8294
  216MOL   H14147871   1.437   3.948   0.470  0.4147  0.1332 -1.0012
  216MOL   H14247872   1.483   4.100   0.543 -0.6910 -0.1073  0.0918
  216MOL   H14347873   1.759   3.779   0.722 -0.1814 -0.5618 -2.4380
  216MOL   H14447874   1.845   3.877   0.823  0.3980 -1.5585 -1.0196
  216MOL   C14547875   1.911   3.895   0.626  0.3119  0.0520 -0.4932
  216MOL   C14647876   1.998   3.768   0.615  0.0643  0.4259 -0.1871
  216MOL   O14747877   2.107   3.754   0.669  0.0540 -0.3838  0.3434
  216MOL   C14847878   1.945   3.641   0.534 -0.5535  0.5674 -0.1387
  216MOL   C14947879   2.006   4.017   0.660  0.7528 -0.0906 -0.1668
  216MOL   H15047880   1.862   3.906   0.529  0.4836 -0.5455 -0.6531
  216MOL   H15147881   1.918   3.665   0.431  1.2698  2.4571 -0.2080
  216MOL   H15247882   2.020   3.561   0.534 -1.1913 -0.0488  1.7939
  216MOL   H15347883   1.862   3.587   0.578  0.1144 -1.6212 -1.4883
  216MOL   H15447884   2.075   3.979   0.736 -1.0013 -0.4421  1.2771
  216MOL   H15547885   1.941   4.093   0.704 -0.7711 -0.2686 -2.0553
  216MOL   C15647886   2.072   4.089   0.541 -0.6202 -0.5304  0.3555
  216MOL   C15747887   2.186   4.011   0.469  0.2055 -0.0608  0.2679
  216MOL   O15847888   2.168   3.968   0.354 -0.9520 -0.0309  0.2994
  216MOL   C15947889   2.314   3.980   0.545 -0.7717 -0.2930  0.0976
  216MOL   C16047890   2.120   4.235   0.582 -0.3319  0.0666  0.2998
  216MOL   H16147891   1.995   4.089   0.464  0.8900 -1.3432 -1.1884
  216MOL   H16247892   2.395   4.048   0.520 -1.4822  0.2773 -0.6688
  216MOL   H16347893   2.298   3.975   0.652 -0.1411  1.5105  0.2828
  216MOL   H16447894   2.349   3.880   0.517 -0.6860 -0.7543  1.8056
  216MOL   H16547895   2.180   4.240   0.673  0.0218 -0.2794  0.0890
  216MOL   H16647896   2.035   4.297   0.609  0.2996  1.1402 -0.1084
  216MOL   C16747897   2.194   4.317   0.475 -0.5215  0.2049  1.0685
  216MOL   C16847898   2.277   4.430   0.546 -0.1759  0.4838  0.0893
  216MOL   O16947899   2.233   4.493   0.643  0.1229 -0.0436  0.1777
  216MOL   C17047900   2.419   4.453   0.494 -0.1563 -0.5934  0.2760
  216MOL   C17147901   2.085   4.365   0.367 -0.0128  0.4762  0.4840
  216MOL   H17247902   2.271   4.270   0.413 -0.8275  0.4525  0.5007
  216MOL   H17347903   2.424   4.547   0.439  1.9879 -0.8692 -0.0634
  216MOL   H17447904   2.496   4.462   0.571 -1.6896  0.5643  1.6915
  216MOL   H17547905   2.442   4.371   0.426 -0.7492 -1.1200  0.7035
  216MOL   H17647906   2.122   4.462   0.332  0.9919  1.1512  3.2818
  216MOL   H17747907   1.989   4.385   0.414 -0.7526  1.5423 -1.4255
  216MOL   C17847908   2.050   4.276   0.242  0.7556  0.3633  0.4252
  216MOL   C17947909   2.171   4.253   0.149 -0.2844 -0.4674 -0.4717
  216MOL   O18047910   2.262   4.336   0.137 -0.4514  0.0674  0.4683
  216MOL   C18147911   2.170   4.123   0.068  0.0456 -0.1640 -0.0321
  216MOL   C18247912   1.930   4.326   0.160  0.2261 -0.3718 -0.4354
  216MOL   H18347913   2.024   4.176   0.276  1.3346 -0.3105 -1.0381
  216MOL   H18447914   2.241   4.129   7.828 -1.0468 -1.5133 -1.0969
  216MOL   H18547915   2.206   4.031   0.114 -0.6481 -1.2530 -1.6395
  216MOL   H18647916   2.072   4.106   0.023 -0.5367  0.6317  0.9033
  216MOL   H18747917   1.950   4.318   0.053  0.8329  0.3734 -0.3861
  216MOL   H18847918   1.919   4.433   0.180  0.8655 -0.2428 -0.7918
  216MOL   C18947919   1.799   4.242   0.182  0.1820  0.2667 -0.1097
  216MOL   C19047920   1.740   4.257   0.319  0.0066  0.0821 -0.3176
  216MOL   O19147921   1.781   4.185   0.414 -0.6104 -0.0304  0.2441
  216MOL   C19247922   1.640   4.366   0.345  0.5725  0.2757  0.6111
  216MOL   C19347923   1.810   4.092   0.135 -0.5821  0.1935 -0.9699
  216MOL   H19447924   1.724   4.291   0.119 -1.3511 -0.8905  0.7706
  216MOL   H19547925   1.629   4.369   0.454  1.8653  0.3015  0.7453
  216MOL   H19647926   1.677   4.458   0.299  1.2830 -0.1777  0.2659
  216MOL   H19747927   1.544   4.335   0.305  1.4031 -2.1578  0.3967
  216MOL   H19847928   1.862   4.039   0.215 -2.1584 -1.7218 -1.1818
  216MOL   H19947929   1.870   4.088   0.044  0.3879  2.3732 -0.4739
  216MOL   C20047930   1.673   4.027   0.125  0.2632  0.1461  0.2046
  216MOL   C20147931   1.693   3.877   0.141 -0.3657  0.4843  0.7411
  216MOL   O20247932   1.689   3.808   0.038  0.3883  0.1174 -0.3284
  216MOL   C20347933   1.744   3.831   0.280 -0.3152  0.1384 -0.1946
  216MOL   C20447934   1.599   4.082   0.001 -0.0842  0.3116  0.1112
  216MOL   H20547935   1.614   4.059   0.210  0.0889  3.3966 -1.0678
  216MOL   H20647936   1.782   3.903   0.353 -0.0929 -1.6249  1.4752
  216MOL   H20747937   1.660   3.780   0.327 -0.3863  0.1743 -0.2823
  216MOL   H20847938   1.832   3.768   0.265  0.1372 -0.0423  2.8553
  216MOL   H20947939   1.632   4.038   7.749  1.3835  1.1044  0.2262
  216MOL   H21047940   1.635   4.181   7.816  0.6044 -0.2040 -0.9028
  216MOL   C21147941   1.444   4.070   7.842  0.3322 -0.7926 -0.7988
  216MOL   C21247942   1.381   4.109   7.706 -0.1582  0.8955  0.3655
  216MOL   O21347943   1.415   4.199   7.636  0.0666 -0.2903  0.1559
  216MOL   C21447944   1.256   4.034   7.669 -0.1320 -0.0920 -0.3975
  216MOL   C21547945   1.368   4.148   0.114  0.1377  0.3942 -0.1254
  216MOL   H21647946   1.415   3.965   0.008 -0.6023 -0.6796 -2.4524
  216MOL   H21747947   1.284   3.936   7.630  0.9299  0.2695 -0.5663
  216MOL   H21847948   1.198   4.017   7.759 -0.0208 -2.0608 -0.6635
  216MOL   H21947949   1.194   4.083   7.594 -1.0682  0.7091  0.8998
  216MOL   H22047950   1.348   4.079   0.196  1.7915 -2.0539 -1.7053
  216MOL   H22147951   1.270   4.179   0.078 -0.7461 -0.9712  1.0153
  216MOL   H22247952   1.415   4.236   0.158  2.2884 -1.6343  1.8405
  217MOL     C147953   0.962   5.824   7.580  0.7027  0.3808  0.1562
  217MOL     C247954   0.925   5.756   7.448  0.8282 -0.4480  0.0166
  217MOL     O347955   0.987   5.787   7.344  0.4469 -0.5968 -0.2492
  217MOL     C447956   0.798   5.672   7.438 -0.2268 -0.0112 -0.4266
  217MOL     C547957   1.082   5.917   7.579 -0.1056 -0.4438 -0.5451
  217MOL     H647958   0.872   5.872   7.618  1.0733 -0.3388  2.0317
  217MOL     H747959   0.795   5.616   7.344  1.0525  0.2636 -0.6337
  217MOL     H847960   0.805   5.605   7.524 -1.2522 -0.5524 -0.7541
  217MOL     H947961   0.708   5.730   7.461 -0.5341  0.2728 -2.2339
  217MOL    H1047962   1.150   5.912   7.494  0.5753 -2.4795  0.0636
  217MOL    H1147963   1.135   5.880   7.668 -0.9842 -0.5723 -0.0732
  217MOL    H1247964   0.989   5.736   7.639 -3.1793 -0.9123  0.1785
  217MOL    C1347965   1.042   6.065   7.601  0.5834 -0.0201  0.9012
  217MOL    C1447966   0.971   6.133   7.481 -0.4849  0.0835  0.1966
  217MOL    O1547967   1.001   6.122   7.362  0.0376 -0.5307 -0.6367
  217MOL    C1647968   0.855   6.222   7.508 -0.3478 -0.0288 -0.9036
  217MOL    C1747969   1.167   6.145   7.656 -0.1418  0.0014  0.2356
  217MOL    H1847970   0.962   6.076   7.674  0.9233  1.5451  1.0568
  217MOL    H1947971   0.778   6.149   7.534 -0.2619  0.5505  1.0953
  217MOL    H2047972   0.882   6.282   7.595  1.6924 -1.4678 -0.4858
  217MOL    H2147973   0.844   6.293   7.427 -0.1886  1.4539  0.3506
  217MOL    H2247974   1.157   6.246   7.615 -1.5753  0.0133  0.5604
  217MOL    H2347975   1.252   6.097   7.607 -0.6017 -1.2967  0.6718
  217MOL    C2447976   1.171   6.147   7.808 -0.6706  0.4676  0.2024
  217MOL    C2547977   1.074   6.251   0.025 -0.6269 -0.4478  0.3213
  217MOL    O2647978   1.028   6.340   7.798  0.0454 -0.6092  0.8109
  217MOL    C2747979   1.035   6.232   0.171  0.3045 -0.2014  0.5062
  217MOL    C2847980   1.318   6.183   0.019 -0.4345  0.0932 -0.1023
  217MOL    H2947981   1.144   6.048   0.004 -0.9480 -0.4977 -2.3957
  217MOL    H3047982   0.948   6.167   0.157  1.8348 -2.0727 -0.4607
  217MOL    H3147983   1.118   6.194   0.230  1.6052  0.6929 -0.7132
  217MOL    H3247984   0.996   6.324   0.216  0.0645 -1.2647  2.5507
  217MOL    H3347985   1.323   6.217   0.122 -0.7822  0.6182 -0.2595
  217MOL    H3447986   1.343   6.273   7.805 -0.4514  0.0013 -0.2603
  217MOL    C3547987   1.437   6.086   7.832 -0.3784  0.2351 -0.1418
  217MOL    C3647988   1.404   5.937   0.000 -1.0641  0.5654 -0.7955
  217MOL    O3747989   1.355   5.890   0.102 -0.0860 -0.1411 -0.2634
  217MOL    C3847990   1.430   5.846   7.717  0.2749 -0.1340 -0.9394
  217MOL    C3947991   1.563   6.112   0.081 -0.5564 -0.2830  0.7537
  217MOL    H4047992   1.457   6.107   7.726  1.4705 -0.0403  0.1463
  217MOL    H4147993   1.336   5.816   7.670  1.3599 -1.9842 -2.0253
  217MOL    H4247994   1.492   5.907   7.652 -0.3081  1.6525  0.1647
  217MOL    H4347995   1.478   5.751   7.742 -0.5293 -0.3846 -0.3282
  217MOL    H4447996   1.530   6.085   0.181 -2.8294 -0.0152  0.1136
  217MOL    H4547997   1.589   6.218   0.080  0.4643 -0.5171 -2.3660
  217MOL    C4647998   1.693   6.033   0.046  0.3573 -0.7623  0.2753
  217MOL    C4747999   1.781   6.028   0.171  0.4523 -0.2642 -0.1910
  217MOL    O4848000   1.884   6.095   0.176  0.3363 -0.7135 -0.5279
  217MOL    C4948001   1.743   5.934   0.284 -1.0028  0.3166 -0.2866
  217MOL    C5048002   1.775   6.091   7.769  0.3353 -0.5828 -0.0747
  217MOL    H5148003   1.673   5.928   0.024  2.4486 -1.2176  0.5100
  217MOL    H5248004   1.659   5.868   0.264 -0.4605 -0.6494  0.5720
  217MOL    H5348005   1.828   5.868   0.300 -1.0326 -0.0725 -1.6399
  217MOL    H5448006   1.735   5.993   0.375  3.2026 -2.2452  1.9108
  217MOL    H5548007   1.813   6.192   7.785  2.0068 -1.0309 -1.0512
  217MOL    H5648008   1.698   6.100   7.692  0.8486 -1.1575 -0.6565
  217MOL    C5748009   1.882   5.996   7.705  0.5445  0.0431  0.0473
  217MOL    C5848010   2.007   6.077   7.680  0.2569  0.1407  0.2945
  217MOL    O5948011   2.031   6.135   7.576  0.5480 -0.1212 -0.1175
  217MOL    C6048012   2.100   6.096   7.794  0.2599  0.5145 -0.2165
  217MOL    C6148013   1.821   5.923   7.582 -0.1207 -0.0524  0.1001
  217MOL    H6248014   1.913   5.924   7.780 -3.3708 -0.0851  1.6168
  217MOL    H6348015   2.046   6.161   0.021  0.7622  2.2401 -1.4045
  217MOL    H6448016   2.117   6.001   0.004 -0.8990  1.1118  1.3015
  217MOL    H6548017   2.197   6.141   7.771  0.9583 -0.4055  0.8565
  217MOL    H6648018   1.788   6.007   7.520 -0.5985 -0.7576 -0.6087
  217MOL    H6748019   1.727   5.877   7.610 -0.4167  1.1903  1.1768
  217MOL    C6848020   1.911   5.805   7.529  0.9271  0.0034  0.6312
  217MOL    C6948021   1.942   5.816   7.375 -0.7691 -0.2560 -0.9194
  217MOL    O7048022   1.864   5.768   7.294  0.1656 -0.2457  0.9172
  217MOL    C7148023   2.067   5.889   7.319  0.5805  0.3634  0.2092
  217MOL    C7248024   1.863   5.666   7.577 -0.6435  0.4558 -0.4014
  217MOL    H7348025   2.005   5.804   7.584  1.7418 -1.0714 -0.7576
  217MOL    H7448026   2.037   5.956   7.238  0.2203 -0.4757 -0.3551
  217MOL    H7548027   2.108   5.942   7.404 -0.0544 -0.8827  1.3159
  217MOL    H7648028   2.151   5.834   7.277 -0.3149 -0.7729 -0.1209
  217MOL    H7748029   1.868   5.598   7.492 -0.3991  0.6952 -0.5797
  217MOL    H7848030   1.754   5.669   7.588 -0.8330 -2.2811 -1.1049
  217MOL    C7948031   1.923   5.598   7.714 -0.0155 -0.1417 -0.0808
  217MOL    C8048032   1.850   5.651   7.835  0.1601 -0.6793  0.0264
  217MOL    O8148033   1.892   5.732   0.076 -0.3971  0.2137 -0.6369
  217MOL    C8248034   1.712   5.601   0.022 -0.2480  0.4816  0.1242
  217MOL    C8348035   2.075   5.595   7.725 -0.8277  0.0732  0.4472
  217MOL    H8448036   1.888   5.494   7.714 -1.8239  0.4513 -0.8377
  217MOL    H8548037   1.638   5.651   7.802 -1.4532 -2.4827 -0.9433
  217MOL    H8648038   1.713   5.495   7.838 -0.4793  0.2905  0.8618
  217MOL    H8748039   1.685   5.609   0.128  0.2660 -1.5577  0.4419
  217MOL    H8848040   2.111   5.684   7.777  1.0837  0.2363 -1.1142
  217MOL    H8948041   2.119   5.599   7.625 -1.2630  0.3318  0.2618
  217MOL    C9048042   2.127   5.467   7.798 -0.0431  0.0805 -0.2337
  217MOL    C9148043   2.279   5.478   7.828 -0.6358  0.6039  0.4459
  217MOL    O9248044   2.317   5.421   0.087 -0.6514 -0.9153 -0.2987
  217MOL    C9348045   2.377   5.526   7.726  0.0606  0.2374  0.6444
  217MOL    C9448046   2.112   5.350   7.696  0.0598  0.2439 -0.4850
  217MOL    H9548047   2.069   5.455   0.048 -0.8212 -0.6006 -0.8102
  217MOL    H9648048   2.435   5.613   7.758  0.4436  0.2577 -0.0764
  217MOL    H9748049   2.441   5.445   7.690  0.3044  0.6458  0.1399
  217MOL    H9848050   2.316   5.559   7.642 -1.2551  0.0491  1.5268
  217MOL    H9948051   2.139   5.397   7.601  2.3065 -0.2264 -0.1042
  217MOL   H10048052   2.004   5.335   7.693  0.4503 -2.6304 -1.6406
  217MOL   C10148053   2.182   5.214   7.708  0.0864  0.3576 -0.0961
  217MOL   C10248054   2.153   5.133   7.584  0.6626 -0.6018  0.6461
  217MOL   O10348055   2.056   5.054   7.590 -0.3077  0.7557 -0.4563
  217MOL   C10448056   2.237   5.160   7.460 -0.3217 -0.0870  0.3194
  217MOL   C10548057   2.157   5.129   7.834 -0.2831  0.4672 -0.6442
  217MOL   H10648058   2.289   5.235   7.702  0.1205  0.4713  0.9117
  217MOL   H10748059   2.240   5.266   7.438 -4.0278 -0.4080 -2.0456
  217MOL   H10848060   2.332   5.108   7.471 -1.5634 -2.3082  0.8443
  217MOL   H10948061   2.175   5.116   7.382 -1.0881 -0.0648  0.9045
  217MOL   H11048062   2.211   5.169   0.078  2.4143  1.4818 -2.7267
  217MOL   H11148063   2.208   5.035   7.815  1.0443  0.3553  3.1528
  217MOL   C11248064   2.005   5.115   0.039  0.4526  0.7477  0.0408
  217MOL   C11348065   1.959   5.235   0.134 -0.3420 -0.1297  0.3059
  217MOL   O11448066   1.868   5.310   0.103 -0.4642  0.3899 -0.3159
  217MOL   C11548067   2.029   5.244   0.262 -0.1401  0.2323 -0.1234
  217MOL   C11648068   1.986   4.978   0.102 -0.0329 -0.4236 -0.4986
  217MOL   H11748069   1.945   5.116   7.790  1.8490 -0.7894 -0.9008
  217MOL   H11848070   2.102   5.326   0.265 -0.6211  0.6179  1.9820
  217MOL   H11948071   1.957   5.275   0.337  0.3691 -1.3691  1.0475
  217MOL   H12048072   2.085   5.158   0.297  2.7842  2.1579  0.1028
  217MOL   H12148073   2.029   4.978   0.202  0.9921 -0.9014 -0.9307
  217MOL   H12248074   2.050   4.905   0.053 -0.0668 -0.8815  0.1428
  217MOL   C12348075   1.832   4.926   0.109 -0.1090 -0.3189 -0.6605
  217MOL   C12448076   1.817   4.785   0.169  0.0240 -0.5305 -0.0226
  217MOL   O12548077   1.912   4.712   0.169 -0.2035  0.4027  0.4855
  217MOL   C12648078   1.680   4.757   0.229  0.3423 -0.3307  0.9817
  217MOL   C12748079   1.755   4.925   7.809 -0.2488 -0.8010  0.2055
  217MOL   H12848080   1.777   4.987   0.180  0.6447 -1.5232  0.9887
  217MOL   H12948081   1.628   4.686   0.163  3.3073 -0.7930 -0.9322
  217MOL   H13048082   1.689   4.711   0.327 -0.0278 -0.5378  0.9241
  217MOL   H13148083   1.614   4.843   0.243  0.1948 -0.5730  1.8132
  217MOL   H13248084   1.694   4.836   7.801 -1.9328  0.2520  1.0611
  217MOL   H13348085   1.829   4.907   7.730  0.0581  0.0240  0.2947
  217MOL   C13448086   1.671   5.053   7.772  0.0744  0.1380 -0.1466
  217MOL   C13548087   1.541   5.067   0.020 -0.0829  0.3443 -0.4223
  217MOL   O13648088   1.466   4.973   0.050 -0.4334  0.1336 -0.0233
  217MOL   C13748089   1.492   5.206   0.060 -0.4521 -0.1218 -0.5075
  217MOL   C13848090   1.624   5.065   7.622 -0.7778 -0.3227  0.7053
  217MOL   H13948091   1.726   5.142   7.801 -2.3844  1.9550 -0.9691
  217MOL   H14048092   1.398   5.189   0.112  0.5669 -3.1190  0.4227
  217MOL   H14148093   1.560   5.242   0.137 -0.3972 -0.4350 -0.4119
  217MOL   H14248094   1.485   5.277   7.819 -1.3222  0.9064  0.4224
  217MOL   H14348095   1.551   5.145   7.611 -0.0738  0.2874  0.4882
  217MOL   H14448096   1.551   4.987   7.598  1.0800 -1.7967 -0.2611
  217MOL   C14548097   1.727   5.096   7.508 -0.1021  0.2377 -0.2987
  217MOL   C14648098   1.783   5.242   7.515  0.8602 -1.0033  0.4495
  217MOL   O14748099   1.748   5.320   7.605 -0.3365 -0.8119  0.0139
  217MOL   C14848100   1.889   5.280   7.413  0.2672 -0.1458  0.8512
  217MOL   C14948101   1.675   5.063   7.370 -0.3389 -0.2609 -0.1357
  217MOL   H15048102   1.821   5.043   7.523  1.2678  2.8289  0.3816
  217MOL   H15148103   1.911   5.185   7.363  0.0561  0.1707  0.1596
  217MOL   H15248104   1.860   5.352   7.337  0.5002 -0.4783  0.4466
  217MOL   H15348105   1.979   5.309   7.467  0.1862 -1.9862  2.0364
  217MOL   H15448106   1.732   5.122   7.297  0.5326  1.1410  1.6256
  217MOL   H15548107   1.576   5.105   7.355  0.1253  1.0832  0.4509
  217MOL   C15648108   1.683   4.914   7.327 -0.2958 -0.4900 -0.2287
  217MOL   C15748109   1.832   4.861   7.339  0.1643 -0.1298 -0.2466
  217MOL   O15848110   1.916   4.894   7.253 -0.1885 -0.0226 -0.2650
  217MOL   C15948111   1.867   4.779   7.462 -0.1479  1.1536  0.3203
  217MOL   C16048112   1.624   4.902   7.185 -0.2159 -0.2207 -0.0789
  217MOL   H16148113   1.628   4.857   7.401  0.6987 -0.4835  0.5218
  217MOL   H16248114   1.840   4.675   7.443 -0.3963  1.0371  1.2941
  217MOL   H16348115   1.965   4.793   7.506  0.0107 -0.3038  0.4470
  217MOL   H16448116   1.793   4.800   7.539 -1.2103 -1.2826  0.0308
  217MOL   H16548117   1.691   4.957   7.120 -0.8684  2.3498  1.3534
  217MOL   H16648118   1.523   4.943   7.185  0.3989  1.4533 -3.3556
  217MOL   C16748119   1.622   4.753   7.130 -0.2184 -0.5221 -0.3640
  217MOL   C16848120   1.621   4.754   6.977  0.3288 -0.8244 -0.4829
  217MOL   O16948121   1.517   4.776   6.909 -0.7752  0.1993  1.0956
  217MOL   C17048122   1.745   4.713   6.906 -0.1351  0.6271  0.0435
  217MOL   C17148123   1.497   4.669   7.195  0.9363  0.1985  0.1482
  217MOL   H17248124   1.711   4.695   7.156  0.6035  1.1466  0.5801
  217MOL   H17348125   1.826   4.754   6.966 -0.3459  0.0967  0.7108
  217MOL   H17448126   1.760   4.608   6.883 -1.8141  0.2104  0.7262
  217MOL   H17548127   1.754   4.760   6.809  1.0616 -1.3021 -0.8112
  217MOL   H17648128   1.422   4.745   7.218  0.5220  0.2167 -1.2555
  217MOL   H17748129   1.537   4.633   7.290  0.0734  0.0825  0.4641
  217MOL   C17848130   1.430   4.552   7.115 -0.0581  0.5601 -0.0451
  217MOL   C17948131   1.292   4.592   7.080 -0.2393 -0.3262  0.5791
  217MOL   O18048132   1.220   4.652   7.157 -0.2014  0.0695 -0.6540
  217MOL   C18148133   1.234   4.537   6.949  0.5609  0.4384 -0.4576
  217MOL   C18248134   1.407   4.423   7.201  0.6959  0.1831  0.1981
  217MOL   H18348135   1.492   4.530   7.029 -0.5303 -2.7770  0.4173
  217MOL   H18448136   1.187   4.613   6.888  0.5976 -0.0924 -1.1554
  217MOL   H18548137   1.299   4.470   6.892  2.4330  1.8469 -0.0400
  217MOL   H18648138   1.148   4.477   6.977  1.4851 -0.5828  0.2753
  217MOL   H18748139   1.323   4.370   7.157  0.4437  0.3178  0.5186
  217MOL   H18848140   1.358   4.440   7.297  2.9566  1.3139  1.1923
  217MOL   C18948141   1.533   4.326   7.217 -0.0774 -1.0004 -0.1088
  217MOL   C19048142   1.613   4.317   7.087 -0.0128 -0.4767 -0.3027
  217MOL   O19148143   1.561   4.312   6.969 -0.4722 -0.2520 -0.8232
  217MOL   C19248144   1.757   4.361   7.086  0.0804 -0.1386 -0.3293
  217MOL   C19348145   1.485   4.185   7.268  0.7183  0.1951 -1.0321
  217MOL   H19448146   1.596   4.371   7.294 -1.4022  2.6002 -1.0503
  217MOL   H19548147   1.773   4.433   7.166  1.4907  0.1472 -0.8517
  217MOL   H19648148   1.812   4.268   7.101  0.3653  0.1354  0.3343
  217MOL   H19748149   1.781   4.397   6.986 -0.0149 -3.2086 -1.5338
  217MOL   H19848150   1.407   4.148   7.202 -0.9138  0.7175  0.5795
  217MOL   H19948151   1.435   4.207   7.362  4.5001 -0.1243  1.1791
  217MOL   C20048152   1.587   4.076   7.290 -0.1285 -0.1087 -0.0368
  217MOL   C20148153   1.510   3.948   7.322 -0.2669  0.6982 -0.0037
  217MOL   O20248154   1.473   3.920   7.435  0.3733 -0.1857 -0.2330
  217MOL   C20348155   1.460   3.868   7.208 -0.0436  0.6913  0.2906
  217MOL   C20448156   1.687   4.103   7.407 -0.2759  0.1717 -0.5454
  217MOL   H20548157   1.642   4.063   7.197 -0.0195 -2.2892  0.3048
  217MOL   H20648158   1.400   3.786   7.247  0.9078 -0.7262 -1.1569
  217MOL   H20748159   1.409   3.933   7.137  1.0351  1.3918  0.1448
  217MOL   H20848160   1.548   3.823   7.162 -1.2505 -0.3881 -1.0023
  217MOL   H20948161   1.630   4.093   7.499  0.6607 -1.0373 -0.0859
  217MOL   H21048162   1.714   4.207   7.388  0.1834  0.0253 -0.6882
  217MOL   C21148163   1.816   4.010   7.408  0.4270  0.0625 -0.2216
  217MOL   C21248164   1.899   4.041   7.543  0.3227  0.2902  0.0777
  217MOL   O21348165   1.944   4.147   7.578 -0.1082 -0.2824 -0.3530
  217MOL   C21448166   1.921   3.924   7.629 -0.9384  0.0370  0.7064
  217MOL   C21548167   1.906   4.054   7.290  0.2052  0.0745 -0.0879
  217MOL   H21648168   1.782   3.907   7.405  1.3212 -0.2744  0.6894
  217MOL   H21748169   2.029   3.921   7.640 -0.8734  0.0429  0.0982
  217MOL   H21848170   1.884   3.940   7.730 -2.0243  0.0773  0.3073
  217MOL   H21948171   1.877   3.831   7.592 -0.0218 -0.7874  1.6605
  217MOL   H22048172   2.011   4.029   7.307  0.6547  3.2755  2.3475
  217MOL   H22148173   1.914   4.163   7.280  0.5555  0.0593  0.0173
  217MOL   H22248174   1.860   4.019   7.198  0.0047 -1.4852  0.5873
  218MOL     C148175   6.471   4.186   4.879  0.2846  0.0967 -0.2882
  218MOL     C248176   6.350   4.129   4.805  0.1504 -0.3549  0.0358
  218MOL     O348177   6.280   4.212   4.746  0.6893  0.2400  0.0038
  218MOL     C448178   6.309   3.987   4.827  0.5578 -0.2408  0.6996
  218MOL     C548179   6.502   4.335   4.857 -0.3350 -0.0350 -0.3988
  218MOL     H648180   6.447   4.163   4.983  0.0380  0.9062 -0.1621
  218MOL     H748181   6.238   3.958   4.750  0.2480  2.1181  0.0591
  218MOL     H848182   6.392   3.917   4.814 -0.8704 -1.8935  0.3936
  218MOL     H948183   6.253   3.970   4.918 -2.6793 -2.1615 -1.5780
  218MOL    H1048184   6.432   4.392   4.918  0.1537  0.5602 -0.3851
  218MOL    H1148185   6.475   4.371   4.758  0.1575  0.3164 -0.4071
  218MOL    H1248186   6.557   4.122   4.858 -0.4847 -0.8161 -0.7223
  218MOL    C1348187   6.640   4.377   4.912 -0.2149 -0.3169  0.5046
  218MOL    C1448188   6.660   4.529   4.905 -0.3404  0.2640 -0.0904
  218MOL    O1548189   6.645   4.585   4.798 -0.2102  0.3165 -0.2371
  218MOL    C1648190   6.673   4.605   5.030  0.2076 -0.7388 -0.4298
  218MOL    C1748191   6.762   4.301   4.837 -0.4990  0.0453  0.0565
  218MOL    H1848192   6.640   4.338   5.013 -0.8972 -2.3076 -0.2510
  218MOL    H1948193   6.762   4.667   5.022  1.1053 -2.0752 -1.0146
  218MOL    H2048194   6.582   4.662   5.049 -0.3232 -0.6204 -3.0562
  218MOL    H2148195   6.699   4.546   5.117 -0.0605  1.1601  0.9726
  218MOL    H2248196   6.815   4.377   4.779  0.5601 -0.5631  0.2048
  218MOL    H2348197   6.723   4.232   4.762  2.0044  0.3127 -1.5314
  218MOL    C2448198   6.868   4.237   4.928  0.3574 -0.2496  0.1312
  218MOL    C2548199   6.964   4.334   5.000 -0.1011 -0.7854 -0.7669
  218MOL    O2648200   6.977   4.451   4.960 -0.6113  0.2952 -0.4573
  218MOL    C2748201   7.005   4.293   5.142 -0.9401  0.2741 -0.0539
  218MOL    C2848202   6.943   4.130   4.841 -0.2845  0.3137  0.1392
  218MOL    H2948203   6.830   4.181   5.013  1.7192 -1.0375  0.2391
  218MOL    H3048204   6.933   4.329   5.215  0.7090  1.3476  1.0911
  218MOL    H3148205   7.025   4.189   5.169  2.9566  1.6617  2.9088
  218MOL    H3248206   7.098   4.347   5.162  1.0827 -2.0393 -2.8373
  218MOL    H3348207   7.051   4.147   4.838 -0.0564 -1.2714 -1.9380
  218MOL    H3448208   6.916   4.138   4.736  0.5630 -2.4251 -0.3132
  218MOL    C3548209   6.920   3.985   4.884 -0.4561  0.7038 -0.2407
  218MOL    C3648210   6.779   3.933   4.869 -0.4617 -0.2843  0.0405
  218MOL    O3748211   6.711   3.931   4.974 -0.0145  0.3182  0.2190
  218MOL    C3848212   6.713   3.939   4.733 -1.0457  0.6587  0.1788
  218MOL    C3948213   6.996   3.950   5.015  0.2470 -0.1297 -0.2631
  218MOL    H4048214   6.982   3.929   4.812  1.0076 -1.4476  2.5907
  218MOL    H4148215   6.619   3.885   4.742 -0.9833  0.6413  0.7457
  218MOL    H4248216   6.697   4.037   4.688  2.8600  2.4964  2.5584
  218MOL    H4348217   6.773   3.886   4.660 -0.4456  0.2187  0.9780
  218MOL    H4448218   6.943   4.002   5.095 -0.4879 -0.0889 -0.7768
  218MOL    H4548219   7.090   4.005   5.008  0.3825  0.1739  2.9456
  218MOL    C4648220   7.014   3.795   5.043 -0.9203  0.3240  0.4827
  218MOL    C4748221   7.033   3.782   5.198 -0.8573  0.1026  0.4821
  218MOL    O4848222   7.148   3.788   5.247  0.0303 -0.2944  0.2174
  218MOL    C4948223   6.911   3.757   5.285  0.2314  0.4631 -0.1548
  218MOL    C5048224   7.136   3.735   4.959  0.2679 -0.6172 -0.1369
  218MOL    H5148225   6.921   3.752   5.006  0.6806 -2.0905 -0.9704
  218MOL    H5248226   6.923   3.708   5.381 -0.2126  1.1924  0.2820
  218MOL    H5348227   6.862   3.853   5.302  1.1279  0.9173 -0.1105
  218MOL    H5448228   6.852   3.685   5.229 -0.5506 -0.4577  1.8207
  218MOL    H5548229   7.219   3.795   4.998 -0.3932  0.8085 -0.8748
  218MOL    H5648230   7.123   3.784   4.862 -0.5488  0.5235  0.5293
  218MOL    C5748231   7.157   3.585   4.956 -0.3547 -0.0355 -0.1764
  218MOL    C5848232   7.034   3.504   4.913  0.2982 -1.0024 -0.7950
  218MOL    O5948233   6.932   3.504   4.981 -0.4204 -0.6993 -0.0670
  218MOL    C6048234   7.037   3.445   4.777  0.2225  0.1993  0.1937
  218MOL    C6148235   7.226   3.537   5.082  0.1934  0.4668  0.1106
  218MOL    H6248236   7.240   3.590   4.886 -0.7785 -0.4163 -0.7128
  218MOL    H6348237   6.947   3.474   4.724  1.1903  0.3181 -1.4287
  218MOL    H6448238   7.114   3.478   4.706  1.8268 -0.2345  1.6858
  218MOL    H6548239   7.041   3.337   4.782 -0.6209  0.0874 -1.1863
  218MOL    H6648240   7.163   3.538   5.171 -1.1153  2.4329 -0.8088
  218MOL    H6748241   7.311   3.603   5.104  0.0761  0.1402  1.5898
  218MOL    C6848242   7.287   3.399   5.074 -0.1498  0.3698 -0.3328
  218MOL    C6948243   7.384   3.379   4.953  0.0558  0.1942  0.4847
  218MOL    O7048244   7.348   3.319   4.847 -0.4507 -0.0563  0.1298
  218MOL    C7148245   7.523   3.428   4.959 -0.1314  0.3349 -0.4623
  218MOL    C7248246   7.182   3.279   5.082  0.0612 -0.0097 -0.2703
  218MOL    H7348247   7.358   3.392   5.156  0.2151 -0.7207 -0.7337
  218MOL    H7448248   7.571   3.382   5.045 -0.0300  0.6046 -0.3722
  218MOL    H7548249   7.575   3.391   4.871  0.5262 -0.4505  0.2594
  218MOL    H7648250   7.528   3.537   4.955  2.2435  0.4588  3.1481
  218MOL    H7748251   7.231   3.184   5.060 -1.0716 -0.9180  1.0629
  218MOL    H7848252   7.107   3.281   5.004 -2.5396 -1.4016  2.1029
  218MOL    C7948253   7.091   3.271   5.205  0.0467  0.4619  0.8143
  218MOL    C8048254   7.175   3.287   5.331  0.2502 -0.0345 -0.4460
  218MOL    O8148255   7.162   3.377   5.411 -0.2991 -0.0527  0.3102
  218MOL    C8248256   7.284   3.176   5.359  0.4366  0.3096  0.0783
  218MOL    C8348257   6.993   3.152   5.206 -0.0714  0.6760  0.4163
  218MOL    H8448258   7.027   3.358   5.195 -0.4949  0.1412  1.4446
  218MOL    H8548259   7.289   3.104   5.277 -0.0818 -1.9097  1.9455
  218MOL    H8648260   7.381   3.215   5.390  0.1279  0.7009  0.5457
  218MOL    H8748261   7.249   3.123   5.447  0.4284 -1.4082 -0.9393
  218MOL    H8848262   7.045   3.056   5.202  1.9206  1.7634  0.2187
  218MOL    H8948263   6.938   3.163   5.112 -0.1267  0.5386  0.4325
  218MOL    C9048264   6.884   3.165   5.319 -0.6308 -0.4115  0.0479
  218MOL    C9148265   6.884   3.054   5.420  0.6528 -0.4899 -0.2855
  218MOL    O9248266   6.912   3.071   5.534 -0.5186 -0.7361 -0.1402
  218MOL    C9348267   6.849   2.914   5.370  0.8220 -0.0629 -0.5709
  218MOL    C9448268   6.753   3.217   5.261  0.1544  0.2088 -0.1612
  218MOL    H9548269   6.914   3.250   5.381  0.1298 -0.2556 -0.5228
  218MOL    H9648270   6.825   2.919   5.263  1.6437 -1.3299 -0.8182
  218MOL    H9748271   6.931   2.844   5.380 -0.8905 -2.1889 -0.9841
  218MOL    H9848272   6.766   2.870   5.425  0.5242  3.5623  2.0433
  218MOL    H9948273   6.719   3.130   5.206  0.1155 -0.1463  0.4186
  218MOL   H10048274   6.784   3.296   5.193  1.3389 -1.3171 -1.4154
  218MOL   C10148275   6.657   3.287   5.364 -0.6049  0.5326  0.3225
  218MOL   C10248276   6.571   3.175   5.426  0.1209  0.1470 -0.1428
  218MOL   O10348277   6.528   3.080   5.364 -0.1101 -0.3581 -0.2937
  218MOL   C10448278   6.523   3.198   5.572  0.3945  0.0330 -0.1896
  218MOL   C10548279   6.566   3.389   5.303  0.2959  0.7347 -0.3305
  218MOL   H10648280   6.712   3.344   5.439  0.5984  1.5290 -1.2795
  218MOL   H10748281   6.570   3.122   5.635 -1.1632 -0.7184  0.0763
  218MOL   H10848282   6.574   3.290   5.601 -0.3857 -0.0149  1.3635
  218MOL   H10948283   6.415   3.207   5.572  0.2972 -1.0129 -0.3688
  218MOL   H11048284   6.481   3.333   5.265  0.4366  1.1298 -1.2455
  218MOL   H11148285   6.619   3.447   5.228  3.6919 -1.5387  0.2011
  218MOL   C11248286   6.498   3.497   5.392 -0.3654  0.2825  0.2044
  218MOL   C11348287   6.357   3.524   5.328 -0.3873  0.1399 -0.6719
  218MOL   O11448288   6.342   3.616   5.241 -1.0216  0.4441 -0.6105
  218MOL   C11548289   6.241   3.429   5.372 -0.1173 -0.3592 -0.1602
  218MOL   C11648290   6.590   3.631   5.400  0.2625 -0.3809 -0.8509
  218MOL   H11748291   6.479   3.453   5.490  1.9380  0.6552  0.8360
  218MOL   H11848292   6.160   3.408   5.303  1.0252  0.0213 -1.6545
  218MOL   H11948293   6.284   3.331   5.395 -0.6082 -0.8479 -1.3058
  218MOL   H12048294   6.201   3.460   5.469  2.0917  0.1694  0.6057
  218MOL   H12148295   6.612   3.656   5.297 -1.6520  0.3326 -1.0928
  218MOL   H12248296   6.687   3.601   5.442 -0.7638 -0.7751  1.3414
  218MOL   C12348297   6.534   3.752   5.472 -0.1417 -0.3902 -0.0738
  218MOL   C12448298   6.589   3.886   5.411  0.3440  0.1416 -0.8799
  218MOL   O12548299   6.651   3.968   5.477  0.7021  0.1070 -0.2402
  218MOL   C12648300   6.552   3.916   5.273  0.1040  0.2800 -0.3725
  218MOL   C12748301   6.560   3.747   5.630  0.1832  0.2518 -0.2930
  218MOL   H12848302   6.426   3.748   5.457 -0.2678  0.4600  0.5804
  218MOL   H12948303   6.445   3.937   5.270 -0.2931 -1.5049  0.6766
  218MOL   H13048304   6.608   3.996   5.224  2.3253 -0.5610  0.7390
  218MOL   H13148305   6.565   3.831   5.206 -0.3909 -0.3872  0.3730
  218MOL   H13248306   6.666   3.765   5.650 -0.3525  0.3252  2.8812
  218MOL   H13348307   6.534   3.651   5.673 -1.4681  0.7146 -0.2176
  218MOL   C13448308   6.493   3.852   5.721 -0.4631  0.2085  0.1390
  218MOL   C13548309   6.565   3.865   5.858  0.5417  0.4384 -0.0852
  218MOL   O13648310   6.611   3.767   5.911  0.1967  0.5107 -0.1778
  218MOL   C13748311   6.594   4.011   5.910 -0.3682  0.2600 -0.7156
  218MOL   C13848312   6.347   3.819   5.737 -0.2429 -0.1463  0.6768
  218MOL   H13948313   6.516   3.952   5.683  2.9881 -0.6579 -0.2635
  218MOL   H14048314   6.571   4.078   5.827  3.4466  1.3609 -0.9927
  218MOL   H14148315   6.533   4.034   5.997 -0.0520  0.1300 -0.4560
  218MOL   H14248316   6.699   4.029   5.935 -0.3680  0.5686 -0.9330
  218MOL   H14348317   6.330   3.806   5.844 -1.0201  1.8340  0.8166
  218MOL   H14448318   6.333   3.735   5.669 -0.9979 -0.2430  0.9424
  218MOL   C14548319   6.242   3.926   5.686  0.6374  0.6797 -0.1058
  218MOL   C14648320   6.234   3.938   5.541  0.0277 -0.2366  0.6418
  218MOL   O14748321   6.275   4.031   5.477  0.1086  0.5584 -0.3807
  218MOL   C14848322   6.156   3.830   5.460  0.1439  0.2553 -0.5744
  218MOL   C14948323   6.249   4.070   5.750 -0.1396 -0.1092  0.1811
  218MOL   H15048324   6.143   3.891   5.714  0.1854  2.3613  0.4872
  218MOL   H15148325   6.204   3.825   5.362 -0.1800  2.4354 -0.8610
  218MOL   H15248326   6.157   3.731   5.506  0.6643 -0.2428 -1.6491
  218MOL   H15348327   6.050   3.851   5.445 -0.8897 -2.4930  2.2100
  218MOL   H15448328   6.187   4.142   5.695  3.0628  1.6632 -1.2105
  218MOL   H15548329   6.349   4.113   5.742 -0.2015 -0.3301 -2.0939
  218MOL   C15648330   6.206   4.093   5.895 -0.3366  0.2726  0.6735
  218MOL   C15748331   6.069   4.022   5.922 -0.1550  0.2351 -0.4042
  218MOL   O15848332   5.967   4.084   5.905  0.1458 -0.2260 -0.0153
  218MOL   C15948333   6.071   3.881   5.985 -0.4214  0.3350 -0.3466
  218MOL   C16048334   6.200   4.249   5.927 -0.1714 -0.1440  0.3275
  218MOL   H16148335   6.280   4.040   5.956 -2.1502  0.6741  3.3043
  218MOL   H16248336   6.033   3.815   5.907  0.9768  0.3523 -1.0599
  218MOL   H16348337   6.175   3.860   6.008 -0.3757  1.1505  0.2305
  218MOL   H16448338   6.014   3.877   6.078 -0.2642 -2.1509 -0.3209
  218MOL   H16548339   6.118   4.303   5.879 -0.9202 -1.1879  0.4224
  218MOL   H16648340   6.282   4.294   5.871  0.3667 -0.5265  0.8084
  218MOL   C16748341   6.224   4.291   6.077  0.1588  0.6747 -0.0343
  218MOL   C16848342   6.369   4.267   6.117 -0.3314 -0.5153  0.0187
  218MOL   O16948343   6.395   4.175   6.195  0.1580  0.1741 -0.4022
  218MOL   C17048344   6.482   4.350   6.052  0.4705  0.2743 -0.4904
  218MOL   C17148345   6.135   4.238   6.194 -0.1277  0.2081 -0.4120
  218MOL   H17248346   6.199   4.397   6.082  0.7835  0.7618  1.2391
  218MOL   H17348347   6.578   4.298   6.056  0.6930  0.6782 -0.6015
  218MOL   H17448348   6.466   4.368   5.945  3.6183  3.0009 -0.5713
  218MOL   H17548349   6.498   4.443   6.105  1.0222 -0.7869  1.2373
  218MOL   H17648350   6.183   4.249   6.291  1.3254  1.8289 -1.2941
  218MOL   H17748351   6.122   4.131   6.179 -1.1262  0.4155 -1.0832
  218MOL   C17848352   6.004   4.306   6.203 -0.4068 -0.3569  0.2301
  218MOL   C17948353   6.009   4.450   6.260 -0.6357 -0.3951 -0.0187
  218MOL   O18048354   6.032   4.545   6.193 -0.0305 -0.0882 -0.1351
  218MOL   C18148355   6.003   4.468   6.413  0.4861 -0.3944  0.0171
  218MOL   C18248356   5.908   4.212   6.286 -0.5362 -0.4790  1.0936
  218MOL   H18348357   5.962   4.322   6.103  0.3337  0.7916  0.0830
  218MOL   H18448358   6.008   4.573   6.440 -0.9737 -0.5672  1.0729
  218MOL   H18548359   5.915   4.419   6.456 -0.4328  1.2638  0.0816
  218MOL   H18648360   6.072   4.399   6.461  2.7805  1.2263 -0.9159
  218MOL   H18748361   5.822   4.273   6.312 -1.0718 -0.9878  0.5263
  218MOL   H18848362   5.953   4.193   6.383  0.0108  0.7695  1.0956
  218MOL   C18948363   5.844   4.084   6.224 -0.2876 -0.2762  1.3736
  218MOL   C19048364   5.733   4.122   6.119  0.3303 -0.1935  0.1947
  218MOL   O19148365   5.688   4.238   6.115  0.2518  0.3020  0.2154
  218MOL   C19248366   5.678   4.019   6.026  0.2360 -0.4766 -0.0803
  218MOL   C19348367   5.774   4.006   6.338  0.3822  0.3608 -0.3133
  218MOL   H19448368   5.921   4.022   6.180 -0.7794  1.5201 -2.1452
  218MOL   H19548369   5.721   3.923   6.053  0.9445  0.2783  1.5318
  218MOL   H19648370   5.572   4.023   6.049  0.3433 -1.8345  0.6675
  218MOL   H19748371   5.701   4.037   5.920  0.2468 -1.4410 -0.2480
  218MOL   H19848372   5.698   3.940   6.295  0.5217  0.4229 -0.6569
  218MOL   H19948373   5.726   4.084   6.395 -0.8137  0.6849 -1.7394
  218MOL   C20048374   5.861   3.929   6.435 -0.1964 -0.3359 -1.2159
  218MOL   C20148375   5.950   3.836   6.367  0.6028 -0.0840  0.4314
  218MOL   O20248376   6.071   3.868   6.362  0.2289  0.9534 -0.6446
  218MOL   C20348377   5.910   3.706   6.310  0.8575  0.1001 -0.5934
  218MOL   C20448378   5.793   3.858   6.549 -0.7179  0.7435 -0.5196
  218MOL   H20548379   5.927   3.999   6.485 -0.5910 -0.1801 -0.9101
  218MOL   H20648380   5.801   3.697   6.315  0.7968  0.0174 -2.0669
  218MOL   H20748381   5.926   3.714   6.203 -2.2674 -0.0524 -1.1402
  218MOL   H20848382   5.962   3.616   6.345 -0.0842  0.7608  2.7452
  218MOL   H20948383   5.712   3.794   6.515 -1.2071  1.5820 -0.9456
  218MOL   H21048384   5.743   3.939   6.601 -0.4044  0.3458  0.4195
  218MOL   C21148385   5.888   3.800   6.661 -0.1701 -0.2866 -0.0779
  218MOL   C21248386   5.800   3.719   6.762 -0.6540  0.0662 -0.3338
  218MOL   O21348387   5.828   3.604   6.796 -0.1652  0.8289  0.6410
  218MOL   C21448388   5.684   3.789   6.824  0.0055 -0.4377  0.3695
  218MOL   C21548389   5.976   3.913   6.729 -0.0629  0.4704 -0.0711
  218MOL   H21648390   5.957   3.731   6.612  2.2076  1.5540  0.5968
  218MOL   H21748391   5.631   3.846   6.748 -0.1359 -0.5318  0.3992
  218MOL   H21848392   5.615   3.721   6.874 -2.4835  0.4610 -1.7642
  218MOL   H21948393   5.719   3.861   6.899 -0.5099 -1.0746  1.2335
  218MOL   H22048394   5.905   3.986   6.768  0.8527  0.8747  0.8638
  218MOL   H22148395   6.037   3.961   6.653  2.1049 -0.4939  1.0135
  218MOL   H22248396   6.039   3.882   6.812 -0.5929 -0.6953 -0.0843
  219MOL     C148397   6.267   6.730   2.167  0.5032 -0.5896  0.2183
  219MOL     C248398   6.128   6.677   2.136  0.8437  0.1598 -0.2641
  219MOL     O348399   6.067   6.710   2.035  0.6806 -0.1577 -0.1724
  219MOL     C448400   6.062   6.584   2.230 -0.7988 -0.1731  0.3671
  219MOL     C548401   6.357   6.779   2.054  0.2238  0.1924  0.0238
  219MOL     H648402   6.269   6.798   2.252 -1.3292  2.1883 -1.8627
  219MOL     H748403   6.078   6.481   2.198  0.0849  0.2883 -0.6991
  219MOL     H848404   6.104   6.608   2.328 -0.7670  1.3659 -0.0005
  219MOL     H948405   5.956   6.610   2.231 -0.6321  1.0180 -3.3819
  219MOL    H1048406   6.329   6.717   1.969  0.0655 -0.4678  0.5512
  219MOL    H1148407   6.460   6.752   2.077 -0.3560  0.5942  3.4191
  219MOL    H1248408   6.312   6.642   2.212 -0.9148 -0.3499  2.1526
  219MOL    C1348409   6.334   6.940   2.050 -0.2262  0.0601 -0.8873
  219MOL    C1448410   6.330   6.977   1.905  0.4856 -0.3868 -0.0092
  219MOL    O1548411   6.265   7.074   1.871 -0.3996 -0.5353 -0.0012
  219MOL    C1648412   6.412   6.904   1.801 -0.8671 -0.4997 -0.1109
  219MOL    C1748413   6.436   7.015   2.141  0.1267  0.4017  0.1368
  219MOL    H1848414   6.235   6.954   2.092  0.0271  1.3751 -0.6968
  219MOL    H1948415   6.515   6.895   1.834 -1.0912  1.6468  1.2693
  219MOL    H2048416   6.376   6.802   1.786  0.9040 -0.9093 -1.6456
  219MOL    H2148417   6.405   6.961   1.709 -1.7980 -0.9150 -0.3067
  219MOL    H2248418   6.532   6.964   2.133 -0.6696 -1.0148 -0.4834
  219MOL    H2348419   6.417   6.983   2.243  3.4353  0.9781  0.9755
  219MOL    C2448420   6.448   7.173   2.138  0.6828  0.2464  0.1220
  219MOL    C2548421   6.575   7.215   2.200  0.4091 -0.1847 -0.7573
  219MOL    O2648422   6.607   7.161   2.308 -0.5800 -0.0783  0.3910
  219MOL    C2748423   6.657   7.327   2.142 -0.5822  0.2000 -0.2188
  219MOL    C2848424   6.327   7.241   2.203  0.5345  0.5146  0.3780
  219MOL    H2948425   6.466   7.200   2.034 -0.0152  0.0583 -0.0469
  219MOL    H3048426   6.757   7.295   2.115  0.3687  1.9446  1.1522
  219MOL    H3148427   6.599   7.367   2.059 -1.0624 -2.3793 -1.1624
  219MOL    H3248428   6.685   7.411   2.206  1.3449 -2.1457  2.1275
  219MOL    H3348429   6.323   7.226   2.311 -0.6791 -1.6577  0.0583
  219MOL    H3448430   6.250   7.183   2.153  2.0637 -1.6067  0.4058
  219MOL    C3548431   6.316   7.390   2.176 -0.0355  0.0886  0.2717
  219MOL    C3648432   6.271   7.462   2.302 -0.2453 -0.2995 -0.2484
  219MOL    O3748433   6.159   7.505   2.321 -0.0978 -0.0186  0.1549
  219MOL    C3848434   6.367   7.483   2.415  0.8682  0.3838  0.4229
  219MOL    C3948435   6.241   7.411   2.043  0.1525  0.3827 -0.1961
  219MOL    H4048436   6.415   7.432   2.158  0.2637 -0.5397  0.4349
  219MOL    H4148437   6.466   7.490   2.370  0.0290  0.7483 -1.4135
  219MOL    H4248438   6.342   7.572   2.475 -1.7752 -1.9524  2.9688
  219MOL    H4348439   6.372   7.392   2.474 -0.6564  1.1754  1.8368
  219MOL    H4448440   6.135   7.391   2.063 -0.1446  0.3619 -1.7226
  219MOL    H4548441   6.255   7.329   1.973  0.9125  0.9774 -0.7493
  219MOL    C4648442   6.264   7.537   1.957  0.4831 -0.6385 -0.8734
  219MOL    C4748443   6.413   7.535   1.927  0.4140  0.2962 -0.8462
  219MOL    O4848444   6.504   7.596   1.992 -0.1095  0.0359 -0.5368
  219MOL    C4948445   6.452   7.459   1.801 -0.2469 -0.0492  0.6123
  219MOL    C5048446   6.220   7.668   2.029 -0.9659 -0.0814 -0.1348
  219MOL    H5148447   6.215   7.523   1.861 -1.3832 -0.4046  0.0041
  219MOL    H5248448   6.390   7.371   1.791 -2.1604  1.2611  0.6944
  219MOL    H5348449   6.431   7.522   1.714  2.5360  2.2869  1.5321
  219MOL    H5448450   6.558   7.434   1.810 -0.1456  0.0976 -0.0916
  219MOL    H5548451   6.281   7.747   1.984 -1.4734  0.2442 -0.2637
  219MOL    H5648452   6.238   7.676   2.136  2.7094 -0.3363 -0.6899
  219MOL    C5748453   6.068   7.699   2.006  0.6153 -0.3040 -0.9977
  219MOL    C5848454   6.040   7.776   1.882  0.1022  0.0787  0.1634
  219MOL    O5948455   6.020   0.056   1.892 -0.5080  0.5285  0.2002
  219MOL    C6048456   5.999   7.704   1.751 -0.8590  0.5212  0.8992
  219MOL    C6148457   6.001   7.776   2.126  0.0375  1.0990 -0.1574
  219MOL    H6248458   6.011   7.606   2.013 -0.1013  0.0276 -2.3828
  219MOL    H6348459   6.021   7.598   1.765  1.6004  0.8732  0.0113
  219MOL    H6448460   5.897   7.729   1.722 -0.5244 -0.3234 -1.0624
  219MOL    H6548461   6.060   7.734   1.665 -2.4346  1.8370  0.2126
  219MOL    H6648462   6.046   0.032   2.142 -0.9488  1.0028  3.7180
  219MOL    H6748463   6.029   7.715   2.211 -3.0434 -0.0222  0.1132
  219MOL    C6848464   5.849   7.785   2.129  0.2596  0.1846 -0.0922
  219MOL    C6948465   5.812   0.067   2.210  0.3433 -0.3824 -0.2394
  219MOL    O7048466   5.788   0.065   2.332  0.1121  0.4253  0.0003
  219MOL    C7148467   5.815   0.199   2.136  0.3249  0.5028 -0.4687
  219MOL    C7248468   5.784   7.654   2.180  0.5448  0.1149 -0.0912
  219MOL    H7348469   5.809   7.795   2.028 -2.8471 -3.3475  0.6801
  219MOL    H7448470   5.731   0.260   2.168 -0.6465 -0.5455 -0.9948
  219MOL    H7548471   5.909   0.252   2.155  1.9741 -0.6957 -4.5761
  219MOL    H7648472   5.814   0.183   2.028  0.5829 -0.6558 -0.3077
  219MOL    H7748473   5.787   7.666   2.289 -0.6320  1.9993 -0.2545
  219MOL    H7848474   5.839   7.562   2.160  1.7543  0.6795  0.5284
  219MOL    C7948475   5.640   7.625   2.141  0.7499 -0.3010  0.2423
  219MOL    C8048476   5.621   7.636   1.983  0.2375  0.2125  0.4485
  219MOL    O8148477   5.561   7.732   1.933  0.3469  0.0529 -0.0900
  219MOL    C8248478   5.676   7.517   1.893 -0.0460 -0.0987 -0.5038
  219MOL    C8348479   5.532   7.707   2.216  0.5413 -0.0814  0.0876
  219MOL    H8448480   5.625   7.520   2.164 -0.8578 -0.0782  0.3005
  219MOL    H8548481   5.738   7.458   1.962 -0.2188 -1.2942 -1.3539
  219MOL    H8648482   5.596   7.455   1.852 -0.0390 -0.0163 -0.6413
  219MOL    H8748483   5.744   7.553   1.816  0.7779  1.8519  1.0864
  219MOL    H8848484   5.524   7.814   2.199  0.9075  0.4157  2.7338
  219MOL    H8948485   5.546   7.696   2.324  1.7537  0.3494 -0.0107
  219MOL    C9048486   5.391   7.660   2.183  0.5327 -0.1494 -0.0668
  219MOL    C9148487   5.274   7.763   2.223 -0.6598  0.3027 -0.3206
  219MOL    O9248488   5.201   7.747   2.316  0.7129  0.2217  0.2938
  219MOL    C9348489   5.261   0.047   2.135 -0.1748 -0.2211  0.3496
  219MOL    C9448490   5.368   7.505   2.234  1.2175  0.2340  0.0125
  219MOL    H9548491   5.385   7.659   2.074 -0.0609  1.3562 -0.0582
  219MOL    H9648492   5.333   0.038   2.053  0.7773 -0.2147  1.1639
  219MOL    H9748493   5.156   0.056   2.108  0.3418 -2.2661 -2.5259
  219MOL    H9848494   5.301   0.129   2.196  0.7957 -0.2662 -0.2018
  219MOL    H9948495   5.413   7.447   2.154 -0.7210 -2.1106  0.5757
  219MOL   H10048496   5.261   7.490   2.227  1.4237 -1.3381  0.0121
  219MOL   C10148497   5.427   7.463   2.365  0.7248 -0.2918  0.2063
  219MOL   C10248498   5.447   7.307   2.354 -0.5390 -0.6350 -0.1277
  219MOL   O10348499   5.361   7.239   2.284  0.2329 -0.0015  0.4146
  219MOL   C10448500   5.562   7.248   2.436 -0.1396  0.0807 -0.1828
  219MOL   C10548501   5.347   7.503   2.492  0.1963 -0.1881  0.1586
  219MOL   H10648502   5.528   7.504   2.375  0.1460  1.4609 -0.8469
  219MOL   H10748503   5.523   7.202   2.526  0.1614 -1.1603 -0.6831
  219MOL   H10848504   5.621   7.167   2.394  0.0976  0.3325 -0.3345
  219MOL   H10948505   5.638   7.321   2.464  1.0537 -1.7868  1.5972
  219MOL   H11048506   5.346   7.418   2.560  1.4835 -1.3046 -1.1832
  219MOL   H11148507   5.240   7.513   2.473  0.2887  0.5005 -0.0052
  219MOL   C11248508   5.392   7.623   2.569 -0.1132  0.1910 -0.0483
  219MOL   C11348509   5.517   7.579   2.644 -0.3269 -0.3807 -0.2851
  219MOL   O11448510   5.517   7.469   2.704  0.2929  0.4087  0.0002
  219MOL   C11548511   5.642   7.665   2.642  0.2710 -0.6933 -0.7152
  219MOL   C11648512   5.283   7.688   2.662 -0.0018 -0.2841  0.6241
  219MOL   H11748513   5.413   7.694   2.489 -1.6185  2.6803  1.6880
  219MOL   H11848514   5.640   7.735   2.558 -1.5097  1.4658  1.0409
  219MOL   H11948515   5.646   7.736   2.725  0.1635  1.1810 -2.2742
  219MOL   H12048516   5.727   7.597   2.635  0.6613 -0.5690  2.2619
  219MOL   H12148517   5.299   7.671   2.769 -3.5076  0.0657  1.2500
  219MOL   H12248518   5.182   7.651   2.649  0.4963 -0.9707 -1.3888
  219MOL   C12348519   5.271   7.839   2.643  0.8334 -0.3053  0.0924
  219MOL   C12448520   5.393   0.076   2.659  0.0851  0.1348  0.2153
  219MOL   O12548521   5.478   0.069   2.570  0.1491 -0.0277  0.7244
  219MOL   C12648522   5.416   0.165   2.777 -0.4006 -0.6677  0.2177
  219MOL   C12748523   5.161   0.058   2.727  0.2318 -0.2387  0.5073
  219MOL   H12848524   5.264   0.010   2.535 -0.4485  1.9034  0.4151
  219MOL   H12948525   5.434   0.105   2.866  1.5200  0.4864  0.6544
  219MOL   H13048526   5.499   0.232   2.751 -0.3106 -1.2764 -1.0992
  219MOL   H13148527   5.331   0.224   2.809  1.1375  1.6976  0.1216
  219MOL   H13248528   5.165   0.167   2.731 -0.9717 -0.2149  1.1390
  219MOL   H13348529   5.174   0.045   2.834  0.4418 -0.3259  0.4711
  219MOL   C13448530   5.016   0.015   2.691 -0.4543  0.4555 -0.1821
  219MOL   C13548531   4.933   0.139   2.657  1.1284  0.7172  0.3400
  219MOL   O13648532   4.886   0.207   2.743 -0.4620  0.4093  0.5999
  219MOL   C13748533   4.919   0.172   2.510 -0.2662  0.7312  0.9110
  219MOL   C13848534   4.947   7.759   2.789  0.2743 -0.2975 -0.1900
  219MOL   H13948535   5.028   7.796   2.602 -1.0800 -0.7120  0.5279
  219MOL   H14048536   4.969   0.100   2.445  0.5329  1.4914  0.6657
  219MOL   H14148537   4.816   0.194   2.482 -0.3882 -0.5436  0.3185
  219MOL   H14248538   4.963   0.268   2.483  1.3804  0.8738  3.8626
  219MOL   H14348539   4.894   7.808   2.871  2.2101 -2.1030  2.2017
  219MOL   H14448540   5.021   7.694   2.837  0.8736  0.3392 -0.2516
  219MOL   C14548541   4.838   7.655   2.735 -0.4015  0.0239 -0.6059
  219MOL   C14648542   4.895   7.539   2.645  0.6521  0.5097  0.3344
  219MOL   O14748543   4.861   7.529   2.528 -0.4849  0.4675  0.0502
  219MOL   C14848544   4.983   7.432   2.724 -0.2372  0.3361  0.3280
  219MOL   C14948545   4.718   7.725   2.673  0.5474  0.1291  0.1724
  219MOL   H15048546   4.794   7.605   2.822 -1.3112  1.7482 -0.0493
  219MOL   H15148547   4.989   7.441   2.832  0.1181  0.0015  0.3363
  219MOL   H15248548   4.948   7.332   2.699 -0.3219  0.5200 -0.3188
  219MOL   H15348549   5.086   7.435   2.688  0.3927  0.3195  2.0729
  219MOL   H15448550   4.649   7.650   2.636 -1.2832  1.1314  1.4647
  219MOL   H15548551   4.758   7.777   2.585 -0.3939 -0.5485 -0.6618
  219MOL   C15648552   4.631   7.828   2.760 -0.9559  0.3333  0.3895
  219MOL   C15748553   4.536   7.744   2.847  0.5648 -0.6258 -0.4715
  219MOL   O15848554   4.570   7.714   2.961 -0.2406  0.2253  0.1225
  219MOL   C15948555   4.404   7.695   2.785  0.1009 -0.5384 -0.4182
  219MOL   C16048556   4.555   0.094   2.677  0.1958 -0.2909  0.0127
  219MOL   H16148557   4.697   0.031   2.834 -1.2084  0.3222  0.6213
  219MOL   H16248558   4.397   7.736   2.684 -2.9457 -0.5648 -0.2820
  219MOL   H16348559   4.409   7.586   2.778  0.2733 -0.5441 -0.1761
  219MOL   H16448560   4.317   7.718   2.847 -2.3878  0.8064 -4.1835
  219MOL   H16548561   4.518   0.055   2.582 -1.8776  1.1653  0.2069
  219MOL   H16648562   4.629   0.164   2.638  2.7518 -1.5338  2.4378
  219MOL   C16748563   4.444   0.170   2.754  0.2768 -0.2136  0.0075
  219MOL   C16848564   4.348   0.240   2.654 -0.9915 -0.4191 -0.5460
  219MOL   O16948565   4.387   0.320   2.570  0.2717  0.3515 -0.1324
  219MOL   C17048566   4.198   0.223   2.680 -0.7212  0.0703 -0.2302
  219MOL   C17148567   4.505   0.275   2.850 -0.3076 -0.4399 -0.1309
  219MOL   H17248568   4.383   0.108   2.821 -2.3603 -1.3434 -3.2865
  219MOL   H17348569   4.150   0.321   2.684  0.9017  0.9444 -1.7292
  219MOL   H17448570   4.145   0.179   2.595  0.3881  0.1958 -0.9845
  219MOL   H17548571   4.169   0.158   2.763  1.3770  1.9640  2.0754
  219MOL   H17648572   4.551   0.349   2.784  0.6265  0.0790  1.0779
  219MOL   H17748573   4.593   0.236   2.900  0.5430  0.0662 -1.2061
  219MOL   C17848574   4.420   0.362   2.936 -0.0300  0.0330  0.4374
  219MOL   C17948575   4.524   0.454   3.006  0.2338 -0.3140 -0.4696
  219MOL   O18048576   4.570   0.428   3.118  0.0897 -0.6768  0.2590
  219MOL   C18148577   4.569   0.576   2.928 -0.8034  0.0232 -0.5947
  219MOL   C18248578   4.333   0.290   3.036  0.5371 -1.0700 -0.0791
  219MOL   H18348579   4.360   0.423   2.868 -1.4677 -0.4961  1.2320
  219MOL   H18448580   4.525   0.672   2.958  0.2758  0.2624  0.2550
  219MOL   H18548581   4.676   0.578   2.949 -0.7755 -3.0762 -0.2529
  219MOL   H18648582   4.559   0.572   2.820 -0.9622  0.4546 -0.5983
  219MOL   H18748583   4.401   0.238   3.104  1.2673  2.5318  2.0738
  219MOL   H18848584   4.268   0.219   2.985  1.4729 -0.6633 -1.8737
  219MOL   C18948585   4.242   0.388   3.129  0.4514 -0.5141  0.5184
  219MOL   C19048586   4.218   0.324   3.266 -0.6063 -0.1428  0.3837
  219MOL   O19148587   4.141   0.238   3.293  0.1200 -0.5261  0.0333
  219MOL   C19248588   4.300   0.389   3.372  0.1764  0.1257  0.3612
  219MOL   C19348589   4.123   0.423   3.045 -0.9915  0.2553  0.3780
  219MOL   H19448590   4.297   0.481   3.150  0.6994 -0.4766 -0.2833
  219MOL   H19548591   4.312   0.494   3.347 -1.5804  0.5688  1.3108
  219MOL   H19648592   4.250   0.391   3.469  0.6166 -1.3235  0.6333
  219MOL   H19748593   4.399   0.345   3.384  0.5014  1.1055  1.3424
  219MOL   H19848594   4.075   0.331   3.013  0.1419 -0.3974  0.5223
  219MOL   H19948595   4.157   0.482   2.960 -2.1664  0.9712  0.3865
  219MOL   C20048596   4.021   0.522   3.116  0.4466  0.0146 -0.0139
  219MOL   C20148597   3.906   0.445   3.180 -0.1823  0.1536 -0.8579
  219MOL   O20248598   3.825   0.400   3.108  0.2794  0.0142 -0.2983
  219MOL   C20348599   3.897   0.435   3.331  0.1414 -0.6224  0.0007
  219MOL   C20448600   3.982   0.625   3.018  0.3331  0.1882 -0.0986
  219MOL   H20548601   4.067   0.572   3.201  0.5114 -0.7668  0.4133
  219MOL   H20648602   3.990   0.420   3.385  0.5886 -2.8113 -1.3178
  219MOL   H20748603   3.845   0.523   3.370  0.0280  0.0620 -1.6587
  219MOL   H20848604   3.848   0.339   3.351 -1.3467  0.3003  0.9495
  219MOL   H20948605   3.931   0.577   2.934 -1.9889 -1.5599  2.1972
  219MOL   H21048606   4.066   0.661   2.960  0.0765  2.8785  1.1460
  219MOL   C21148607   3.898   0.746   3.083  0.2633 -0.6538  0.2867
  219MOL   C21248608   3.800   0.817   2.990 -0.0721  0.1292  0.2090
  219MOL   O21348609   3.805   0.800   2.867 -0.0205 -0.2777 -0.5887
  219MOL   C21448610   3.693   0.893   3.063 -0.3254  0.6170  0.9204
  219MOL   C21548611   4.004   0.852   3.124 -0.2000  0.1896 -0.1007
  219MOL   H21648612   3.841   0.710   3.169  0.3999  0.6950  0.9522
  219MOL   H21748613   3.603   0.833   3.066 -0.7842  1.0862 -1.9476
  219MOL   H21848614   3.730   0.921   3.161 -1.8234 -0.9643  1.9634
  219MOL   H21948615   3.657   0.973   2.998  1.1014  1.5146  1.2096
  219MOL   H22048616   3.957   0.923   3.192 -0.4875  2.4433 -2.5440
  219MOL   H22148617   4.043   0.899   3.034 -2.5011  0.1785 -1.1407
  219MOL   H22248618   4.086   0.801   3.173 -0.8764  0.5436  1.4281
  220MOL     C148619   6.639   4.536   0.051  0.7846 -0.5969 -0.4388
  220MOL     C248620   6.611   4.681   0.043  0.1050 -0.0254 -0.0724
  220MOL     O348621   6.499   4.721   0.014 -0.1205 -0.2159  0.3099
  220MOL     C448622   6.727   4.780   0.045 -0.5694  0.6818  0.1088
  220MOL     C548623   6.528   4.453   0.109  0.3281  0.1081 -0.0649
  220MOL     H648624   6.672   4.496   7.797  0.5661 -0.1908 -0.6866
  220MOL     H748625   6.700   4.872   0.098  1.1770  1.5982 -0.5481
  220MOL     H848626   6.813   4.746   0.103 -0.9895  0.5661  0.6724
  220MOL     H948627   6.742   4.825   7.789  0.7105 -0.4630 -0.2373
  220MOL    H1048628   6.485   4.502   0.196  2.6127 -0.1691  1.2325
  220MOL    H1148629   6.579   4.362   0.140 -0.5875 -1.5707 -3.2838
  220MOL    H1248630   6.716   4.524   0.128  0.8423 -1.1869 -0.5849
  220MOL    C1348631   6.415   4.427   0.010 -0.3383 -0.3772 -0.1435
  220MOL    C1448632   6.314   4.334   0.084 -1.1068  0.5573  0.6128
  220MOL    O1548633   6.343   4.241   0.155 -0.0705 -0.6133 -0.2759
  220MOL    C1648634   6.170   4.371   0.060 -0.1200  0.7180 -0.9027
  220MOL    C1748635   6.450   4.344   7.725 -0.4365 -0.0469 -0.4806
  220MOL    H1848636   6.369   4.523   7.830 -0.3688 -0.3275  0.1293
  220MOL    H1948637   6.107   4.284   0.080  0.3672  1.0288  2.3356
  220MOL    H2048638   6.136   4.450   0.127 -0.9172 -1.3663  1.2540
  220MOL    H2148639   6.169   4.410   7.801  1.9088  1.8388 -0.5276
  220MOL    H2248640   6.372   4.277   7.691  0.5181 -1.9061  0.9308
  220MOL    H2348641   6.529   4.275   7.755 -0.4916 -0.1996 -0.6916
  220MOL    C2448642   6.504   4.402   7.601 -0.0048 -0.1445  0.0715
  220MOL    C2548643   6.405   4.502   7.541 -0.8539  0.3445  0.4651
  220MOL    O2648644   6.308   4.472   7.473 -0.3459 -0.3214  0.1947
  220MOL    C2748645   6.442   4.653   7.543  0.3258  0.3581 -0.2287
  220MOL    C2848646   6.548   4.290   7.499  0.0108 -0.3248 -0.0534
  220MOL    H2948647   6.597   4.455   7.620  0.1817 -0.7697  0.9312
  220MOL    H3048648   6.547   4.680   7.558  0.4899 -0.0692 -0.6127
  220MOL    H3148649   6.415   4.689   7.443 -0.5281 -1.5253 -0.7038
  220MOL    H3248650   6.379   4.704   7.617  2.3412  0.7479  1.2563
  220MOL    H3348651   6.554   4.333   7.399  0.5515  0.4216  0.2935
  220MOL    H3448652   6.463   4.221   7.500 -1.6433  1.6745  2.1994
  220MOL    C3548653   6.680   4.216   7.530 -0.3633 -0.1311 -0.1576
  220MOL    C3648654   6.796   4.269   7.451 -0.7141 -0.0704  0.0280
  220MOL    O3748655   6.879   4.343   7.497  0.4935  0.6914  0.1351
  220MOL    C3848656   6.808   4.239   7.302  0.7834  0.3814 -0.4943
  220MOL    C3948657   6.658   4.064   7.521 -0.4494 -0.5403  0.4156
  220MOL    H4048658   6.714   4.234   7.631 -1.8897 -0.2173  0.3778
  220MOL    H4148659   6.877   4.303   7.248  1.6326 -1.3564 -1.5186
  220MOL    H4248660   6.843   4.136   7.295  0.1353  0.1990 -1.1319
  220MOL    H4348661   6.712   4.245   7.251  0.5999 -2.4309 -0.5491
  220MOL    H4448662   6.745   4.015   7.479 -0.8782  0.3831 -1.6233
  220MOL    H4548663   6.589   4.047   7.438 -1.4111  0.2715  1.0328
  220MOL    C4648664   6.611   4.006   7.657 -0.2447 -0.3768 -0.5279
  220MOL    C4748665   6.713   4.015   7.776  0.6725 -0.1413 -0.2643
  220MOL    O4848666   6.837   3.997   7.762  0.0239 -0.0305 -0.2413
  220MOL    C4948667   6.656   4.045   0.074 -0.5165  0.8270  0.3393
  220MOL    C5048668   6.580   3.858   7.638 -0.0354 -0.1822 -0.0953
  220MOL    H5148669   6.526   4.060   7.697 -1.6702 -1.0986 -2.5352
  220MOL    H5248670   6.549   4.026   0.075 -0.5345  0.8773 -0.4151
  220MOL    H5348671   6.706   3.981   0.147 -0.7329 -1.7617 -1.7357
  220MOL    H5448672   6.675   4.147   0.107 -0.4884  0.7117  0.6872
  220MOL    H5548673   6.565   3.821   7.740 -1.5846  3.2891  1.0163
  220MOL    H5648674   6.656   3.789   7.603 -1.3497 -0.3023 -2.7972
  220MOL    C5748675   6.450   3.828   7.549  0.6609 -0.7042 -0.0176
  220MOL    C5848676   6.319   3.854   7.626  0.0277 -0.1280  0.4295
  220MOL    O5948677   6.268   3.777   7.707 -0.4182 -0.3644 -0.1294
  220MOL    C6048678   6.267   3.991   7.610 -0.4803 -0.5214  0.3324
  220MOL    C6148679   6.448   3.683   7.497 -0.0097 -0.0094  1.1089
  220MOL    H6248680   6.456   3.892   7.461 -0.9449  0.7015  0.8661
  220MOL    H6348681   6.163   4.004   7.639 -0.0159  0.5010  1.6219
  220MOL    H6448682   6.321   4.057   7.678  0.2149  0.8565 -1.5466
  220MOL    H6548683   6.279   4.035   7.512 -1.4741  1.0285  0.8934
  220MOL    H6648684   6.446   3.618   7.585 -1.5484  0.1197  1.1789
  220MOL    H6748685   6.542   3.663   7.446 -0.1365 -2.6316  1.8469
  220MOL    C6848686   6.346   3.631   7.398 -1.0425 -0.1231 -0.7327
  220MOL    C6948687   6.349   3.720   7.267 -0.3738  0.2540 -0.5901
  220MOL    O7048688   6.261   3.805   7.255  0.5599  0.5128  0.0398
  220MOL    C7148689   6.464   3.698   7.177 -0.5889 -0.0046 -0.1859
  220MOL    C7248690   6.206   3.600   7.447  0.4971 -0.3110  0.2030
  220MOL    H7348691   6.379   3.531   7.370 -0.9706 -0.7911  1.6511
  220MOL    H7448692   6.477   3.605   7.122 -4.0302  0.3922 -1.7811
  220MOL    H7548693   6.454   3.776   7.102 -0.2957  0.2568  0.0426
  220MOL    H7648694   6.554   3.722   7.233  0.8261 -2.7426 -1.1822
  220MOL    H7748695   6.144   3.566   7.363  1.2238  0.7532 -0.7818
  220MOL    H7848696   6.164   3.697   7.473 -0.4996 -0.8368  0.6037
  220MOL    C7948697   6.189   3.505   7.567  0.2822 -0.0261 -0.0907
  220MOL    C8048698   6.265   3.372   7.547  0.1004 -0.4921  0.2031
  220MOL    O8148699   6.350   3.327   7.626  0.3740  0.3916  0.2636
  220MOL    C8248700   6.223   3.289   7.427 -0.0514  1.1520 -0.4263
  220MOL    C8348701   6.031   3.478   7.596  0.6929 -0.5629  0.2030
  220MOL    H8448702   6.232   3.560   7.651 -3.0931  0.2753  1.5527
  220MOL    H8548703   6.115   3.281   7.411 -0.1435  0.1003  0.6285
  220MOL    H8648704   6.260   3.320   7.329  0.0019 -0.6479 -0.9932
  220MOL    H8748705   6.270   3.194   7.452  0.3447  0.8527 -2.2121
  220MOL    H8848706   5.982   3.441   7.506 -0.1651 -1.6947  1.1347
  220MOL    H8948707   5.988   3.578   7.601 -0.2628 -0.9743  0.2037
  220MOL    C9048708   5.999   3.384   7.710  0.4323 -0.0412  0.3795
  220MOL    C9148709   5.850   3.347   7.717 -0.4786  0.7602 -0.4647
  220MOL    O9248710   5.766   3.430   7.761  0.4903 -0.6476  0.3493
  220MOL    C9348711   5.806   3.218   7.657  0.1182 -0.0775 -0.0620
  220MOL    C9448712   6.057   3.437   0.004  0.0767 -0.7622  0.2853
  220MOL    H9548713   6.049   3.292   7.679 -0.1957 -0.6143  1.0438
  220MOL    H9648714   5.793   3.136   7.727 -1.5723  1.7675  1.8318
  220MOL    H9748715   5.716   3.215   7.596  0.1321  0.4534 -0.1180
  220MOL    H9848716   5.875   3.187   7.578 -2.2050 -0.9609 -1.8149
  220MOL    H9948717   6.013   3.529   0.044 -0.4425 -0.1936 -1.5644
  220MOL   H10048718   6.161   3.464   7.831 -0.3275 -0.0325 -1.3622
  220MOL   C10148719   6.063   3.333   0.117 -0.1747 -0.0947  0.2328
  220MOL   C10248720   5.935   3.334   0.200  0.1726  0.3204 -0.9478
  220MOL   O10348721   5.911   3.425   0.279 -0.7992 -0.0102  0.7265
  220MOL   C10448722   5.846   3.203   0.196  0.4642 -0.3453 -0.5316
  220MOL   C10548723   6.195   3.331   0.195 -0.1348 -0.1600 -0.1897
  220MOL   H10648724   6.064   3.239   0.063  0.2835  1.2560 -2.2007
  220MOL   H10748725   5.747   3.230   0.159  0.4922 -1.7582 -1.6861
  220MOL   H10848726   5.890   3.134   0.125  1.1509 -0.8631  0.3899
  220MOL   H10948727   5.853   3.163   0.297 -1.1096 -0.2833 -0.3824
  220MOL   H11048728   6.170   3.282   0.290  2.6342  1.2365  1.3258
  220MOL   H11148729   6.231   3.431   0.218  1.8428 -0.5006 -1.6874
  220MOL   C11248730   6.313   3.253   0.140 -0.2793 -0.6019  0.2463
  220MOL   C11348731   6.285   3.106   0.111 -0.2024  0.6372 -0.0925
  220MOL   O11448732   6.182   3.048   0.159  0.1326  0.6101 -0.0578
  220MOL   C11548733   6.382   3.040   0.005  0.0156  0.1204 -0.1908
  220MOL   C11648734   6.425   3.272   0.247 -1.0571  0.3742  0.1021
  220MOL   H11748735   6.334   3.307   0.047  0.3496  1.1919  1.4178
  220MOL   H11848736   6.484   3.046   0.044  0.1044  0.4163 -0.4697
  220MOL   H11948737   6.359   2.935   7.830  0.9343  0.0544 -1.0373
  220MOL   H12048738   6.381   3.088   7.750  1.0347  0.2371 -0.1500
  220MOL   H12148739   6.501   3.196   0.232 -1.3226  0.2617 -0.7055
  220MOL   H12248740   6.377   3.246   0.341 -0.1395  1.0793  0.7740
  220MOL   C12348741   6.499   3.406   0.260 -0.1917 -0.8801 -0.0893
  220MOL   C12448742   6.580   3.434   0.131  0.5557 -0.5585  0.1114
  220MOL   O12548743   6.690   3.376   0.116 -0.1050  0.2351 -0.1221
  220MOL   C12648744   6.519   3.528   0.024 -0.5262  0.2050  0.1384
  220MOL   C12748745   6.587   3.389   0.388 -0.0142 -0.9311 -0.2599
  220MOL   H12848746   6.426   3.487   0.258 -0.0281 -0.7333 -0.0983
  220MOL   H12948747   6.412   3.532   0.044 -0.9964 -0.2920 -2.1706
  220MOL   H13048748   6.575   3.621   0.031 -0.3325  0.1651 -0.8263
  220MOL   H13148749   6.528   3.487   7.765 -1.6679  0.9037 -0.2571
  220MOL   H13248750   6.671   3.459   0.388 -0.4409 -0.4070 -1.4439
  220MOL   H13348751   6.616   3.285   0.397 -2.4035 -1.6652 -0.6789
  220MOL   C13448752   6.514   3.414   0.531 -0.8807  0.1243 -0.0931
  220MOL   C13548753   6.470   3.559   0.554 -0.4558  0.8628  0.0163
  220MOL   O13648754   6.513   3.625   0.654 -0.1827 -0.4509  0.3934
  220MOL   C13748755   6.366   3.621   0.462 -0.6464  0.0495  0.6106
  220MOL   C13848756   6.595   3.344   0.644 -0.1278 -0.0252 -0.0701
  220MOL   H13948757   6.416   3.369   0.516 -1.6181  2.2066 -1.8065
  220MOL   H14048758   6.276   3.563   0.448 -0.6846  0.7089 -2.0910
  220MOL   H14148759   6.337   3.706   0.525 -2.0726  2.3957 -3.0645
  220MOL   H14248760   6.411   3.657   0.369 -2.7149  0.3353 -0.3013
  220MOL   H14348761   6.623   3.414   0.723  1.2575 -0.1387 -0.4383
  220MOL   H14448762   6.692   3.311   0.606 -0.6268  1.7831 -3.0056
  220MOL   C14548763   6.516   3.235   0.719  0.4606  0.2763 -0.3761
  220MOL   C14648764   6.468   3.127   0.619 -0.7135  0.0237 -0.5848
  220MOL   O14748765   6.351   3.112   0.589  0.0659 -0.1906  0.2558
  220MOL   C14848766   6.572   3.034   0.577 -0.5029 -0.3236  0.6136
  220MOL   C14948767   6.412   3.289   0.811 -0.1527 -0.0769 -0.4550
  220MOL   H15048768   6.599   3.202   0.782 -0.2346  0.1916  0.4927
  220MOL   H15148769   6.657   3.094   0.544 -0.3460 -0.5443  0.6163
  220MOL   H15248770   6.590   2.971   0.665  0.7751  0.4852  0.9487
  220MOL   H15348771   6.545   2.968   0.495  1.7722 -1.4799  0.7580
  220MOL   H15448772   6.331   3.328   0.749  0.0489  1.7682  0.4175
  220MOL   H15548773   6.457   3.381   0.848  0.1432  0.7392 -2.7419
  220MOL   C15648774   6.350   3.212   0.932  0.0654 -0.7418  0.8099
  220MOL   C15748775   6.457   3.142   1.015 -0.1650 -0.0741  0.2166
  220MOL   O15848776   6.502   3.030   0.988  0.4205 -0.6270  1.0966
  220MOL   C15948777   6.495   3.217   1.140  0.1796  0.5112 -0.1421
  220MOL   C16048778   6.233   3.118   0.893 -0.7063  0.7406 -0.2537
  220MOL   H16148779   6.310   3.292   0.996 -0.0013  1.1341 -1.5003
  220MOL   H16248780   6.402   3.224   1.197 -0.4408 -0.2314 -1.0442
  220MOL   H16348781   6.566   3.167   1.206 -0.5741  0.2795  0.5050
  220MOL   H16448782   6.529   3.320   1.129 -2.3671  1.4557  0.5296
  220MOL   H16548783   6.224   3.047   0.976  0.9546 -0.2297 -0.8788
  220MOL   H16648784   6.267   3.051   0.814 -2.7094 -1.1931  0.4655
  220MOL   C16748785   6.099   3.186   0.874  0.3864  0.1389  0.2414
  220MOL   C16848786   6.032   3.198   1.013 -0.3583 -0.2722  0.6296
  220MOL   O16948787   5.984   3.100   1.059 -0.5397  0.5629 -0.1196
  220MOL   C17048788   6.029   3.336   1.075  0.7181  0.8599  0.0846
  220MOL   C17148789   6.013   3.112   0.771 -0.2772 -0.1795 -0.6532
  220MOL   H17248790   6.117   3.286   0.834 -2.2799 -0.4825 -2.7406
  220MOL   H17348791   6.122   3.385   1.047  1.6707 -1.4212 -0.8011
  220MOL   H17448792   5.938   3.392   1.052 -1.2047 -2.5261 -0.8200
  220MOL   H17548793   6.037   3.313   1.181 -0.2148  1.6450  0.3368
  220MOL   H17648794   5.996   3.011   0.810  0.9017 -0.1579 -0.0618
  220MOL   H17748795   6.080   3.103   0.685 -0.0740  1.9683 -0.7292
  220MOL   C17848796   5.883   3.190   0.739  0.3531 -0.4741 -0.2591
  220MOL   C17948797   5.759   3.095   0.745 -0.1384 -0.3582 -0.3808
  220MOL   O18048798   5.705   3.067   0.637  0.0202  0.3185  0.0425
  220MOL   C18148799   5.703   3.059   0.882  0.1123  0.0759  0.0627
  220MOL   C18248800   5.890   3.278   0.610 -0.1956 -0.2093  0.6755
  220MOL   H18348801   5.854   3.262   0.816  0.4313  0.1020 -0.7640
  220MOL   H18448802   5.651   2.964   0.876  2.2034 -1.1195  0.5297
  220MOL   H18548803   5.785   3.043   0.952  0.4234 -0.5820 -0.4521
  220MOL   H18648804   5.634   3.137   0.916  0.2178 -0.3262  1.2143
  220MOL   H18748805   5.851   3.231   0.519  0.1500 -1.2858  1.0776
  220MOL   H18848806   5.989   3.283   0.565  0.5014 -0.0423  2.1992
  220MOL   C18948807   5.829   3.419   0.609  0.2833 -0.1782  0.0417
  220MOL   C19048808   5.912   3.493   0.717  0.0939 -0.3419 -0.2569
  220MOL   O19148809   5.873   3.504   0.833  0.1820 -0.0145  0.0574
  220MOL   C19248810   6.055   3.532   0.677 -0.1518  0.7397 -0.6648
  220MOL   C19348811   5.677   3.422   0.609  0.0994  0.0915 -0.0016
  220MOL   H19448812   5.861   3.465   0.515 -0.7657 -1.1034 -0.7675
  220MOL   H19548813   6.112   3.440   0.677 -0.5830  0.4435  1.3097
  220MOL   H19648814   6.050   3.567   0.574  0.1966 -0.5594 -1.1203
  220MOL   H19748815   6.106   3.607   0.738 -0.1931  0.1462  0.0989
  220MOL   H19848816   5.645   3.518   0.649  0.7739  0.5655 -0.6006
  220MOL   H19948817   5.646   3.352   0.687 -1.9914  0.0714 -0.8075
  220MOL   C20048818   5.622   3.385   0.467  0.3807 -0.1851  0.2308
  220MOL   C20148819   5.614   3.503   0.373 -0.5014 -0.0250 -0.9665
  220MOL   O20248820   5.624   3.617   0.419  0.0118  0.0228 -0.3706
  220MOL   C20348821   5.597   3.477   0.225  0.3269  0.6304 -0.0175
  220MOL   C20448822   5.487   3.310   0.465  0.1382  0.0763  0.0283
  220MOL   H20548823   5.688   3.310   0.423  2.2833  2.0461 -0.8103
  220MOL   H20648824   5.623   3.554   0.153  0.3631  1.2686  0.6707
  220MOL   H20748825   5.633   3.381   0.186  1.5229  0.7987  0.6692
  220MOL   H20848826   5.488   3.469   0.220  0.2053  1.9420  0.3530
  220MOL   H20948827   5.495   3.236   0.545  0.5811 -0.3747 -0.4248
  220MOL   H21048828   5.468   3.246   0.379 -1.9223 -1.3620  1.5073
  220MOL   C21148829   5.355   3.385   0.488 -0.2138 -0.7081 -0.2444
  220MOL   C21248830   5.323   3.452   0.619  0.1110 -0.3499 -1.0245
  220MOL   O21348831   5.264   3.386   0.706 -0.4981 -0.0478 -0.2307
  220MOL   C21448832   5.365   3.593   0.646 -0.5434 -0.1915  0.1135
  220MOL   C21548833   5.235   3.292   0.453  0.3282 -0.0990 -0.1617
  220MOL   H21648834   5.359   3.464   0.413  0.5467  0.4011  0.9593
  220MOL   H21748835   5.306   3.647   0.719  2.5810  0.0422  2.6068
  220MOL   H21848836   5.463   3.612   0.691 -0.1645 -1.0805 -0.3179
  220MOL   H21948837   5.362   3.656   0.557 -2.3509 -0.1710  0.1829
  220MOL   H22048838   5.224   3.203   0.514 -0.3741 -0.1966 -0.4189
  220MOL   H22148839   5.247   3.273   0.346 -1.0874  2.2318 -0.7927
  220MOL   H22248840   5.138   3.342   0.457 -1.4229 -3.2293 -1.7716
  221MOL     C148841   7.432   2.884   6.511  0.7162 -1.0860  0.2708
  221MOL     C248842   7.446   3.028   6.560  0.0221 -0.0274  0.9392
  221MOL     O348843   7.461   3.122   6.482 -0.4851 -0.0454  0.5040
  221MOL     C448844   7.429   3.057   6.708  0.1563 -0.5987 -0.0918
  221MOL     C548845   7.396   2.872   6.367  0.0493  0.4696 -0.6120
  221MOL     H648846   7.510   2.824   6.557  0.6121 -0.2834  1.5264
  221MOL     H748847   7.521   3.032   6.760  1.4630  2.1877 -0.9443
  221MOL     H848848   7.416   3.163   6.730 -0.4283 -0.7929  0.5250
  221MOL     H948849   7.344   3.005   6.752  0.7194 -1.4645 -0.0167
  221MOL    H1048850   7.333   2.955   6.336  1.5078  2.1141  0.7148
  221MOL    H1148851   7.339   2.781   6.343 -0.0391  0.7480 -1.4917
  221MOL    H1248852   7.337   2.862   6.559  0.0799  1.9266  0.5092
  221MOL    C1348853   7.525   2.862   6.278  0.1208 -0.4043  0.4762
  221MOL    C1448854   7.523   2.967   6.161  1.0806 -0.3785 -0.0643
  221MOL    O1548855   7.417   3.020   6.131 -0.3002  0.0509  0.4748
  221MOL    C1648856   7.641   2.998   6.077  1.0185  0.0351  0.1041
  221MOL    C1748857   7.568   2.718   6.233 -0.4756 -0.1617 -0.8373
  221MOL    H1848858   7.612   2.894   6.335 -0.5833  1.2311  0.6503
  221MOL    H1948859   7.641   3.104   6.053  1.7353 -0.1159 -0.6127
  221MOL    H2048860   7.730   2.977   6.136 -0.5553  0.2814  2.6270
  221MOL    H2148861   7.641   2.949   5.979 -1.0101 -0.8306  0.5151
  221MOL    H2248862   7.650   2.716   6.160 -0.3759  1.9796 -0.8073
  221MOL    H2348863   7.475   2.678   6.194 -2.0288 -0.3396  2.9003
  221MOL    C2448864   7.621   2.622   6.352 -0.1611  0.4572  0.0899
  221MOL    C2548865   7.736   2.688   6.429 -0.1410  0.0380 -0.4831
  221MOL    O2648866   7.726   2.709   6.549 -0.2131 -0.4402 -0.1366
  221MOL    C2748867   0.010   2.753   6.352 -0.1900 -0.3945  0.5019
  221MOL    C2848868   7.667   2.483   6.289  0.7701 -0.6952 -0.0535
  221MOL    H2948869   7.529   2.607   6.410 -1.9386 -2.7513 -3.2970
  221MOL    H3048870   0.100   2.779   6.407 -0.2089  2.3190 -0.6228
  221MOL    H3148871   0.032   2.677   6.277 -1.3445 -1.2941  1.0702
  221MOL    H3248872   7.822   2.841   6.295 -0.2947 -0.8744 -0.1896
  221MOL    H3348873   7.768   2.492   6.249  0.8710 -0.3037  0.2835
  221MOL    H3448874   7.609   2.456   6.200  2.2149 -2.9494 -0.3425
  221MOL    C3548875   7.665   2.362   6.387  0.0370  0.5422 -0.2456
  221MOL    C3648876   7.808   2.336   6.438  0.2941 -0.5798 -0.3009
  221MOL    O3748877   0.043   2.251   6.391  0.4583 -0.1233  0.4178
  221MOL    C3848878   0.013   2.398   6.566 -0.5026  0.5332  0.0431
  221MOL    C3948879   7.612   2.229   6.308 -1.0313 -0.2066  0.0904
  221MOL    H4048880   7.600   2.380   6.473  1.6555  0.9732  0.9235
  221MOL    H4148881   0.118   2.429   6.566 -0.6994  1.1889  0.0864
  221MOL    H4248882   7.795   2.484   6.594  0.1658  1.0914 -0.2280
  221MOL    H4348883   0.008   2.330   6.651  0.9279  0.2238 -0.1062
  221MOL    H4448884   7.646   2.145   6.367 -2.4979  0.1154  1.4265
  221MOL    H4548885   7.676   2.206   6.223 -0.5553 -0.8191  0.6175
  221MOL    C4648886   7.458   2.226   6.286  0.5067 -0.5481 -1.1981
  221MOL    C4748887   7.391   2.207   6.420  0.2956 -0.1297  0.2323
  221MOL    O4848888   7.448   2.159   6.512  0.0527  0.0269  0.7968
  221MOL    C4948889   7.246   2.240   6.433 -0.2804 -0.2591  0.1256
  221MOL    C5048890   7.416   2.121   6.184 -0.0449 -0.4877  0.4776
  221MOL    H5148891   7.427   2.324   6.248 -1.0515  0.2635  2.0390
  221MOL    H5248892   7.203   2.268   6.337  1.2068  0.4730 -0.3599
  221MOL    H5348893   7.200   2.145   6.460 -1.6907 -0.2032 -1.9415
  221MOL    H5448894   7.228   2.325   6.498  0.4271 -0.5417  0.6980
  221MOL    H5548895   7.481   2.126   6.096  0.5794 -1.2831  0.8926
  221MOL    H5648896   7.320   2.155   6.143 -0.1537 -1.3419  0.0226
  221MOL    C5748897   7.414   1.974   6.230  0.3371  0.5617 -0.1107
  221MOL    C5848898   7.552   1.912   6.242  0.4921  0.2564 -0.0438
  221MOL    O5948899   7.640   1.926   6.159 -0.0908  0.3450  0.6766
  221MOL    C6048900   7.569   1.839   6.378 -0.0734 -0.5988  0.5214
  221MOL    C6148901   7.337   1.888   6.124 -0.0224 -0.2226  0.1580
  221MOL    H6248902   7.358   1.957   6.322  0.1101 -0.3220 -0.4070
  221MOL    H6348903   7.503   1.752   6.376 -1.0115  0.0786  1.6092
  221MOL    H6448904   7.670   1.798   6.370  1.3644  3.1337 -2.1919
  221MOL    H6548905   7.553   1.907   6.462  1.4838  1.6819 -0.9516
  221MOL    H6648906   7.374   1.786   6.124  1.9077  0.4274  2.0561
  221MOL    H6748907   7.364   1.917   6.023 -0.1756  2.1148  0.7564
  221MOL    C6848908   7.185   1.900   6.147  0.4147 -0.2405  0.5275
  221MOL    C6948909   7.135   1.845   6.282 -0.0503 -0.4929 -0.5992
  221MOL    O7048910   7.206   1.778   6.360 -0.0368 -0.1211  0.3569
  221MOL    C7148911   6.983   1.876   6.324  0.2221 -0.6039  0.4120
  221MOL    C7248912   7.114   1.825   6.030  0.1347 -0.5593  0.2172
  221MOL    H7348913   7.154   2.004   6.138 -1.0145 -0.7374 -0.4445
  221MOL    H7448914   6.945   1.976   6.301  0.9795 -0.8509 -2.0166
  221MOL    H7548915   6.921   1.804   6.271  0.5861  0.0444 -0.8980
  221MOL    H7648916   6.976   1.851   6.430 -1.5567  0.4265  0.5526
  221MOL    H7748917   7.052   1.753   6.083 -2.0504  1.1423  0.0470
  221MOL    H7848918   7.186   1.766   5.973  2.4975  0.0507  2.5217
  221MOL    C7948919   7.038   1.932   5.946  0.5039 -0.9906 -0.5773
  221MOL    C8048920   6.924   2.006   6.012 -0.0384 -0.1848 -0.6605
  221MOL    O8148921   6.837   1.950   6.076 -0.1402 -0.1749 -0.8166
  221MOL    C8248922   6.928   2.154   5.990 -0.5168 -0.2890  0.3755
  221MOL    C8348923   6.980   1.870   5.813 -0.8035 -0.4438  0.4480
  221MOL    H8448924   7.104   2.012   5.912 -1.2970  0.7586 -0.0225
  221MOL    H8548925   6.887   2.192   6.084 -0.9131  0.8920 -0.2602
  221MOL    H8648926   7.029   2.188   5.972 -0.8482 -0.2566 -1.4719
  221MOL    H8748927   6.859   2.174   5.907  0.0998  0.2835 -0.0016
  221MOL    H8848928   7.060   1.843   5.743 -0.9030  2.6418 -0.9471
  221MOL    H8948929   6.917   1.946   5.766 -0.8597 -0.7167  0.0705
  221MOL    C9048930   6.888   1.740   5.824 -0.4129  0.3180 -0.8421
  221MOL    C9148931   6.972   1.610   5.835  0.7269  0.4431 -0.0986
  221MOL    O9248932   7.076   1.583   5.777 -0.2676  0.0192 -0.7899
  221MOL    C9348933   6.909   1.511   5.928  0.3855 -0.6213  0.2972
  221MOL    C9448934   6.777   1.723   5.715 -0.0693 -0.2846 -0.1809
  221MOL    H9548935   6.832   1.746   5.917 -0.8699 -1.5991 -0.9728
  221MOL    H9648936   6.800   1.519   5.919  0.3107  0.1126  1.6623
  221MOL    H9748937   6.933   1.409   5.897 -0.7025 -0.8194  0.0743
  221MOL    H9848938   6.928   1.532   6.033  0.2473 -2.2667  0.6641
  221MOL    H9948939   6.748   1.619   5.699 -0.0571 -0.3411  0.1619
  221MOL   H10048940   6.813   1.753   5.617 -3.2252  0.7680 -1.0942
  221MOL   C10148941   6.658   1.815   5.748 -0.2221 -0.4884 -0.0326
  221MOL   C10248942   6.580   1.774   5.876 -0.7675 -0.8846 -1.1654
  221MOL   O10348943   6.571   1.657   5.925 -0.3600  0.1794 -0.1519
  221MOL   C10448944   6.515   1.892   5.949  0.1522 -0.1554  0.6371
  221MOL   C10548945   6.564   1.811   5.622 -0.4920  0.5017  0.3593
  221MOL   H10648946   6.690   1.919   5.755  0.2331 -0.5784 -0.7060
  221MOL   H10748947   6.593   1.954   5.992 -0.4613  0.1373  1.3261
  221MOL   H10848948   6.448   1.949   5.885  0.5797 -0.7488 -0.3525
  221MOL   H10948949   6.458   1.860   6.036 -1.5789  0.5640 -0.2255
  221MOL   H11048950   6.464   1.816   5.666 -0.8396  2.1189 -0.5591
  221MOL   H11148951   6.563   1.717   5.567 -2.8083 -0.1440  1.4363
  221MOL   C11248952   6.564   1.921   5.510  0.4108 -0.2769 -0.2350
  221MOL   C11348953   6.511   2.044   5.585  0.3977 -0.7451 -0.0329
  221MOL   O11448954   6.409   2.043   5.653 -0.2893 -0.5983 -0.8130
  221MOL   C11548955   6.595   2.171   5.554  0.4541  0.0715 -0.1439
  221MOL   C11648956   6.470   1.877   5.390  0.8304  0.5366 -0.2087
  221MOL   H11748957   6.661   1.960   5.480 -0.5614  3.1600  0.8768
  221MOL   H11848958   6.663   2.160   5.470  0.2534  1.5587 -0.5274
  221MOL   H11948959   6.522   2.252   5.540  2.2524  2.3558  3.0889
  221MOL   H12048960   6.638   2.204   5.648 -0.6691  2.2608 -0.3653
  221MOL   H12148961   6.397   1.816   5.443  0.5080  1.4714  0.4432
  221MOL   H12248962   6.529   1.814   5.324  1.7553  1.2136 -0.0555
  221MOL   C12348963   6.405   1.977   5.292  0.3350  0.2338 -0.0121
  221MOL   C12448964   6.285   1.919   5.221 -0.1397  0.5973 -1.2572
  221MOL   O12548965   6.297   1.878   5.109  0.0620  0.5028 -0.7919
  221MOL   C12648966   6.158   1.898   5.300 -0.4184  0.1232 -0.1787
  221MOL   C12748967   6.511   2.049   5.206 -0.2973  0.3642 -0.4395
  221MOL   H12848968   6.368   2.054   5.359 -1.9917 -0.2789 -0.6970
  221MOL   H12948969   6.170   1.834   5.388  3.0556  0.2309 -0.5115
  221MOL   H13048970   6.117   1.994   5.331 -0.8788  1.0485 -3.5073
  221MOL   H13148971   6.084   1.851   5.235  0.1772 -0.6342 -0.3189
  221MOL   H13248972   6.545   1.980   5.129  0.8248  1.1041 -0.6289
  221MOL   H13348973   6.597   2.061   5.272 -1.0542  1.8221  0.3067
  221MOL   C13448974   6.486   2.195   5.133 -0.4136 -0.4590  0.2721
  221MOL   C13548975   6.608   2.240   5.047  0.0635 -0.0123  0.1581
  221MOL   O13648976   6.705   2.288   5.105  0.3189 -0.3411 -0.7016
  221MOL   C13748977   6.620   2.195   4.900  0.4400  0.1458 -1.0210
  221MOL   C13848978   6.448   2.301   5.237 -0.4872 -0.2425  0.3475
  221MOL   H13948979   6.397   2.189   5.071  0.0745  0.2277 -0.5149
  221MOL   H14048980   6.669   2.275   4.844  1.2707  1.5405  1.6207
  221MOL   H14148981   6.676   2.103   4.886  0.9282  0.5115 -1.5021
  221MOL   H14248982   6.522   2.183   4.853 -1.8266  4.9090  2.0165
  221MOL   H14348983   6.523   2.291   5.316 -0.5827 -1.8263  0.2437
  221MOL   H14448984   6.354   2.274   5.286  0.0900  0.0109  1.6146
  221MOL   C14548985   6.441   2.451   5.190  0.9196 -0.2429  0.0132
  221MOL   C14648986   6.438   2.549   5.300  0.6393  0.1451 -0.7204
  221MOL   O14748987   6.372   2.515   5.398 -0.2070 -0.2638  0.4509
  221MOL   C14848988   6.486   2.700   5.290  0.1763  0.4759 -0.5142
  221MOL   C14948989   6.309   2.482   5.106 -0.3024  0.1885  0.7655
  221MOL   H15048990   6.532   2.479   5.137  0.1777  0.4146 -0.9480
  221MOL   H15148991   6.405   2.772   5.307 -0.1583  0.2648 -1.2029
  221MOL   H15248992   6.561   2.712   5.368  0.0114  0.8271 -0.4044
  221MOL   H15348993   6.538   2.725   5.198  1.8612  0.3597  0.3898
  221MOL   H15448994   6.288   2.589   5.105 -0.7767  0.1009  1.1426
  221MOL   H15548995   6.232   2.421   5.154 -0.1685 -0.7589 -0.2029
  221MOL   C15648996   6.322   2.457   4.955  0.0536  0.9262  0.1406
  221MOL   C15748997   6.408   2.565   4.882 -0.0572 -0.7542  0.1129
  221MOL   O15848998   6.445   2.670   4.938  0.0043  0.9535 -0.0714
  221MOL   C15948999   6.439   2.532   4.738 -0.3929 -0.8715 -0.0934
  221MOL   C16049000   6.188   2.449   4.897  0.5119 -0.9058 -0.0721
  221MOL   H16149001   6.364   2.360   4.927 -2.9693 -0.1819 -0.6913
  221MOL   H16249002   6.359   2.564   4.671  0.3136  0.3526 -0.3648
  221MOL   H16349003   6.524   2.591   4.705 -1.4217  2.0170  2.2107
  221MOL   H16449004   6.456   2.425   4.727 -2.0884 -1.4770  2.6275
  221MOL   H16549005   6.184   2.463   4.789  1.1011  0.4599  0.0763
  221MOL   H16649006   6.133   2.535   4.935  2.8640  0.3834  0.4995
  221MOL   C16749007   6.106   2.319   4.922 -0.4846 -0.4476  0.6668
  221MOL   C16849008   6.151   2.192   4.847  0.8046 -0.6224  0.3222
  221MOL   O16949009   6.220   2.192   4.749  0.1911  0.0429 -0.0908
  221MOL   C17049010   6.106   2.065   4.908  0.0135  0.6303 -1.0722
  221MOL   C17149011   5.944   2.333   4.921 -0.1085 -0.1280  0.0654
  221MOL   H17249012   6.129   2.294   5.026  0.0491  0.9366  0.8869
  221MOL   H17349013   6.185   1.991   4.903  1.2311  1.8320 -0.1095
  221MOL   H17449014   6.080   2.068   5.014 -1.0230  2.0296 -1.3521
  221MOL   H17549015   6.018   2.038   4.850 -0.7627  0.3420  0.2135
  221MOL   H17649016   5.896   2.235   4.925 -1.6463  0.6356  1.3243
  221MOL   H17749017   5.926   2.367   4.819  0.7068 -0.7028 -0.2741
  221MOL   C17849018   5.889   2.427   5.036 -1.0047  0.1273 -0.0160
  221MOL   C17949019   5.920   2.367   5.172 -0.0521 -0.0045  1.0233
  221MOL   O18049020   5.908   2.243   5.195  0.1786 -0.0526 -0.5505
  221MOL   C18149021   5.963   2.465   5.284  0.2292  0.1701 -0.4320
  221MOL   C18249022   5.740   2.454   5.013  0.2916  0.0896 -0.2308
  221MOL   H18349023   5.950   2.518   5.035  0.3212 -0.7110  1.8203
  221MOL   H18449024   5.991   2.566   5.252 -1.1861  0.0536 -2.1097
  221MOL   H18549025   5.886   2.458   5.361  0.6368 -1.9042 -0.1830
  221MOL   H18649026   6.056   2.443   5.337 -0.3839  0.5992  0.8308
  221MOL   H18749027   5.694   2.355   5.007  0.7181 -0.0417 -1.4876
  221MOL   H18849028   5.750   2.498   4.913 -0.2736  1.6239  0.3775
  221MOL   C18949029   5.658   2.556   5.100  0.3010  0.1135  0.1361
  221MOL   C19049030   5.505   2.546   5.059 -0.3181 -0.2560 -0.1448
  221MOL   O19149031   5.453   2.621   4.973 -0.2276 -0.1061 -0.2700
  221MOL   C19249032   5.418   2.437   5.118 -0.0970 -0.6742  0.2897
  221MOL   C19349033   5.706   2.700   5.101  0.1526 -0.2705  0.1921
  221MOL   H19449034   5.681   2.511   5.197  2.8093  3.3124  1.1018
  221MOL   H19549035   5.324   2.439   5.062 -0.3300 -0.5467  0.6808
  221MOL   H19649036   5.460   2.337   5.118  0.0040 -0.6569 -1.4931
  221MOL   H19749037   5.396   2.453   5.223  2.9384  1.1936  0.7227
  221MOL   H19849038   5.676   2.733   5.002  0.2480 -1.6011 -0.2850
  221MOL   H19949039   5.815   2.709   5.103  0.2746 -1.6316  0.2382
  221MOL   C20049040   5.649   2.796   5.209  0.1836 -0.5815  0.3482
  221MOL   C20149041   5.666   2.941   5.161 -0.2936  0.0762  0.4041
  221MOL   O20249042   5.774   2.986   5.131 -0.1153  0.4763 -0.0706
  221MOL   C20349043   5.546   3.042   5.162  1.0454 -0.5670  0.1270
  221MOL   C20449044   5.723   2.780   5.343  0.0209  0.3554  0.2564
  221MOL   H20549045   5.542   2.773   5.216  0.1293 -0.3926  0.1713
  221MOL   H20649046   5.520   3.077   5.062 -2.7453  0.0434  1.2567
  221MOL   H20749047   5.455   2.990   5.191  1.0254 -1.3410 -1.2933
  221MOL   H20849048   5.556   3.121   5.236 -0.5650 -1.3742  1.2192
  221MOL   H20949049   5.750   2.879   5.380  1.3532  0.7024 -1.5808
  221MOL   H21049050   5.819   2.731   5.330 -0.5554 -1.2721  1.8315
  221MOL   C21149051   5.644   2.704   5.460  0.6351 -0.9759 -0.1577
  221MOL   C21249052   5.519   2.773   5.508  0.3825 -0.2158  0.2147
  221MOL   O21349053   5.519   2.896   5.534 -0.1220 -0.2884 -0.0265
  221MOL   C21449054   5.398   2.681   5.522  0.2673 -0.0285 -0.6082
  221MOL   C21549055   5.741   2.689   5.585 -0.1222 -0.7579  0.1190
  221MOL   H21649056   5.610   2.605   5.428  1.8767 -1.0396 -1.3451
  221MOL   H21749057   5.384   2.673   5.630  1.3070  0.1413 -0.4569
  221MOL   H21849058   5.305   2.723   5.487 -1.1111 -0.3393  2.4877
  221MOL   H21949059   5.405   2.586   5.469 -0.5324 -0.8382  0.7117
  221MOL   H22049060   5.827   2.755   5.581 -1.1946  0.6110 -1.3740
  221MOL   H22149061   5.768   2.584   5.599  0.8360 -0.5910 -0.4802
  221MOL   H22249062   5.694   2.726   5.676 -0.0564 -0.0468 -0.1357
  222MOL     C149063   2.794   6.289   1.387  0.2812 -0.3487  0.1891
  222MOL     C249064   2.923   6.337   1.321 -0.7412 -0.1240  0.4375
  222MOL     O349065   2.942   6.300   1.207 -0.0701 -0.4726  0.2438
  222MOL     C449066   3.005   6.435   1.392  0.6704 -0.0907  0.8043
  222MOL     C549067   2.797   6.146   1.438  0.1208  0.4080 -0.2536
  222MOL     H649068   2.767   6.352   1.472 -0.2195 -0.6813  0.2770
  222MOL     H749069   3.022   6.528   1.339  3.0942 -1.4914 -0.9401
  222MOL     H849070   2.948   6.446   1.485  0.1581  0.9025  0.3845
  222MOL     H949071   3.106   6.395   1.404  0.5003 -0.4429  1.0888
  222MOL    H1049072   2.823   6.083   1.353  0.8628  0.4204 -0.0406
  222MOL    H1149073   2.695   6.124   1.468  0.0819 -0.3068 -0.8992
  222MOL    H1249074   2.711   6.302   1.317 -0.8610 -0.2409  1.5514
  222MOL    C1349075   2.903   6.132   1.550  0.0232 -0.1042  0.3861
  222MOL    C1449076   2.941   5.983   1.575 -0.0148 -0.6109  0.4731
  222MOL    O1549077   2.860   5.898   1.556  0.0229 -0.6581  0.1688
  222MOL    C1649078   3.073   5.942   1.650  0.5802 -0.2019  0.0764
  222MOL    C1749079   2.858   6.197   1.692  0.0724 -0.5050  0.1124
  222MOL    H1849080   2.995   6.173   1.508 -0.4275 -0.6369 -1.1378
  222MOL    H1949081   3.049   5.931   1.756 -2.5245 -0.2713 -0.5716
  222MOL    H2049082   3.114   5.845   1.624  0.9572  0.3448 -1.4388
  222MOL    H2149083   3.153   6.015   1.640  0.7416 -0.4243 -0.2313
  222MOL    H2249084   2.842   6.305   1.684 -2.7830 -0.9326 -0.4521
  222MOL    H2349085   2.952   6.197   1.748  0.4165 -0.4173 -0.4645
  222MOL    C2449086   2.733   6.135   1.767 -0.9304 -0.8808 -0.2802
  222MOL    C2549087   2.596   6.188   1.719  0.0890 -0.2745 -0.0164
  222MOL    O2649088   2.596   6.288   1.645 -0.6800  0.4764  0.1989
  222MOL    C2749089   2.460   6.129   1.757 -0.6099 -0.4038 -0.1506
  222MOL    C2849090   2.733   6.156   1.926  0.3547  0.2448 -0.2887
  222MOL    H2949091   2.731   6.026   1.754 -1.6546 -0.9034  0.0484
  222MOL    H3049092   2.414   6.206   1.820  0.2538 -1.0254  1.2501
  222MOL    H3149093   2.412   6.122   1.659  0.0031 -2.7837 -0.3011
  222MOL    H3249094   2.465   6.029   1.799  0.4865 -0.5580 -0.6460
  222MOL    H3349095   2.635   6.119   1.956  0.3026  0.5067 -0.1312
  222MOL    H3449096   2.731   6.262   1.952  0.9228  0.1380  0.1827
  222MOL    C3549097   2.834   6.075   2.006  0.2287 -0.2577 -0.3163
  222MOL    C3649098   2.783   5.948   2.069  0.5068 -0.2687  0.3975
  222MOL    O3749099   2.801   5.925   2.188 -0.4971  0.2547  0.7771
  222MOL    C3849100   2.719   5.852   1.975  1.2245 -0.0375 -0.2380
  222MOL    C3949101   2.923   6.165   2.105  0.0269 -0.4518  0.1883
  222MOL    H4049102   2.904   6.031   1.936  1.0611 -3.2074  2.2392
  222MOL    H4149103   2.655   5.783   2.030  0.6966  0.1231 -0.6408
  222MOL    H4249104   2.666   5.901   1.892 -1.6426  0.1470  1.6142
  222MOL    H4349105   2.799   5.793   1.931 -0.5834 -0.3608 -3.2576
  222MOL    H4449106   2.975   6.247   2.056  0.1558 -1.0341 -0.6526
  222MOL    H4549107   3.008   6.100   2.128  1.0097  0.3734 -1.0749
  222MOL    C4649108   2.866   6.217   2.243  0.1936 -0.3883 -0.5187
  222MOL    C4749109   2.731   6.301   2.232  0.1137  0.2563 -0.1115
  222MOL    O4849110   2.721   6.403   2.170  0.3484 -0.0977  0.6410
  222MOL    C4949111   2.623   6.255   2.330  0.7992  0.0510  0.5686
  222MOL    C5049112   2.988   6.292   2.314  0.2260 -0.0982 -0.2232
  222MOL    H5149113   2.842   6.126   2.299 -0.0665  0.3346  0.5755
  222MOL    H5249114   2.643   6.284   2.433 -1.3658 -0.0799  1.0545
  222MOL    H5349115   2.534   6.313   2.307  0.2054 -0.7827  0.7192
  222MOL    H5449116   2.602   6.148   2.327  1.4843 -0.0485 -1.7147
  222MOL    H5549117   2.995   6.396   2.283 -0.3745 -0.2066 -0.7295
  222MOL    H5649118   3.083   6.249   2.282  0.8666  1.0903  0.0702
  222MOL    C5749119   2.986   6.300   2.478  0.4159 -0.5239 -0.2238
  222MOL    C5849120   3.084   6.409   2.524  0.2197 -0.5630  0.1132
  222MOL    O5949121   3.201   6.379   2.536  0.2473 -0.6444 -0.2054
  222MOL    C6049122   3.049   6.555   2.501  0.6849 -0.3410 -0.0238
  222MOL    C6149123   3.017   6.165   2.546 -0.0556 -0.4252 -0.1506
  222MOL    H6249124   2.900   6.343   2.530  0.2997 -1.7431  0.6276
  222MOL    H6349125   2.960   6.584   2.556  0.5743  1.7081 -1.2149
  222MOL    H6449126   3.123   6.622   2.545 -0.1389  1.1211 -0.8422
  222MOL    H6549127   3.045   6.567   2.393 -1.0050  0.1349  0.0852
  222MOL    H6649128   3.105   6.163   2.609 -0.4996  1.1066  0.5304
  222MOL    H6749129   3.052   6.094   2.470  0.3689 -1.3082  0.8604
  222MOL    C6849130   2.894   6.118   2.617 -0.3554 -0.3867 -0.1414
  222MOL    C6949131   2.862   6.205   2.738 -0.2519  0.1199  0.0079
  222MOL    O7049132   2.951   6.254   2.806 -0.1243 -0.0351  0.2287
  222MOL    C7149133   2.719   6.228   2.784  0.1493 -0.1335 -0.5456
  222MOL    C7249134   2.890   5.966   2.639 -0.5967  0.0987  0.5816
  222MOL    H7349135   2.814   6.139   2.546 -1.1555 -0.3834  0.7408
  222MOL    H7449136   2.663   6.150   2.837 -0.1024  0.3192 -0.1504
  222MOL    H7549137   2.716   6.314   2.850  0.3342 -1.2827  1.0084
  222MOL    H7649138   2.654   6.252   2.700 -0.3466 -2.5206 -0.9048
  222MOL    H7749139   2.942   5.914   2.559 -0.0034 -2.1015  2.3381
  222MOL    H7849140   2.784   5.942   2.638 -0.4187 -0.6536  0.0857
  222MOL    C7949141   2.953   5.917   2.773  0.7521 -0.4026 -0.2244
  222MOL    C8049142   3.105   5.948   2.790  0.4662 -1.3108  1.0870
  222MOL    O8149143   3.177   5.921   2.695 -0.3189 -0.5914  0.4340
  222MOL    C8249144   3.167   6.024   2.907 -0.0808  0.1841  0.3344
  222MOL    C8349145   2.924   5.769   2.792  0.0917  0.7773  0.1557
  222MOL    H8449146   2.910   5.970   2.858 -1.9412 -1.2328 -1.0179
  222MOL    H8549147   3.090   6.057   2.978 -0.3456  0.6172 -0.1512
  222MOL    H8649148   3.251   5.972   2.953  0.9861  0.6335 -1.0742
  222MOL    H8749149   3.227   6.106   2.868  0.0552 -1.3098 -2.6868
  222MOL    H8849150   3.002   5.700   2.763 -0.9063 -0.9000  1.3588
  222MOL    H8949151   2.835   5.749   2.732  0.3927  1.2560 -0.4542
  222MOL    C9049152   2.893   5.726   2.940 -0.7887  0.0272  0.3599
  222MOL    C9149153   2.781   5.815   3.009 -0.0159 -0.0070 -0.6410
  222MOL    O9249154   2.787   5.850   3.128 -0.2459  0.5404  0.2804
  222MOL    C9349155   2.649   5.846   2.936 -0.7752  0.4450 -0.2335
  222MOL    C9449156   3.022   5.697   3.023  0.0460  0.1641 -0.5085
  222MOL    H9549157   2.832   5.637   2.930 -1.4981  0.6035 -0.5019
  222MOL    H9649158   2.610   5.774   2.865 -1.5660  1.6352 -1.0376
  222MOL    H9749159   2.565   5.842   3.005 -0.8984 -2.3351 -0.5115
  222MOL    H9849160   2.659   5.947   2.894  0.9823  0.7497  0.8676
  222MOL    H9949161   2.989   5.713   3.126 -0.4638 -1.9136 -0.3121
  222MOL   H10049162   3.093   5.778   3.008  0.5873 -0.4559 -1.3055
  222MOL   C10149163   3.082   5.553   3.002 -0.0469 -0.3964  1.0384
  222MOL   C10249164   3.036   5.452   3.106  0.5177  0.5368 -1.1011
  222MOL   O10349165   3.116   5.380   3.170  0.3652  0.3451  0.5081
  222MOL   C10449166   2.891   5.433   3.130 -0.0819  0.1293  0.5187
  222MOL   C10549167   3.243   5.555   2.986 -0.4158  0.8848 -0.0129
  222MOL   H10649168   3.034   5.505   2.917  0.4681  0.5284  0.2104
  222MOL   H10749169   2.851   5.533   3.140 -0.2741  0.0270  0.7857
  222MOL   H10849170   2.838   5.376   3.054 -1.1727  2.2282 -0.3255
  222MOL   H10949171   2.877   5.373   3.220 -1.3323 -0.1455  0.1426
  222MOL   H11049172   3.264   5.448   2.987 -0.9558  0.7713 -0.5804
  222MOL   H11149173   3.286   5.588   3.081  2.3409  1.7669 -1.5386
  222MOL   C11249174   3.311   5.640   2.872 -0.4600 -0.6880 -0.2774
  222MOL   C11349175   3.282   5.589   2.728  0.7687 -0.0745  0.5089
  222MOL   O11449176   3.225   5.480   2.712 -0.0280  0.1039  0.2448
  222MOL   C11549177   3.319   5.670   2.606 -0.5898  0.0521 -0.1398
  222MOL   C11649178   3.458   5.666   2.903 -0.6179 -0.5138 -0.0423
  222MOL   H11749179   3.253   5.731   2.860 -0.6545 -0.5710  1.5044
  222MOL   H11849180   3.386   5.754   2.628 -1.8087  0.7264  1.0702
  222MOL   H11949181   3.367   5.606   2.532 -0.5780 -1.6001  1.2685
  222MOL   H12049182   3.232   5.721   2.567 -1.0108  0.1185  0.8774
  222MOL   H12149183   3.462   5.717   2.999 -2.1567  1.3637 -0.9388
  222MOL   H12249184   3.502   5.734   2.830  0.5883 -0.9421  0.2811
  222MOL   C12349185   3.545   5.543   2.913  0.0309 -0.2712 -0.0411
  222MOL   C12449186   3.638   5.556   3.034 -0.2450  0.9427 -0.6943
  222MOL   O12549187   3.621   5.482   3.131  0.0416 -0.2403 -0.5655
  222MOL   C12649188   3.732   5.677   3.048 -0.5107  0.1271  0.3915
  222MOL   C12749189   3.619   5.517   2.772  0.2330 -0.6920 -0.4169
  222MOL   H12849190   3.474   5.464   2.937  0.3116  0.0332  1.8651
  222MOL   H12949191   3.768   5.702   2.948  1.7916  0.5463  1.2864
  222MOL   H13049192   3.663   5.758   3.070 -1.4695 -0.4524 -0.4308
  222MOL   H13149193   3.812   5.672   3.123  0.2249 -0.1902 -0.4007
  222MOL   H13249194   3.682   5.604   2.754  0.6434 -0.4907  1.8456
  222MOL   H13349195   3.541   5.520   2.696  0.5223 -0.2596 -0.7009
  222MOL   C13449196   3.689   5.377   2.756 -0.0605  0.1520  0.2283
  222MOL   C13549197   3.777   5.372   2.631 -0.3054 -0.1590  0.1397
  222MOL   O13649198   3.733   5.412   2.520 -0.2992  0.1389 -0.2565
  222MOL   C13749199   3.915   5.321   2.631 -0.0074  0.3933 -0.2897
  222MOL   C13849200   3.582   5.264   2.762  0.4609  0.3539  0.1080
  222MOL   H13949201   3.768   5.364   2.830  1.1144  1.1758 -0.7936
  222MOL   H14049202   3.977   5.407   2.609  2.3585 -1.3328 -0.6154
  222MOL   H14149203   3.930   5.268   2.725  0.0920  0.7671 -0.0956
  222MOL   H14249204   3.935   5.243   2.557  0.3988 -0.9913  1.2439
  222MOL   H14349205   3.532   5.263   2.665 -1.7437  0.1098  1.2139
  222MOL   H14449206   3.500   5.284   2.830  0.3089  1.3745 -0.3757
  222MOL   C14549207   3.640   5.117   2.787 -0.2478 -0.0927  0.0133
  222MOL   C14649208   3.573   5.009   2.704 -0.0316 -0.7121  0.1938
  222MOL   O14749209   3.498   4.928   2.752  0.6749 -0.1483 -0.1923
  222MOL   C14849210   3.605   4.997   2.557  0.1431  0.9739 -0.0117
  222MOL   C14949211   3.629   5.078   2.938  0.1080  0.3210 -0.3219
  222MOL   H15049212   3.742   5.108   2.752 -0.7757 -2.2513 -1.0758
  222MOL   H15149213   3.614   4.894   2.521 -2.7718  0.8111 -0.3724
  222MOL   H15249214   3.527   5.052   2.504 -1.7131 -1.0305  0.5526
  222MOL   H15349215   3.691   5.057   2.528  1.5651 -0.9322  0.1652
  222MOL   H15449216   3.652   4.972   2.940  0.0339  0.3322  1.1999
  222MOL   H15549217   3.524   5.074   2.965 -0.3988 -0.6096 -2.3514
  222MOL   C15649218   3.711   5.159   3.035 -0.2694 -0.9575  0.1693
  222MOL   C15749219   3.858   5.148   3.005  0.0006  0.9005 -0.4904
  222MOL   O15849220   3.933   5.244   2.987 -0.1023  0.6355 -0.3172
  222MOL   C15949221   3.919   5.006   3.008  0.3410  0.0351  0.4323
  222MOL   C16049222   3.676   5.106   3.173  0.8015 -0.2751 -0.0551
  222MOL   H16149223   3.674   5.262   3.030 -1.2055 -1.3643 -1.4339
  222MOL   H16249224   3.986   4.983   3.091  1.4133  1.5383  0.0222
  222MOL   H16349225   3.839   4.932   3.010 -1.0060  1.4972  1.8222
  222MOL   H16449226   3.975   4.991   2.915 -0.1500  0.2450  0.0984
  222MOL   H16549227   3.729   5.015   3.202 -0.5228 -0.4827  1.7496
  222MOL   H16649228   3.573   5.078   3.190  0.9058 -1.0812 -0.6904
  222MOL   C16749229   3.706   5.201   3.298  0.1559 -0.2023  0.6644
  222MOL   C16849230   3.854   5.235   3.320  0.3165  1.1391 -0.1958
  222MOL   O16949231   3.928   5.165   3.392 -0.3231  0.2656  0.0303
  222MOL   C17049232   3.903   5.372   3.280 -0.2976  0.1942  0.1043
  222MOL   C17149233   3.638   5.149   3.427 -0.4317 -0.0034  0.4625
  222MOL   H17249234   3.649   5.292   3.278 -0.0915 -0.7931 -1.3985
  222MOL   H17349235   3.889   5.439   3.365  0.4697  0.2262  0.2047
  222MOL   H17449236   4.010   5.366   3.260 -0.1047  3.0026  0.1188
  222MOL   H17549237   3.855   5.407   3.188 -1.3546 -2.5862 -0.4595
  222MOL   H17649238   3.687   5.063   3.471  1.3453  0.9706  0.4382
  222MOL   H17749239   3.538   5.118   3.398  0.8299 -2.8012 -1.0573
  222MOL   C17849240   3.623   5.259   3.533  0.0665  0.0034  0.4957
  222MOL   C17949241   3.735   5.252   3.639  0.9005  0.0506 -0.3986
  222MOL   O18049242   3.755   5.157   3.720  0.1596 -0.0292  0.4306
  222MOL   C18149243   3.822   5.373   3.651  0.6933 -0.5825  0.1958
  222MOL   C18249244   3.487   5.239   3.608 -0.6094 -0.1953  0.0830
  222MOL   H18349245   3.620   5.356   3.485 -1.6491 -0.2305  0.0765
  222MOL   H18449246   3.754   5.454   3.677  0.8144 -0.7379  1.0293
  222MOL   H18549247   3.899   5.375   3.729  1.2281  0.2861 -0.3474
  222MOL   H18649248   3.859   5.420   3.560  0.2251  3.5624  2.0253
  222MOL   H18749249   3.491   5.300   3.698 -0.6296 -1.5398  1.0012
  222MOL   H18849250   3.483   5.134   3.637 -0.7556 -0.0649  0.5335
  222MOL   C18949251   3.364   5.299   3.528 -0.3089  0.2775 -0.2294
  222MOL   C19049252   3.384   5.444   3.494 -0.0901 -0.4070  0.4556
  222MOL   O19149253   3.457   5.520   3.559 -0.3332 -0.5373 -0.4229
  222MOL   C19249254   3.316   5.496   3.370 -0.1602 -0.5810  0.4859
  222MOL   C19349255   3.227   5.282   3.601 -0.2326  0.6400 -0.3790
  222MOL   H19449256   3.357   5.246   3.432 -0.2656 -2.4926  1.2267
  222MOL   H19549257   3.365   5.458   3.280 -1.5149 -1.2747  0.0201
  222MOL   H19649258   3.210   5.469   3.364 -0.3893  0.4857 -0.3654
  222MOL   H19749259   3.326   5.604   3.381 -0.7429 -0.5202  0.4478
  222MOL   H19849260   3.145   5.316   3.539 -1.4973  1.4373  1.6727
  222MOL   H19949261   3.230   5.344   3.691  0.7680  1.4470 -0.9489
  222MOL   C20049262   3.196   5.140   3.662 -0.4052 -0.2268  0.6022
  222MOL   C20149263   3.220   5.034   3.553 -0.1416  0.2013  0.0738
  222MOL   O20249264   3.309   4.949   3.569 -0.0838 -0.2226 -0.0730
  222MOL   C20349265   3.131   5.036   3.431 -0.2469  0.6116  0.8829
  222MOL   C20449266   3.057   5.127   3.727  0.2252 -0.3385 -0.1690
  222MOL   H20549267   3.269   5.130   3.742 -1.7206 -0.6523  1.7652
  222MOL   H20649268   3.144   4.937   3.388 -1.4863  0.3741  1.0391
  222MOL   H20749269   3.026   5.038   3.458 -0.2252 -0.4962  1.0584
  222MOL   H20849270   3.143   5.116   3.359 -1.4583 -0.5750 -0.6585
  222MOL   H20949271   2.968   5.157   3.673  1.4606 -0.8349 -2.5166
  222MOL   H21049272   3.062   5.200   3.808  0.9439 -0.4403 -0.1218
  222MOL   C21149273   3.023   4.983   3.778 -0.6960 -0.3695 -0.0870
  222MOL   C21249274   2.874   4.972   3.831  0.4323 -0.4661  0.7549
  222MOL   O21349275   2.817   5.066   3.891 -0.7640 -0.1583  0.8259
  222MOL   C21449276   2.809   4.836   3.840  0.5317  0.0830  0.4181
  222MOL   C21549277   3.122   4.934   3.887  0.1271  0.3749 -0.5402
  222MOL   H21649278   3.020   4.914   3.694 -2.4137  1.9104 -1.9501
  222MOL   H21749279   2.864   4.755   3.791  0.2804  0.6864 -0.8775
  222MOL   H21849280   2.799   4.803   3.943 -2.3480  0.7997  0.4204
  222MOL   H21949281   2.706   4.827   3.803 -0.0194 -0.1912  1.9805
  222MOL   H22049282   3.215   4.906   3.837  1.4906 -0.8078  2.5271
  222MOL   H22149283   3.095   4.839   3.933 -0.8248  0.0796 -1.6723
  222MOL   H22249284   3.154   5.002   3.966  0.4009  0.2677 -0.5605
  223MOL     C149285   6.471   2.597   5.706  0.3033  0.0316  0.0085
  223MOL     C249286   6.466   2.733   5.776  0.9767 -0.1130  0.9349
  223MOL     O349287   6.404   2.743   5.884  0.4047  0.4499 -0.3587
  223MOL     C449288   6.540   2.851   5.712 -0.9512 -0.2106  0.2312
  223MOL     C549289   6.615   2.542   5.687  0.2452 -0.2007  0.4465
  223MOL     H649290   6.406   2.528   5.760  2.2615  0.1058  2.5660
  223MOL     H749291   6.642   2.870   5.746 -0.5220  1.4378 -1.8129
  223MOL     H849292   6.548   2.865   5.604  0.2794  1.8630  0.5519
  223MOL     H949293   6.478   2.940   5.726 -0.9078 -0.3389  1.2694
  223MOL    H1049294   6.670   2.599   5.611  1.4558 -2.0983 -0.1551
  223MOL    H1149295   6.624   2.445   5.638  1.8129  0.2309 -0.1642
  223MOL    H1249296   6.414   2.599   5.613  2.0791 -1.3970 -1.1398
  223MOL    C1349297   6.688   2.522   5.822  0.3878  0.3062  0.2502
  223MOL    C1449298   6.837   2.513   5.793 -0.4538  0.1325 -0.3621
  223MOL    O1549299   6.906   2.417   5.820 -0.4337  0.1645  0.2277
  223MOL    C1649300   6.904   2.627   5.720 -1.0023 -0.3393  0.6751
  223MOL    C1749301   6.623   2.402   5.894  0.1673  0.2892  0.3766
  223MOL    H1849302   6.677   2.616   5.876 -0.6372  0.0184  0.5396
  223MOL    H1949303   6.824   2.691   5.682  0.6257  0.8390 -0.8713
  223MOL    H2049304   6.951   2.688   5.796 -1.7427 -0.5360  1.2934
  223MOL    H2149305   6.974   2.589   5.646 -0.6197  1.4243  0.1144
  223MOL    H2249306   6.702   2.342   5.938 -1.3065 -1.5192  0.6024
  223MOL    H2349307   6.580   2.336   5.819  1.2644 -0.8077  0.7024
  223MOL    C2449308   6.510   2.424   6.001  0.5851  0.4832  0.5184
  223MOL    C2549309   6.561   2.453   6.141 -0.7741  0.4637  0.0976
  223MOL    O2649310   6.667   2.405   6.183 -0.6753 -0.0730 -0.1795
  223MOL    C2749311   6.482   2.549   6.228 -0.1903  0.2777 -0.0167
  223MOL    C2849312   6.409   2.298   6.004  0.7908 -0.1230 -0.0214
  223MOL    H2949313   6.464   2.518   5.970  2.3485  1.8530  1.9397
  223MOL    H3049314   6.385   2.502   6.245 -0.0396 -0.5623 -1.3862
  223MOL    H3149315   6.543   2.576   6.314 -1.3771 -0.1115  0.9547
  223MOL    H3249316   6.461   2.633   6.161 -3.2638 -2.1453 -2.2615
  223MOL    H3349317   6.389   2.277   6.109  0.3330  0.6809  0.0553
  223MOL    H3449318   6.456   2.210   5.960 -1.4418 -1.7465  0.7546
  223MOL    C3549319   6.277   2.327   5.926 -0.1327 -0.2996  0.4768
  223MOL    C3649320   6.177   2.413   6.008  0.1573  0.5482 -0.5347
  223MOL    O3749321   6.128   2.372   6.109 -0.2371  0.6968 -0.4698
  223MOL    C3849322   6.134   2.549   5.962  0.5718 -0.3385 -0.8762
  223MOL    C3949323   6.209   2.189   5.889  0.9658  0.2624  0.2013
  223MOL    H4049324   6.302   2.384   5.837 -1.8013  0.0950  0.2455
  223MOL    H4149325   6.118   2.549   5.855 -1.5904  2.7663 -0.6225
  223MOL    H4249326   6.041   2.582   6.010 -0.0017  0.6887 -2.6490
  223MOL    H4349327   6.212   2.623   5.978  0.4134 -0.7952  2.3955
  223MOL    H4449328   6.176   2.152   5.987  0.4458 -0.0656 -0.0936
  223MOL    H4549329   6.278   2.114   5.849 -0.7077 -0.7937 -0.7777
  223MOL    C4649330   6.101   2.190   5.778  0.2711 -0.1718  0.0770
  223MOL    C4749331   6.133   2.290   5.662 -0.4532  0.7897  0.6807
  223MOL    O4849332   6.113   2.407   5.661  0.6534  0.1682 -0.4308
  223MOL    C4949333   6.211   2.234   5.543 -0.0712 -0.1897 -0.7206
  223MOL    C5049334   5.960   2.222   5.833  0.3634  0.3827 -1.0549
  223MOL    H5149335   6.099   2.086   5.743  1.3582 -0.1964  0.0979
  223MOL    H5249336   6.318   2.256   5.545  0.4666 -2.7088  0.0538
  223MOL    H5349337   6.203   2.126   5.530  0.4796 -0.6573  2.3432
  223MOL    H5449338   6.177   2.286   5.454  0.1323  0.9259 -0.1572
  223MOL    H5549339   5.948   2.329   5.853  0.6750  0.0759  0.8705
  223MOL    H5649340   5.960   2.176   5.932  3.3428  2.3997 -0.0121
  223MOL    C5749341   5.834   2.175   5.763 -0.1669  0.1409  0.3776
  223MOL    C5849342   5.852   2.040   5.701 -0.0249 -0.0048  0.1277
  223MOL    O5949343   5.861   2.022   5.581 -0.1895  0.7313  0.1735
  223MOL    C6049344   5.851   1.918   5.784  0.0160  0.5058  0.1497
  223MOL    C6149345   5.774   2.283   5.668 -0.1361 -0.0342 -0.3086
  223MOL    H6249346   5.758   2.162   5.839  0.3454 -2.4548  0.4787
  223MOL    H6349347   5.911   1.919   5.874  0.0830  1.5857  0.0974
  223MOL    H6449348   5.750   1.886   5.812  0.7010 -0.9982  0.9517
  223MOL    H6549349   5.871   1.827   5.726 -1.0090 -0.0662  0.6663
  223MOL    H6649350   5.840   2.308   5.585  0.1070  0.0432 -0.0919
  223MOL    H6749351   5.757   2.367   5.735  0.5329 -0.3068  0.2040
  223MOL    C6849352   5.627   2.258   5.611 -0.5160  0.6611  0.5402
  223MOL    C6949353   5.621   2.265   5.457 -0.2557  0.9770 -0.1594
  223MOL    O7049354   5.608   2.372   5.396  0.0973 -0.4640  0.2058
  223MOL    C7149355   5.651   2.140   5.373 -0.2768 -0.9754  0.4824
  223MOL    C7249356   5.526   2.346   5.685  0.5790  0.8097  1.0449
  223MOL    H7349357   5.600   2.156   5.641 -3.0119  1.4560  1.0501
  223MOL    H7449358   5.627   2.046   5.422  0.7881 -1.3057  0.3877
  223MOL    H7549359   5.602   2.138   5.275  0.3861  0.4928  0.1104
  223MOL    H7649360   5.759   2.134   5.356 -0.4528 -0.1971 -0.9891
  223MOL    H7749361   5.539   2.452   5.666  0.5682  0.4291 -1.2361
  223MOL    H7849362   5.548   2.327   5.791 -2.1333 -1.7944  1.2189
  223MOL    C7949363   5.374   2.316   5.672  0.4765 -0.1638 -0.4677
  223MOL    C8049364   5.289   2.415   5.755  0.1413 -0.0188  0.2880
  223MOL    O8149365   5.221   2.504   5.696 -0.6937 -0.0281 -0.4265
  223MOL    C8249366   5.291   2.414   5.907 -0.5676 -0.6030  0.0920
  223MOL    C8349367   5.336   2.165   5.704 -0.3781 -0.0659 -0.1417
  223MOL    H8449368   5.355   2.346   5.569 -2.1248  2.0252  0.6003
  223MOL    H8549369   5.331   2.513   5.929 -0.2774 -0.3820 -1.4006
  223MOL    H8649370   5.189   2.399   5.943 -1.0642  0.7989 -0.7269
  223MOL    H8749371   5.366   2.344   5.945 -0.3526 -0.7055 -0.5239
  223MOL    H8849372   5.385   2.138   5.797  0.7970 -0.8199 -0.9659
  223MOL    H8949373   5.390   2.112   5.626 -0.1967  1.9421 -1.4367
  223MOL    C9049374   5.187   2.114   5.683 -0.1470 -0.3770 -0.3462
  223MOL    C9149375   5.145   2.012   5.792  0.5569  0.2089 -0.0935
  223MOL    O9249376   5.104   1.896   5.771 -0.5551  0.3738  0.0723
  223MOL    C9349377   5.166   2.051   5.937  0.5551 -0.0791 -0.2072
  223MOL    C9449378   5.169   2.052   5.543 -0.1599 -0.3807  0.0395
  223MOL    H9549379   5.122   2.200   5.695  0.3397  0.0350 -0.6663
  223MOL    H9649380   5.084   2.010   5.997  1.3409  0.3141  1.1591
  223MOL    H9749381   5.261   2.012   5.975 -0.5579 -1.7494  0.9679
  223MOL    H9849382   5.155   2.159   5.949 -2.2126 -0.4264  0.7798
  223MOL    H9949383   5.079   1.992   5.529 -0.3692 -0.2594  0.8504
  223MOL   H10049384   5.249   1.985   5.512 -0.8824 -1.4633  0.4593
  223MOL   C10149385   5.158   2.151   5.425 -0.2206 -0.0297  0.1794
  223MOL   C10249386   5.037   2.240   5.445 -0.0462 -0.2540 -0.0599
  223MOL   O10349387   4.924   2.191   5.474 -0.4929  0.3383 -0.5578
  223MOL   C10449388   5.044   2.386   5.431  0.2494 -0.2059 -0.4829
  223MOL   C10549389   5.175   2.089   5.287 -0.3856  0.4304  0.3934
  223MOL   H10649390   5.254   2.202   5.435  0.1015 -0.4378 -0.7595
  223MOL   H10749391   5.148   2.411   5.454  0.1080 -0.7128  0.7301
  223MOL   H10849392   5.033   2.407   5.324  1.7035 -1.8779 -0.9879
  223MOL   H10949393   4.968   2.433   5.492  0.1705 -1.3940  0.3530
  223MOL   H11049394   5.242   2.003   5.284  1.3841  1.7805  0.3122
  223MOL   H11149395   5.238   2.160   5.233  0.5515 -1.7391 -1.4380
  223MOL   C11249396   5.052   2.060   5.190  0.2361 -0.2402 -0.6312
  223MOL   C11349397   4.970   1.938   5.233  0.7971  0.1555  0.3414
  223MOL   O11449398   5.028   1.833   5.257  0.3759 -0.7146 -0.2348
  223MOL   C11549399   4.826   1.942   5.219 -0.5225 -0.0373  0.2044
  223MOL   C11649400   5.087   2.061   5.042  0.0375  0.1239  0.4623
  223MOL   H11749401   4.998   2.153   5.210  0.4398 -0.5332  1.3568
  223MOL   H11849402   4.768   1.864   5.268 -2.0024  1.1363  0.3351
  223MOL   H11949403   4.795   2.043   5.244 -1.8353  0.0406 -1.5928
  223MOL   H12049404   4.799   1.922   5.115  0.4440  0.7718 -0.2029
  223MOL   H12149405   5.114   2.165   5.025  0.1504 -0.2128 -1.4711
  223MOL   H12249406   4.996   2.047   4.985 -1.2400  0.5662  2.3425
  223MOL   C12349407   5.192   1.957   4.986 -0.1851  0.1306 -0.2947
  223MOL   C12449408   5.338   1.991   5.018  0.5210 -0.1954 -0.1208
  223MOL   O12549409   5.374   2.108   5.032  0.5257 -0.2841  0.4950
  223MOL   C12649410   5.439   1.874   5.011  0.6191 -0.0970  0.3886
  223MOL   C12749411   5.176   1.927   4.834  0.4520  0.2041 -0.7968
  223MOL   H12849412   5.181   1.859   5.033  0.8622 -0.1741 -0.6664
  223MOL   H12949413   5.461   1.851   4.906 -2.0015 -0.2558 -0.1493
  223MOL   H13049414   5.526   1.900   5.071 -0.4900  3.0242  0.7364
  223MOL   H13149415   5.387   1.791   5.057 -1.5288  0.0119 -1.7550
  223MOL   H13249416   5.103   1.848   4.818  3.1420 -1.9193 -2.9961
  223MOL   H13349417   5.267   1.873   4.811  0.1660 -0.8501  0.4951
  223MOL   C13449418   5.169   2.050   4.741  0.1767  0.0647  0.1211
  223MOL   C13549419   5.099   2.005   4.604  0.8860  0.1395 -0.0329
  223MOL   O13649420   5.123   1.899   4.551 -0.4171 -0.4684 -0.0102
  223MOL   C13749421   4.990   2.093   4.551  0.2845 -0.0765  0.2379
  223MOL   C13849422   5.303   2.136   4.714  0.1050  0.4846  0.5653
  223MOL   H13949423   5.096   2.117   4.787  1.5888  1.3440  0.5333
  223MOL   H14049424   5.041   2.148   4.472 -0.0738  0.1295  0.1526
  223MOL   H14149425   4.911   2.037   4.501  1.3263 -1.3288 -0.0224
  223MOL   H14249426   4.953   2.161   4.628  2.5231  1.5742 -0.0652
  223MOL   H14349427   5.319   2.148   4.606 -0.0792 -0.0693  0.4725
  223MOL   H14449428   5.376   2.062   4.746 -0.0223  0.5406  0.9828
  223MOL   C14549429   5.313   2.274   4.784 -0.0072  0.4216 -0.0732
  223MOL   C14649430   5.230   2.376   4.718 -0.9714 -0.3809 -0.4262
  223MOL   O14749431   5.172   2.349   4.609 -0.1447  0.7293 -0.2358
  223MOL   C14849432   5.218   2.510   4.779 -0.5652 -0.1500 -0.0843
  223MOL   C14949433   5.462   2.304   4.783  0.1671 -0.1676 -0.0347
  223MOL   H15049434   5.281   2.278   4.888  1.2131  0.0418  0.3257
  223MOL   H15149435   5.314   2.558   4.762 -1.5712  1.3016 -1.8322
  223MOL   H15249436   5.141   2.572   4.734 -0.7107 -1.8533 -2.2354
  223MOL   H15349437   5.202   2.501   4.887 -1.8449 -0.5416 -0.2981
  223MOL   H15449438   5.502   2.230   4.852 -1.5445 -4.3620 -3.3029
  223MOL   H15549439   5.475   2.394   4.843  0.4473 -0.3177  0.1257
  223MOL   C15649440   5.542   2.314   4.641 -0.3168 -0.1599 -0.3908
  223MOL   C15749441   5.611   2.185   4.607  0.3665  0.6135  0.4924
  223MOL   O15849442   5.681   2.125   4.687 -0.2954  0.1767  0.2093
  223MOL   C15949443   5.560   2.113   4.476  0.4678  0.0020 -0.0867
  223MOL   C16049444   5.641   2.436   4.639  0.3702  0.3001  0.1204
  223MOL   H16149445   5.467   2.337   4.565 -0.2766  1.2344 -0.0179
  223MOL   H16249446   5.597   2.178   4.396  1.6899  0.9591  1.2210
  223MOL   H16349447   5.604   2.014   4.469 -0.3489 -0.2000 -3.4171
  223MOL   H16449448   5.454   2.104   4.455  1.1382 -1.1270 -3.2093
  223MOL   H16549449   5.735   2.392   4.671 -0.0605 -1.0152 -0.3569
  223MOL   H16649450   5.621   2.495   4.728 -0.5724  0.2912 -0.0702
  223MOL   C16749451   5.651   2.518   4.508  0.6126 -0.2985 -0.1654
  223MOL   C16849452   5.716   2.443   4.389  0.5517 -0.5232  0.3218
  223MOL   O16949453   5.773   2.336   4.409  0.1165  0.1514  0.8930
  223MOL   C17049454   5.687   2.504   4.253 -0.2440 -0.3570 -0.2338
  223MOL   C17149455   5.695   2.661   4.530 -0.3447 -0.7645 -0.0312
  223MOL   H17249456   5.543   2.529   4.498  0.5440  0.9989  1.6939
  223MOL   H17349457   5.760   2.584   4.239 -0.0414 -0.3966  0.5600
  223MOL   H17449458   5.709   2.438   4.170  1.3660 -1.4171  1.0114
  223MOL   H17549459   5.582   2.536   4.252  0.0115  0.4947 -1.0623
  223MOL   H17649460   5.669   2.690   4.632  0.9032  0.4537 -0.0324
  223MOL   H17749461   5.647   2.726   4.456  0.9907  0.6332  0.2787
  223MOL   C17849462   5.840   2.703   4.506 -0.9911 -0.5186 -0.7009
  223MOL   C17949463   5.936   2.672   4.626  0.6330  0.0106 -0.5514
  223MOL   O18049464   5.897   2.643   4.741  0.2872  0.8514  0.7257
  223MOL   C18149465   6.090   2.673   4.599  0.1986 -0.2499 -0.3312
  223MOL   C18249466   5.854   2.855   4.465  0.2368  0.3848  0.2520
  223MOL   H18349467   5.876   2.642   4.423 -0.2141 -1.4216  0.2795
  223MOL   H18449468   6.098   2.759   4.532  0.7338 -0.1877 -0.1884
  223MOL   H18549469   6.158   2.681   4.684  0.1194 -2.0487 -0.0798
  223MOL   H18649470   6.105   2.574   4.555 -1.5974  0.4125 -2.5885
  223MOL   H18749471   5.765   2.889   4.412 -0.4646 -1.0315  0.5053
  223MOL   H18849472   5.927   2.868   4.385  1.2359 -1.3068  0.8582
  223MOL   C18949473   5.879   2.968   4.571 -0.1215 -0.0869 -0.5603
  223MOL   C19049474   5.745   2.997   4.648  0.5506  0.0734  0.0719
  223MOL   O19149475   5.652   3.062   4.602  0.1998 -0.0922 -0.5062
  223MOL   C19249476   5.729   2.932   4.785 -0.0073  0.5088 -0.2532
  223MOL   C19349477   5.928   3.094   4.504  0.4542  0.5251 -0.1807
  223MOL   H19449478   5.954   2.926   4.637 -0.7206 -0.0488  0.1510
  223MOL   H19549479   5.715   3.009   4.860 -2.6126  0.0271 -0.2087
  223MOL   H19649480   5.644   2.865   4.793 -2.1888  3.0986 -0.9743
  223MOL   H19749481   5.820   2.894   4.832 -1.0355 -2.1098 -0.3145
  223MOL   H19849482   5.890   3.183   4.554  2.1312 -0.1225  2.3286
  223MOL   H19949483   5.898   3.101   4.400  2.0354 -1.8158 -0.8332
  223MOL   C20049484   6.075   3.113   4.494 -0.3584 -0.5367  0.3618
  223MOL   C20149485   6.147   3.098   4.629  0.3537  0.5303  0.5279
  223MOL   O20249486   6.101   3.148   4.733  0.3273 -0.2566  0.9766
  223MOL   C20349487   6.278   3.010   4.625  0.0985 -0.0965  0.3193
  223MOL   C20449488   6.114   3.231   4.403  0.6371 -0.0613 -0.6804
  223MOL   H20549489   6.110   3.028   4.435  1.4851  0.5750 -0.1827
  223MOL   H20649490   6.355   3.078   4.590  0.4358 -0.1880  0.8883
  223MOL   H20749491   6.306   2.959   4.717  1.3460 -1.7743 -0.9593
  223MOL   H20849492   6.262   2.932   4.550 -1.2722  1.7209 -1.3823
  223MOL   H20949493   6.189   3.297   4.446  1.3690 -0.9984 -0.4959
  223MOL   H21049494   6.026   3.294   4.389 -0.1190 -0.6350  1.3395
  223MOL   C21149495   6.163   3.187   4.261  0.2328  0.0236 -0.0947
  223MOL   C21249496   6.306   3.149   4.268  1.0048  0.0782  0.2956
  223MOL   O21349497   6.385   3.220   4.334  0.2397  0.1909  0.1781
  223MOL   C21449498   6.353   3.035   4.179 -0.2715 -0.0807 -0.2270
  223MOL   C21549499   6.147   3.303   4.154 -1.0010 -0.1449  0.7830
  223MOL   H21649500   6.113   3.097   4.227 -0.3172  0.3527 -0.1622
  223MOL   H21749501   6.341   3.074   4.078 -2.6458 -1.1703 -0.3797
  223MOL   H21849502   6.457   3.003   4.185  0.3127  1.7414 -0.3123
  223MOL   H21949503   6.277   2.958   4.187  0.7269 -1.4724 -3.5633
  223MOL   H22049504   6.115   3.262   4.058 -1.7939  0.4380  0.7961
  223MOL   H22149505   6.248   3.339   4.135 -1.8351  1.4734 -0.6934
  223MOL   H22249506   6.089   3.392   4.181 -2.8688 -0.8551 -0.7679
  224MOL     C149507   7.445   2.137   5.664  0.1634  0.2795  0.4632
  224MOL     C249508   7.366   2.065   5.769 -0.4033 -0.1800 -0.1813
  224MOL     O349509   7.320   2.122   5.865  0.1045  0.5265  0.0363
  224MOL     C449510   7.344   1.914   5.755 -0.3185 -0.1057 -0.0075
  224MOL     C549511   7.497   2.275   5.715 -0.1498  0.1386  0.1227
  224MOL     H649512   7.528   2.076   5.629 -0.6632  0.2413 -1.4856
  224MOL     H749513   7.437   1.857   5.754 -0.1872  0.1323 -1.6435
  224MOL     H849514   7.288   1.871   5.839 -2.4478 -0.6151 -1.6540
  224MOL     H949515   7.289   1.900   5.662 -0.7729 -1.9325  0.5105
  224MOL    H1049516   7.587   2.270   5.777 -1.0692 -0.9698  1.3983
  224MOL    H1149517   7.438   2.330   5.788  0.8372  0.3660  0.7619
  224MOL    H1249518   7.379   2.165   5.582  2.7105  1.4907 -1.2514
  224MOL    C1349519   7.523   2.370   5.597  0.2580  0.1151 -0.0187
  224MOL    C1449520   7.397   2.430   5.534  0.3072  0.3865  0.1134
  224MOL    O1549521   7.335   2.385   5.434  0.3521  0.2541 -0.2298
  224MOL    C1649522   7.339   2.550   5.600  0.3822  0.8765  0.5343
  224MOL    C1749523   7.618   2.314   5.485 -0.3193 -0.9678  0.3455
  224MOL    H1849524   7.572   2.453   5.648 -0.0470  0.3868 -0.1666
  224MOL    H1949525   7.407   2.609   5.662 -0.8499  1.0447  1.7576
  224MOL    H2049526   7.312   2.618   5.519  0.2633  0.5323  0.2882
  224MOL    H2149527   7.254   2.533   5.665  0.7921  0.4369  0.9599
  224MOL    H2249528   7.592   2.369   5.394 -2.1345  0.6615  1.8230
  224MOL    H2349529   7.601   2.211   5.454  2.8527 -1.4234 -0.0240
  224MOL    C2449530   7.767   2.346   5.505  0.6211  0.0537 -0.2550
  224MOL    C2549531   7.832   2.349   5.369 -0.6130 -0.0355  0.4146
  224MOL    O2649532   0.042   2.253   5.325 -0.3910  0.2355  0.5109
  224MOL    C2749533   7.823   2.472   5.287  0.1368 -0.0769 -0.4160
  224MOL    C2849534   7.830   2.246   5.604  0.0329  0.5132  0.0021
  224MOL    H2949535   7.775   2.443   5.554 -1.0653 -0.4261  1.0331
  224MOL    H3049536   0.080   2.511   5.263  0.2299  1.9272  2.8285
  224MOL    H3149537   7.773   2.447   5.194 -0.5839  1.0891 -0.3436
  224MOL    H3249538   7.772   2.554   5.337 -0.4069 -0.7381  0.1279
  224MOL    H3349539   7.810   2.142   5.579  1.9803 -0.0527  0.7018
  224MOL    H3449540   7.784   2.241   5.703 -0.0129  0.8963  0.0017
  224MOL    C3549541   0.142   2.249   5.626 -0.2354 -0.0492 -0.2192
  224MOL    C3649542   0.199   2.121   5.690 -0.4194  1.1238 -0.3977
  224MOL    O3749543   0.239   2.112   5.807  0.0144 -0.2181 -0.3971
  224MOL    C3849544   0.214   2.008   5.594  0.8176 -0.1577 -0.1043
  224MOL    C3949545   0.195   2.374   5.706 -0.0599 -0.1314 -0.1695
  224MOL    H4049546   0.195   2.258   5.531 -0.1804  0.7334 -0.1171
  224MOL    H4149547   0.123   1.949   5.598  0.7352  0.0429  0.9584
  224MOL    H4249548   0.217   2.052   5.494 -0.7197  0.4166  0.0876
  224MOL    H4349549   0.290   1.935   5.620  1.3353  1.5485  3.4018
  224MOL    H4449550   0.289   2.342   5.749 -1.0505 -0.2529  1.9355
  224MOL    H4549551   0.115   2.395   5.777 -0.1659 -1.9937  0.2774
  224MOL    C4649552   0.231   2.501   5.622  0.2656 -0.3463 -0.4172
  224MOL    C4749553   0.340   2.471   5.520 -0.3014 -0.5415 -0.3535
  224MOL    O4849554   0.408   2.370   5.524  0.7340 -0.2873 -0.3340
  224MOL    C4949555   0.373   2.582   5.423 -0.1618  0.0282 -0.2416
  224MOL    C5049556   0.291   2.603   5.729  0.4971 -0.0801 -0.3131
  224MOL    H5149557   0.140   2.534   5.573 -0.2781  0.0035  0.8126
  224MOL    H5249558   0.298   2.660   5.430  1.3310  1.2717  3.6251
  224MOL    H5349559   0.470   2.621   5.456 -0.0398 -0.5928  0.1481
  224MOL    H5449560   0.382   2.539   5.323 -2.0595  0.3272 -0.5506
  224MOL    H5549561   0.319   2.699   5.685  1.2342  0.8208  2.0130
  224MOL    H5649562   0.379   2.563   5.778  0.0005  0.4804  1.0707
  224MOL    C5749563   0.195   2.655   5.847 -0.0213  0.0430 -0.0998
  224MOL    C5849564   0.082   2.750   5.799 -0.5490 -0.6150 -0.3761
  224MOL    O5949565   0.110   2.849   5.745 -0.7008 -0.3272  0.6158
  224MOL    C6049566   7.781   2.706   5.798 -0.4129  0.0133  0.2462
  224MOL    C6149567   0.262   2.717   5.972 -0.2483  0.7949  0.5828
  224MOL    H6249568   0.144   2.567   5.888 -0.8612  0.7625  0.4007
  224MOL    H6349569   7.775   2.597   5.798 -2.9038  0.1299  0.2390
  224MOL    H6449570   7.715   2.741   5.878  1.6640  0.6473  1.7320
  224MOL    H6549571   7.745   2.737   5.700  0.8604 -0.8650 -0.5167
  224MOL    H6649572   0.189   2.763   6.038 -0.3259 -0.4638  1.3882
  224MOL    H6749573   0.336   2.787   5.933  0.3845 -0.7664 -1.0778
  224MOL    C6849574   0.348   2.621   6.056 -0.2349  0.2729 -0.1223
  224MOL    C6949575   0.277   2.492   6.101  0.0740 -0.7965 -0.4443
  224MOL    O7049576   0.165   2.499   6.145  0.2123  0.0950  0.6110
  224MOL    C7149577   0.364   2.370   6.094  0.1652  0.4404  0.1443
  224MOL    C7249578   0.409   2.689   6.182  0.0581  0.6845  0.3445
  224MOL    H7349579   0.433   2.590   5.995 -0.2104 -0.4208  0.2553
  224MOL    H7449580   0.437   2.368   6.175 -0.5757  0.7188  0.8234
  224MOL    H7549581   0.309   2.276   6.096 -0.4598  0.6981 -3.0547
  224MOL    H7649582   0.420   2.371   6.000  1.0628 -0.3282  0.6540
  224MOL    H7749583   0.419   2.617   6.263 -0.2184  1.5451  1.1598
  224MOL    H7849584   0.334   2.756   6.225 -0.4954  0.2417  0.0805
  224MOL    C7949585   0.545   2.770   6.156 -0.1373  0.5668 -0.2465
  224MOL    C8049586   0.665   2.677   6.173  0.4541  0.5631  0.3077
  224MOL    O8149587   0.652   2.566   6.219 -0.3719  0.3025  0.5336
  224MOL    C8249588   0.800   2.726   6.126 -0.4030 -0.3616  0.3768
  224MOL    C8349589   0.563   2.887   6.258  1.9789  0.7825 -0.7135
  224MOL    H8449590   0.555   2.809   6.054  2.0185 -1.2011 -0.7656
  224MOL    H8549591   0.860   2.770   6.205 -1.6237  1.9582  0.0689
  224MOL    H8649592   0.843   2.638   6.078  0.7087  0.6640 -0.5668
  224MOL    H8749593   0.786   2.798   6.045  4.3870  0.0734 -0.2363
  224MOL    H8849594   0.600   2.843   6.351  1.8427  0.2708 -0.9032
  224MOL    H8949595   0.469   2.934   6.285 -0.3636 -2.4444 -2.8032
  224MOL    C9049596   0.660   3.001   6.221  0.1173 -0.4411  0.1038
  224MOL    C9149597   0.670   3.088   6.349  0.1737 -0.6368  0.4663
  224MOL    O9249598   0.603   3.191   6.366  0.3149  0.9139  0.2485
  224MOL    C9349599   0.753   3.031   6.463  0.2810  0.0050  1.2517
  224MOL    C9449600   0.610   3.075   6.095  0.1183 -0.1720 -0.3143
  224MOL    H9549601   0.759   2.960   6.201 -1.1070 -2.0884 -2.9923
  224MOL    H9649602   0.823   2.960   6.419 -1.2900 -0.6319 -0.2868
  224MOL    H9749603   0.810   3.113   6.506 -0.6614  1.3910 -0.0841
  224MOL    H9849604   0.689   2.984   6.537  0.0688  2.3899  2.6218
  224MOL    H9949605   0.502   3.087   6.095  0.0964 -0.3685 -0.8872
  224MOL   H10049606   0.634   3.015   6.007 -0.6863 -1.1143  0.0964
  224MOL   C10149607   0.675   3.219   6.073 -0.1845  0.2228 -0.0338
  224MOL   C10249608   0.601   3.288   5.957  0.7840  0.7924 -0.5923
  224MOL   O10349609   0.650   3.301   5.847 -0.5632  0.3040  0.0830
  224MOL   C10449610   0.468   3.356   6.006 -0.6229  0.4717 -0.5772
  224MOL   C10549611   0.828   3.212   6.057 -0.1972  0.5246  0.3318
  224MOL   H10649612   0.651   3.285   6.156 -0.4419 -0.2665  0.2804
  224MOL   H10749613   0.491   3.445   6.066  0.4712 -1.2407  1.6404
  224MOL   H10849614   0.409   3.384   5.919 -0.3429 -0.0270 -0.9254
  224MOL   H10949615   0.418   3.287   6.074 -0.3634  1.5151  0.7175
  224MOL   H11049616   0.847   3.161   5.962 -1.6776  1.2294 -0.3520
  224MOL   H11149617   0.870   3.151   6.137 -0.2919  1.5199  1.1412
  224MOL   C11249618   0.888   3.352   6.049 -0.2771  0.3810 -0.1694
  224MOL   C11349619   0.964   3.382   5.921  0.1114 -0.0126 -0.3454
  224MOL   O11449620   1.085   3.350   5.919 -0.1258 -0.6100 -0.2325
  224MOL   C11549621   0.906   3.453   5.803  0.3071  0.0094  0.2286
  224MOL   C11649622   0.958   3.392   6.184 -0.1663 -0.0825 -0.0185
  224MOL   H11749623   0.806   3.424   6.040  0.5848  1.7223  2.3303
  224MOL   H11849624   0.874   3.379   5.729  0.7360 -3.0717  2.9957
  224MOL   H11949625   0.829   3.519   5.843 -0.9431 -0.4530 -1.3403
  224MOL   H12049626   0.982   3.518   5.761 -0.3690 -1.0022 -2.6320
  224MOL   H12149627   1.035   3.462   6.154 -2.0905  1.8434 -0.6404
  224MOL   H12249628   1.007   3.299   6.212  0.1464  0.5457  1.5938
  224MOL   C12349629   0.871   3.445   6.299  0.5381 -0.4671 -0.4305
  224MOL   C12449630   0.803   3.575   6.256  0.0446  0.0771  0.5519
  224MOL   O12549631   0.685   3.587   6.245  0.2681 -0.2217  0.1766
  224MOL   C12649632   0.887   3.699   6.226  0.0420  0.1441  0.4168
  224MOL   C12749633   0.957   3.458   6.425  0.7390  0.4660 -0.0129
  224MOL   H12849634   0.789   3.377   6.324  0.4739  0.0600  0.8510
  224MOL   H12949635   0.851   3.785   6.281  1.7625  1.1346  0.0439
  224MOL   H13049636   0.989   3.690   6.263  0.3772  0.9707 -0.2848
  224MOL   H13149637   0.897   3.733   6.123  2.7621 -0.6612  0.3674
  224MOL   H13249638   1.041   3.526   6.410  1.6879 -0.5721  0.5493
  224MOL   H13349639   1.007   3.367   6.457 -0.7370 -0.4320 -0.2034
  224MOL   C13449640   0.881   3.509   6.558  0.0550 -0.0364  0.4046
  224MOL   C13549641   0.986   3.556   6.651  0.3420 -0.6714 -0.0501
  224MOL   O13649642   1.061   3.478   6.705 -0.3928 -0.1126 -0.4604
  224MOL   C13749643   1.001   3.711   6.660  0.3510  0.3127 -0.6060
  224MOL   C13849644   0.791   3.398   6.620  0.3463  0.0537  0.0048
  224MOL   H13949645   0.826   3.597   6.525  0.2850  0.1254  0.4471
  224MOL   H14049646   0.902   3.757   6.660  0.2073  0.0714  1.2246
  224MOL   H14149647   1.061   3.739   6.746 -1.8371 -0.1149  1.1074
  224MOL   H14249648   1.050   3.747   6.570  3.2727  1.0705  1.2325
  224MOL   H14349649   0.860   3.322   6.657  0.2686  0.0790  0.2017
  224MOL   H14449650   0.744   3.351   6.534  3.2275  0.6987 -2.0256
  224MOL   C14549651   0.682   3.443   6.721 -0.0065  0.5364 -0.0414
  224MOL   C14649652   0.600   3.555   6.658 -1.4223  0.1405  0.9038
  224MOL   O14749653   0.627   3.673   6.683  0.1370 -0.0854  0.5662
  224MOL   C14849654   0.481   3.532   6.559  0.3546  0.3082  1.4075
  224MOL   C14949655   0.730   3.473   6.861  0.1026  0.5853  0.1805
  224MOL   H15049656   0.608   3.363   6.729 -0.7688  1.4111  1.7180
  224MOL   H15149657   0.454   3.431   6.528  1.9581  0.0059  0.9548
  224MOL   H15249658   0.391   3.585   6.591  1.1109  2.7215 -0.3096
  224MOL   H15349659   0.516   3.577   6.466  1.7348 -3.0212  0.2605
  224MOL   H15449660   0.788   3.565   6.860 -2.0713  1.9943 -0.7112
  224MOL   H15549661   0.810   3.404   6.888 -1.0513 -0.5407  0.7611
  224MOL   C15649662   0.621   3.482   6.968 -0.4438 -0.2123  0.3405
  224MOL   C15749663   0.688   3.564   7.090  0.5842 -0.3242 -0.2460
  224MOL   O15849664   0.681   3.520   7.207  0.2232 -0.1388  0.7388
  224MOL   C15949665   0.725   3.712   7.072 -0.7600  0.1489 -0.6218
  224MOL   C16049666   0.551   3.353   7.003 -0.5466  0.1313  0.2963
  224MOL   H16149667   0.550   3.549   6.920 -0.3235 -0.4115 -0.1288
  224MOL   H16249668   0.656   3.780   7.121  1.0141  1.6763 -0.1916
  224MOL   H16349669   0.825   3.729   7.112 -0.5650 -0.9076 -0.6470
  224MOL   H16449670   0.708   3.742   6.969 -1.0349  1.2836 -0.2447
  224MOL   H16549671   0.617   3.295   7.068 -0.5644 -0.9854 -0.6625
  224MOL   H16649672   0.535   3.301   6.908 -1.2079 -0.5626  0.7827
  224MOL   C16749673   0.415   3.368   7.070 -0.0852 -0.5313 -0.1856
  224MOL   C16849674   0.368   3.224   7.111 -0.5393  0.0631 -0.1972
  224MOL   O16949675   0.274   3.168   7.045  0.1772 -0.2304  0.5234
  224MOL   C17049676   0.431   3.162   7.235 -0.0968  0.4558  0.3575
  224MOL   C17149677   0.304   3.441   6.985 -0.2681 -0.7496 -0.1571
  224MOL   H17249678   0.440   3.421   7.162  0.6015  1.9872 -1.7723
  224MOL   H17349679   0.358   3.103   7.289 -1.9185  1.6480 -0.7617
  224MOL   H17449680   0.512   3.094   7.207  0.0189  0.0061  1.7601
  224MOL   H17549681   0.464   3.245   7.298 -0.1810  0.3915  0.4831
  224MOL   H17649682   0.209   3.389   6.996 -0.5837  0.0230  0.9222
  224MOL   H17749683   0.336   3.425   6.882 -0.0124  0.1615 -0.2272
  224MOL   C17849684   0.288   3.594   6.996  0.4198 -0.1663  1.0170
  224MOL   C17949685   0.264   3.635   7.144 -0.8111 -0.2702  0.3619
  224MOL   O18049686   0.210   3.558   7.221 -0.2744 -0.1699  0.3020
  224MOL   C18149687   0.325   3.764   7.187 -0.0891  0.5098 -0.3712
  224MOL   C18249688   0.185   3.648   6.898  0.6563  0.2221  0.1054
  224MOL   H18349689   0.383   3.640   6.967 -0.0548 -0.8733 -1.7887
  224MOL   H18449690   0.360   3.751   7.289 -1.1910  1.2106  0.1107
  224MOL   H18549691   0.400   3.803   7.119  0.3866  0.6557  0.2356
  224MOL   H18649692   0.248   3.841   7.187 -0.6908 -0.0574 -2.0734
  224MOL   H18749693   0.090   3.665   6.947  1.0043  0.7941  0.5904
  224MOL   H18849694   0.158   3.564   6.835  0.8358 -0.1923  0.5755
  224MOL   C18949695   0.224   3.773   6.817 -0.2919  0.6177 -0.6277
  224MOL   C19049696   0.224   3.900   6.899 -0.1103  0.6867  0.2670
  224MOL   O19149697   0.135   3.930   6.981  0.3001  0.2333  0.1883
  224MOL   C19249698   0.326   4.009   6.859  0.3625 -0.3898 -0.0150
  224MOL   C19349699   0.128   3.793   6.699  0.6544 -0.2692  0.5128
  224MOL   H19449700   0.323   3.761   6.775 -1.2649 -0.5379 -2.6580
  224MOL   H19549701   0.389   4.049   6.938  1.9070 -0.5975 -1.1174
  224MOL   H19649702   0.389   3.976   6.777  1.2730 -0.4036  0.6865
  224MOL   H19749703   0.265   4.094   6.828  1.0639 -0.3266 -1.2529
  224MOL   H19849704   0.026   3.810   6.734  0.5863  2.2460 -0.7747
  224MOL   H19949705   0.122   3.694   6.655 -2.3249 -0.7153  1.7709
  224MOL   C20049706   0.166   3.901   6.593 -0.4948  0.6285 -0.2031
  224MOL   C20149707   0.044   3.894   6.494  0.7889  0.3102  0.0653
  224MOL   O20249708   0.045   3.829   6.391 -0.2101  0.2687 -0.4645
  224MOL   C20349709   7.757   3.955   6.539  0.3637 -0.0797  0.2487
  224MOL   C20449710   0.302   3.867   6.517  0.0695 -0.1422 -0.3510
  224MOL   H20549711   0.159   3.999   6.641  3.1694  1.0663 -0.4287
  224MOL   H20649712   7.702   3.986   6.450  1.3056  1.0601  0.0450
  224MOL   H20749713   7.707   3.882   6.603 -1.8543 -1.4546 -2.9081
  224MOL   H20849714   7.776   4.041   6.604  2.5944  0.6998 -1.3642
  224MOL   H20949715   0.287   3.774   6.461  0.0817 -0.5252  0.2722
  224MOL   H21049716   0.385   3.840   6.582  1.5306  3.5413 -0.5687
  224MOL   C21149717   0.355   3.981   6.432 -0.2017 -0.1347  0.3986
  224MOL   C21249718   0.471   3.936   6.338 -0.6061 -0.3788 -0.2333
  224MOL   O21349719   0.457   3.953   6.218  0.4791  0.4932  0.0322
  224MOL   C21449720   0.597   3.877   6.404  0.5020 -0.4958  0.0667
  224MOL   C21549721   0.399   4.101   6.512 -0.0825  0.2101 -0.4993
  224MOL   H21649722   0.277   4.032   6.377 -1.1923 -0.9024  1.0824
  224MOL   H21749723   0.564   3.789   6.459 -0.3143 -0.1568  0.1259
  224MOL   H21849724   0.668   3.852   6.325  1.1979 -1.4364  0.9661
  224MOL   H21949725   0.628   3.961   6.466  0.9982  1.8732 -3.2499
  224MOL   H22049726   0.316   4.145   6.567 -1.4882 -1.3650 -1.3523
  224MOL   H22149727   0.462   4.167   6.452  3.4453  0.8752  3.6044
  224MOL   H22249728   0.472   4.076   6.590  0.7873  1.1587 -0.9902
  225MOL     C149729   3.233   5.277   4.488 -0.3645 -0.0145 -0.4088
  225MOL     C249730   3.153   5.329   4.607 -0.0849 -0.1178  0.5062
  225MOL     O349731   3.053   5.401   4.598  0.1845  0.1879 -0.1873
  225MOL     C449732   3.226   5.305   4.739 -0.1200 -0.2844 -0.3828
  225MOL     C549733   3.177   5.313   4.354 -0.5505 -0.3336 -0.7553
  225MOL     H649734   3.335   5.314   4.499 -0.1026 -0.8927  0.2392
  225MOL     H749735   3.217   5.198   4.757 -0.3882 -0.4351 -1.3649
  225MOL     H849736   3.329   5.341   4.741 -1.0551  2.5104 -0.1356
  225MOL     H949737   3.177   5.365   4.815  0.9987  1.1794 -0.8012
  225MOL    H1049738   3.251   5.273   4.284 -2.5938 -0.6788 -2.7605
  225MOL    H1149739   3.176   5.422   4.342  2.9573 -0.1998 -0.3325
  225MOL    H1249740   3.246   5.169   4.495  0.7197  0.2140  1.3925
  225MOL    C1349741   3.036   5.273   4.309  0.6961 -0.3265 -0.1516
  225MOL    C1449742   3.026   5.128   4.252 -0.5833  0.6697  0.9362
  225MOL    O1549743   3.118   5.088   4.178  0.4503  0.3188  0.5212
  225MOL    C1649744   2.893   5.063   4.263  0.3395 -0.0755  0.2230
  225MOL    C1749745   2.969   5.381   4.209 -0.4562  0.5483  0.2268
  225MOL    H1849746   2.981   5.282   4.403 -0.3056  0.4588 -0.8071
  225MOL    H1949747   2.853   5.032   4.166 -1.6933 -0.0113  1.0204
  225MOL    H2049748   2.893   4.973   4.325 -0.1077  0.7170  1.3950
  225MOL    H2149749   2.819   5.137   4.294 -1.1852 -0.9342 -1.2641
  225MOL    H2249750   2.886   5.340   4.153  0.8102  0.4895 -1.6495
  225MOL    H2349751   3.054   5.397   4.143  1.7354 -0.2561  2.7526
  225MOL    C2449752   2.933   5.516   4.272  0.2113 -0.1583 -0.0166
  225MOL    C2549753   2.796   5.500   4.355 -0.2419 -0.7062  0.1643
  225MOL    O2649754   2.698   5.430   4.323  0.1588  0.1494  0.7830
  225MOL    C2749755   2.791   5.573   4.486  0.3384  0.1991 -1.0879
  225MOL    C2849756   2.924   5.639   4.176 -0.0454  0.3455  0.4006
  225MOL    H2949757   3.017   5.548   4.334 -0.0190 -1.2117  0.8513
  225MOL    H3049758   2.790   5.500   4.567 -1.3012  0.0458 -1.2291
  225MOL    H3149759   2.880   5.636   4.492 -0.3187  1.2370 -2.1906
  225MOL    H3249760   2.716   5.652   4.483 -1.8758 -1.7080  1.7388
  225MOL    H3349761   2.820   5.654   4.147 -0.2137  0.5069  1.0823
  225MOL    H3449762   2.987   5.637   4.087  2.6591  0.0575  2.2438
  225MOL    C3549763   2.963   5.773   4.243 -0.3043 -0.0112 -0.2261
  225MOL    C3649764   2.868   5.883   4.202 -0.3198 -0.3855  0.4652
  225MOL    O3749765   2.860   5.909   4.082 -0.2919 -0.3539 -0.7202
  225MOL    C3849766   2.777   5.945   4.312 -0.0460 -0.1396  0.2772
  225MOL    C3949767   3.109   5.813   4.218 -0.4865 -0.5980  0.6760
  225MOL    H4049768   2.941   5.773   4.350 -0.6149  0.4324 -0.2871
  225MOL    H4149769   2.835   5.958   4.403  1.5436 -0.2941 -0.6969
  225MOL    H4249770   2.734   6.037   4.272  0.4988  0.7582  1.7099
  225MOL    H4349771   2.697   5.875   4.336  0.2019 -1.2703 -2.0645
  225MOL    H4449772   3.132   5.916   4.247 -0.9227 -0.8428  1.9341
  225MOL    H4549773   3.118   5.818   4.109 -0.9567  1.3552  0.6990
  225MOL    C4649774   3.220   5.723   4.281  0.4866  0.5889 -0.5040
  225MOL    C4749775   3.219   5.725   4.436 -0.2646 -0.6400 -0.2541
  225MOL    O4849776   3.131   5.786   4.497 -0.5611 -0.7886  0.2070
  225MOL    C4949777   3.327   5.643   4.508 -0.5249  0.2277 -0.7676
  225MOL    C5049778   3.359   5.737   4.217  0.2412  0.1495  0.2315
  225MOL    H5149779   3.190   5.620   4.261  0.3054  0.6983 -0.7884
  225MOL    H5249780   3.389   5.721   4.551  0.7205 -0.0845 -1.9656
  225MOL    H5349781   3.285   5.587   4.592 -0.3198 -0.3566 -1.0470
  225MOL    H5449782   3.384   5.577   4.442  2.0268  1.0578  0.5639
  225MOL    H5549783   3.449   5.705   4.270  0.6448  1.4219  0.3247
  225MOL    H5649784   3.375   5.843   4.199  2.1106 -0.4243 -1.7924
  225MOL    C5749785   3.369   5.654   4.081  0.1571  0.2251  0.0611
  225MOL    C5849786   3.369   5.504   4.098  0.6405  0.1878 -0.5412
  225MOL    O5949787   3.420   5.459   4.201 -0.1195  0.4986 -0.4632
  225MOL    C6049788   3.297   5.417   3.993  0.1222  0.2938  0.1292
  225MOL    C6149789   3.499   5.692   4.004  0.5124 -0.6948 -0.2093
  225MOL    H6249790   3.280   5.674   4.021 -0.5387 -1.2079  0.5946
  225MOL    H6349791   3.359   5.405   3.904 -1.0157 -1.5743 -0.4497
  225MOL    H6449792   3.272   5.316   4.025  0.3356  0.3663  0.5186
  225MOL    H6549793   3.213   5.480   3.964 -0.2310  0.8606  2.2898
  225MOL    H6649794   3.509   5.632   3.914 -1.7277 -1.8047  0.2408
  225MOL    H6749795   3.585   5.660   4.063  0.0490 -1.5834 -0.0066
  225MOL    C6849796   3.524   5.841   3.959  0.1097  0.1492  0.2502
  225MOL    C6949797   3.401   5.893   3.877 -1.0267 -0.1144  1.1526
  225MOL    O7049798   3.335   5.821   3.801  0.0144 -0.5181 -0.8794
  225MOL    C7149799   3.384   6.043   3.888 -0.1575 -0.3421 -0.2362
  225MOL    C7249800   3.653   5.859   3.883 -0.7673  0.2714 -0.1290
  225MOL    H7349801   3.530   5.914   4.040 -2.2635  0.7469 -0.0507
  225MOL    H7449802   3.341   6.076   3.793 -1.2502  0.8653  0.6603
  225MOL    H7549803   3.304   6.073   3.955  0.1732  2.1508 -0.9031
  225MOL    H7649804   3.473   6.093   3.927 -0.0609 -1.4518  0.9895
  225MOL    H7749805   3.660   5.964   3.852  0.2677 -0.0182 -0.9292
  225MOL    H7849806   3.641   5.799   3.793 -0.7937 -0.2756  0.2396
  225MOL    C7949807   3.788   5.834   3.955 -0.0608  0.1127  0.2085
  225MOL    C8049808   3.806   5.905   4.089  0.0676  0.0871  0.0327
  225MOL    O8149809   3.865   6.008   4.101  0.6561 -0.1122 -0.0051
  225MOL    C8249810   3.748   5.838   4.214 -0.0671  0.3032  1.1101
  225MOL    C8349811   3.902   5.873   3.854  0.2844  0.6002  0.1850
  225MOL    H8449812   3.800   5.728   3.979 -1.4083 -0.1114 -0.0779
  225MOL    H8549813   3.815   5.846   4.299  2.8231 -1.8556 -0.8955
  225MOL    H8649814   3.655   5.895   4.220  0.3988  1.1537  0.4336
  225MOL    H8749815   3.728   5.732   4.197 -0.5417  0.3966  1.0706
  225MOL    H8849816   3.901   5.981   3.841  0.7869  0.6391  0.4718
  225MOL    H8949817   3.867   5.842   3.755  0.9610 -0.6462  0.3294
  225MOL    C9049818   4.043   5.828   3.889  0.1057  0.0124 -0.6971
  225MOL    C9149819   4.145   5.897   3.795  0.3605 -0.8294  0.5512
  225MOL    O9249820   4.110   5.936   3.686  0.1753 -0.1488 -0.2309
  225MOL    C9349821   4.282   5.938   3.853  0.4225  0.4693  0.3321
  225MOL    C9449822   4.054   5.675   3.885  0.1795  0.1701 -0.0178
  225MOL    H9549823   4.056   5.868   3.990 -4.0174  2.0600 -0.8432
  225MOL    H9649824   4.360   5.873   3.812 -0.2633  1.1927 -2.1957
  225MOL    H9749825   4.299   6.041   3.824  1.0949 -0.0352 -1.1266
  225MOL    H9849826   4.279   5.945   3.962  1.4028  1.6241  0.2870
  225MOL    H9949827   4.149   5.644   3.840 -1.0945 -2.4026 -1.0066
  225MOL   H10049828   3.985   5.633   3.812  0.2371  1.5179 -0.8666
  225MOL   C10149829   4.041   5.595   4.019  0.3077  0.1826 -0.4397
  225MOL   C10249830   4.154   5.636   4.113  0.4807  1.0790  0.3030
  225MOL   O10349831   4.270   5.605   4.087 -0.4727 -0.0163 -0.0168
  225MOL   C10449832   4.120   5.719   4.238 -0.2251 -0.0460  0.6243
  225MOL   C10549833   4.041   5.439   4.006  0.4497 -0.3493 -0.4627
  225MOL   H10649834   3.943   5.616   4.062 -0.1932  0.5947 -1.7469
  225MOL   H10749835   4.088   5.816   4.200  2.4618  0.6476  0.0125
  225MOL   H10849836   4.043   5.667   4.294 -0.4658 -0.3042  0.0561
  225MOL   H10949837   4.208   5.726   4.302  1.2099  0.3747 -1.3417
  225MOL   H11049838   4.143   5.401   4.014  0.4989 -0.1688 -0.2428
  225MOL   H11149839   4.015   5.412   3.903  1.5303  1.0306 -1.1179
  225MOL   C11249840   3.944   5.360   4.097 -0.7088 -0.6076  1.1120
  225MOL   C11349841   3.796   5.377   4.053  0.6773  0.2581  0.0456
  225MOL   O11449842   3.758   5.437   3.952 -0.1236 -0.0215 -0.4982
  225MOL   C11549843   3.695   5.293   4.140 -0.0092  0.0297  0.3445
  225MOL   C11649844   3.981   5.382   4.242  0.1528 -0.2595 -0.6143
  225MOL   H11749845   3.966   5.255   4.080  2.1953  0.1374 -0.0293
  225MOL   H11849846   3.715   5.186   4.136 -2.8113 -0.5518  0.8795
  225MOL   H11949847   3.674   5.323   4.243 -1.3175  0.9449 -0.1685
  225MOL   H12049848   3.597   5.297   4.092  0.5110 -0.1095 -0.7422
  225MOL   H12149849   3.890   5.350   4.294 -0.5233  2.5870  0.0087
  225MOL   H12249850   3.978   5.489   4.261 -1.1196 -0.1321 -1.4547
  225MOL   C12349851   4.107   5.311   4.295  0.2491 -0.3520 -0.0606
  225MOL   C12449852   4.076   5.173   4.349  0.5149  0.2410  0.3436
  225MOL   O12549853   3.986   5.160   4.431  0.6047  0.6407  0.2611
  225MOL   C12649854   4.165   5.054   4.316  0.0496 -0.5749  0.1143
  225MOL   C12749855   4.175   5.394   4.414 -0.0847 -0.2762  0.4576
  225MOL   H12849856   4.170   5.306   4.207  0.5066  1.4706  0.0016
  225MOL   H12949857   4.111   4.970   4.275  1.4007  0.0532 -3.0925
  225MOL   H13049858   4.244   5.078   4.245  0.2460 -1.6887 -0.0506
  225MOL   H13149859   4.214   5.010   4.403  0.4386 -0.4577 -0.0474
  225MOL   H13249860   4.121   5.386   4.508  0.6371 -1.2679  0.7970
  225MOL   H13349861   4.183   5.501   4.390  0.9340 -0.7415 -1.4257
  225MOL   C13449862   4.323   5.363   4.449  0.2530  0.2697 -0.2448
  225MOL   C13549863   4.337   5.372   4.602  0.3359  0.3582  0.3205
  225MOL   O13649864   4.402   5.460   4.659 -0.7871 -0.2902 -0.2085
  225MOL   C13749865   4.263   5.266   4.680 -0.5991  0.4169 -0.1742
  225MOL   C13849866   4.430   5.442   4.377 -0.8681  0.0307  0.4044
  225MOL   H13949867   4.347   5.258   4.431  0.5447  0.6178 -1.9535
  225MOL   H14049868   4.328   5.184   4.708 -0.1523  0.2726 -1.5916
  225MOL   H14149869   4.238   5.313   4.775 -0.7844 -0.6399  0.2962
  225MOL   H14249870   4.168   5.237   4.635 -1.1834  1.5679  0.2965
  225MOL   H14349871   4.439   5.533   4.436  0.8404 -0.7313  1.3522
  225MOL   H14449872   4.405   5.467   4.274  0.7433 -2.0567 -0.5350
  225MOL   C14549873   4.571   5.373   4.376  0.3033 -0.0818  0.1347
  225MOL   C14649874   4.682   5.481   4.383  0.4547  0.0184 -0.2993
  225MOL   O14749875   4.743   5.519   4.277 -0.4396 -0.5862 -0.5329
  225MOL   C14849876   4.701   5.533   4.517 -0.5288  0.2643  0.5554
  225MOL   C14949877   4.582   5.289   4.240  0.6419  0.1821 -0.1007
  225MOL   H15049878   4.577   5.296   4.454  3.3450  0.6720  0.6979
  225MOL   H15149879   4.779   5.609   4.528 -1.5903  1.0561  3.2540
  225MOL   H15249880   4.624   5.601   4.554  1.3014  1.5826  2.0533
  225MOL   H15349881   4.713   5.457   4.594  0.3602  1.2583  1.4285
  225MOL   H15449882   4.571   5.350   4.151  0.6880 -0.6772 -0.6989
  225MOL   H15549883   4.489   5.233   4.229  0.3507  0.8354 -0.9793
  225MOL   C15649884   4.693   5.179   4.233  1.1616 -0.6630 -0.0468
  225MOL   C15749885   4.748   5.160   4.085  1.0836  0.3199  0.0210
  225MOL   O15849886   4.713   5.065   4.014  0.6171 -0.2370 -0.2751
  225MOL   C15949887   4.852   5.263   4.047  0.3578 -0.2655  0.6741
  225MOL   C16049888   4.642   5.054   4.299  0.2430 -0.4882  0.0189
  225MOL   H16149889   4.770   5.215   4.301  0.6215  0.6054 -0.0904
  225MOL   H16249890   4.819   5.367   4.052  2.8841  0.5449  1.5814
  225MOL   H16349891   4.939   5.266   4.113  0.2550  0.3580  0.7845
  225MOL   H16449892   4.898   5.239   3.952 -1.0192  1.2678 -0.4069
  225MOL   H16549893   4.561   5.021   4.235 -1.7607  2.5990  0.8892
  225MOL   H16649894   4.587   5.080   4.390 -1.9965  0.6572 -1.6300
  225MOL   C16749895   4.752   4.952   4.338  0.0950 -0.4354  0.4796
  225MOL   C16849896   4.689   4.810   4.349  0.1263 -0.0730  0.0077
  225MOL   O16949897   4.750   4.718   4.304 -0.7517 -0.3532 -0.0183
  225MOL   C17049898   4.551   4.791   4.416 -0.0564 -0.1381  0.1719
  225MOL   C17149899   4.826   4.996   4.469  0.4175  0.1089  0.2730
  225MOL   H17249900   4.818   4.948   4.251 -0.8885  1.1423 -0.3590
  225MOL   H17349901   4.477   4.855   4.368  0.9177  1.1446  0.3475
  225MOL   H17449902   4.524   4.689   4.388 -0.5912 -0.9903  3.5182
  225MOL   H17549903   4.541   4.809   4.523  1.7400 -1.7481  0.6224
  225MOL   H17649904   4.753   5.002   4.550  0.1545  2.3894 -0.1147
  225MOL   H17749905   4.851   5.102   4.465  2.4969 -0.3447  0.2127
  225MOL   C17849906   4.955   4.917   4.516  0.2233 -0.0070  0.1084
  225MOL   C17949907   4.919   4.782   4.586 -0.1867 -0.1751 -0.1449
  225MOL   O18049908   4.861   4.782   4.689 -0.0821  0.0647  0.4568
  225MOL   C18149909   4.970   4.650   4.520  0.1545  0.2997 -0.2555
  225MOL   C18249910   5.052   5.009   4.592  0.6987 -0.0836 -0.3221
  225MOL   H18349911   5.006   4.896   4.423  1.4551  0.9374  0.5578
  225MOL   H18449912   5.042   4.663   4.439 -1.3242  0.4937 -1.5753
  225MOL   H18549913   5.014   4.587   4.597 -3.3263 -2.2691 -0.2302
  225MOL   H18649914   4.888   4.588   4.483  0.9086 -0.3746 -0.8129
  225MOL   H18749915   5.082   5.089   4.523  1.0254 -1.0139 -1.2716
  225MOL   H18849916   5.140   4.956   4.628  0.6165 -1.9640 -2.7451
  225MOL   C18949917   4.996   5.075   4.725  0.2603 -0.1904 -0.1084
  225MOL   C19049918   4.938   5.218   4.696 -0.2796  0.6544  0.2338
  225MOL   O19149919   4.997   5.295   4.618  0.0742 -0.8427 -0.1296
  225MOL   C19249920   4.809   5.263   4.759 -0.1275  0.4934  0.2996
  225MOL   C19349921   5.100   5.089   4.842 -0.1288 -0.0502 -0.5540
  225MOL   H19449922   4.916   5.012   4.765  0.9743 -0.1431  1.4606
  225MOL   H19549923   4.818   5.371   4.773  0.8247  0.5473 -0.6840
  225MOL   H19649924   4.719   5.242   4.702  0.2881 -2.1174  0.5440
  225MOL   H19749925   4.803   5.211   4.855  1.5684  0.9037  0.6473
  225MOL   H19849926   5.055   5.156   4.915  0.1423  1.0167 -1.3612
  225MOL   H19949927   5.188   5.144   4.807  0.0060  0.5825  0.7496
  225MOL   C20049928   5.132   4.950   4.908 -0.4427  0.3700  0.1857
  225MOL   C20149929   5.017   4.885   4.978  0.3352 -0.6741  0.0491
  225MOL   O20249930   4.918   4.956   5.004 -0.1987  0.0741 -0.1858
  225MOL   C20349931   5.018   4.730   4.990  1.3576 -1.0470 -0.3606
  225MOL   C20449932   5.244   4.980   5.021 -0.1335  0.3007 -0.3074
  225MOL   H20549933   5.175   4.875   4.842 -1.5567  0.5500 -0.7463
  225MOL   H20649934   4.922   4.705   4.946  1.6411 -1.9330 -0.4824
  225MOL   H20749935   5.103   4.690   4.934  1.2929  0.0927 -1.2838
  225MOL   H20849936   5.020   4.693   5.093 -0.1410 -1.7498 -0.5736
  225MOL   H20949937   5.194   5.017   5.111  0.8410 -0.0995  0.4087
  225MOL   H21049938   5.313   5.059   4.993 -0.0239 -0.0608 -1.0554
  225MOL   C21149939   5.320   4.848   5.066 -0.2126  0.2977  0.2146
  225MOL   C21249940   5.435   4.873   5.155 -0.1593 -0.1308 -0.8772
  225MOL   O21349941   5.518   4.956   5.114 -0.1608 -0.0267 -0.4054
  225MOL   C21449942   5.454   4.785   5.275 -0.0683 -0.3691  0.7861
  225MOL   C21549943   5.377   4.776   4.947  0.1176  0.4858 -0.4275
  225MOL   H21649944   5.250   4.783   5.120 -1.3487  1.5060  0.2382
  225MOL   H21749945   5.525   4.837   5.338  0.8181  1.6495 -1.7710
  225MOL   H21849946   5.365   4.763   5.333  0.8795 -1.2903  1.9217
  225MOL   H21949947   5.504   4.694   5.240 -1.7341 -1.0261  0.0275
  225MOL   H22049948   5.420   4.838   4.869  0.0333 -0.3921 -1.1874
  225MOL   H22149949   5.299   4.719   4.898  0.1151  0.6850 -0.6549
  225MOL   H22249950   5.460   4.714   4.982 -0.8724  0.5507  2.1626
   7.84197   7.84197   7.84197
