;
; Gromacs include topology (itp) file.
; For Molecular Group RES
; Force field scheme: opls2005
; Produced from DL_FIELD v4.13
;


[ moleculetype ]
; name    nrexcl
RES    3

[ atoms ]
; nr   type   resnr   residu    atom    cgnr    charge    mass
    1       OAL    1  RES      O1     1  -0.6830000   15.9994
    2        CT    1  RES      C2     2   0.1450000   12.0115
    3        CT    1  RES      C3     3   0.1700000   12.0115
    4        CT    1  RES      C4     4   0.1400000   12.0115
    5        OS    1  RES      O5     5  -0.4000000   15.9994
    6        CT    1  RES      C6     6   0.1100000   12.0115
    7        HC    1  RES      H7     7   0.0600000    1.0080
    8        HC    1  RES      H8     8   0.0600000    1.0080
    9        HC    1  RES      H9     9   0.0300000    1.0080
   10        HC    1  RES     H10    10   0.0300000    1.0080
   11        HC    1  RES     H11    11   0.0300000    1.0080
   12        HC    1  RES     H12    12   0.0300000    1.0080
   13        HC    1  RES     H13    13   0.0300000    1.0080
   14        HC    1  RES     H14    14   0.0300000    1.0080
   15        HO    1  RES     H15    15   0.4180000    1.0080
   16        OS    1  RES     O16    16  -0.4000000   15.9994
   17        CT    1  RES     C17    17   0.1400000   12.0115
   18        CT    1  RES     C18    18   0.1700000   12.0115
   19        CT    1  RES     C19    19   0.1400000   12.0115
   20        OS    1  RES     O20    20  -0.4000000   15.9994
   21        CT    1  RES     C21    21   0.1100000   12.0115
   22        HC    1  RES     H22    22   0.0300000    1.0080
   23        HC    1  RES     H23    23   0.0300000    1.0080
   24        HC    1  RES     H24    24   0.0300000    1.0080
   25        HC    1  RES     H25    25   0.0300000    1.0080
   26        HC    1  RES     H26    26   0.0300000    1.0080
   27        HC    1  RES     H27    27   0.0300000    1.0080
   28        HC    1  RES     H28    28   0.0300000    1.0080
   29        HC    1  RES     H29    29   0.0300000    1.0080
   30        OS    1  RES     O30    30  -0.4000000   15.9994
   31        CT    1  RES     C31    31   0.1400000   12.0115
   32        CT    1  RES     C32    32   0.1700000   12.0115
   33        CT    1  RES     C33    33   0.1400000   12.0115
   34        OS    1  RES     O34    34  -0.4000000   15.9994
   35        CT    1  RES     C35    35   0.1100000   12.0115
   36        HC    1  RES     H36    36   0.0300000    1.0080
   37        HC    1  RES     H37    37   0.0300000    1.0080
   38        HC    1  RES     H38    38   0.0300000    1.0080
   39        HC    1  RES     H39    39   0.0300000    1.0080
   40        HC    1  RES     H40    40   0.0300000    1.0080
   41        HC    1  RES     H41    41   0.0300000    1.0080
   42        HC    1  RES     H42    42   0.0300000    1.0080
   43        HC    1  RES     H43    43   0.0300000    1.0080
   44        OS    1  RES     O44    44  -0.4000000   15.9994
   45        CT    1  RES     C45    45   0.1400000   12.0115
   46        CT    1  RES     C46    46   0.1700000   12.0115
   47        CT    1  RES     C47    47   0.1400000   12.0115
   48        OS    1  RES     O48    48  -0.4000000   15.9994
   49        CT    1  RES     C49    49   0.1100000   12.0115
   50        HC    1  RES     H50    50   0.0300000    1.0080
   51        HC    1  RES     H51    51   0.0300000    1.0080
   52        HC    1  RES     H52    52   0.0300000    1.0080
   53        HC    1  RES     H53    53   0.0300000    1.0080
   54        HC    1  RES     H54    54   0.0300000    1.0080
   55        HC    1  RES     H55    55   0.0300000    1.0080
   56        HC    1  RES     H56    56   0.0300000    1.0080
   57        HC    1  RES     H57    57   0.0300000    1.0080
   58        OS    1  RES     O58    58  -0.4000000   15.9994
   59        CT    1  RES     C59    59   0.1400000   12.0115
   60        CT    1  RES     C60    60   0.1700000   12.0115
   61        CT    1  RES     C61    61   0.1400000   12.0115
   62        OS    1  RES     O62    62  -0.4000000   15.9994
   63        CT    1  RES     C63    63   0.1100000   12.0115
   64        HC    1  RES     H64    64   0.0300000    1.0080
   65        HC    1  RES     H65    65   0.0300000    1.0080
   66        HC    1  RES     H66    66   0.0300000    1.0080
   67        HC    1  RES     H67    67   0.0300000    1.0080
   68        HC    1  RES     H68    68   0.0300000    1.0080
   69        HC    1  RES     H69    69   0.0300000    1.0080
   70        HC    1  RES     H70    70   0.0300000    1.0080
   71        HC    1  RES     H71    71   0.0300000    1.0080
   72        OS    1  RES     O72    72  -0.4000000   15.9994
   73        CT    1  RES     C73    73   0.1400000   12.0115
   74        CT    1  RES     C74    74   0.1700000   12.0115
   75        CT    1  RES     C75    75   0.1400000   12.0115
   76        OS    1  RES     O76    76  -0.4000000   15.9994
   77        CT    1  RES     C77    77   0.1100000   12.0115
   78        HC    1  RES     H78    78   0.0300000    1.0080
   79        HC    1  RES     H79    79   0.0300000    1.0080
   80        HC    1  RES     H80    80   0.0300000    1.0080
   81        HC    1  RES     H81    81   0.0300000    1.0080
   82        HC    1  RES     H82    82   0.0300000    1.0080
   83        HC    1  RES     H83    83   0.0300000    1.0080
   84        HC    1  RES     H84    84   0.0300000    1.0080
   85        HC    1  RES     H85    85   0.0300000    1.0080
   86        OS    1  RES     O86    86  -0.4000000   15.9994
   87        CT    1  RES     C87    87   0.1400000   12.0115
   88        CT    1  RES     C88    88   0.1700000   12.0115
   89        CT    1  RES     C89    89   0.1400000   12.0115
   90        OS    1  RES     O90    90  -0.4000000   15.9994
   91        CT    1  RES     C91    91   0.1100000   12.0115
   92        HC    1  RES     H92    92   0.0300000    1.0080
   93        HC    1  RES     H93    93   0.0300000    1.0080
   94        HC    1  RES     H94    94   0.0300000    1.0080
   95        HC    1  RES     H95    95   0.0300000    1.0080
   96        HC    1  RES     H96    96   0.0300000    1.0080
   97        HC    1  RES     H97    97   0.0300000    1.0080
   98        HC    1  RES     H98    98   0.0300000    1.0080
   99        HC    1  RES     H99    99   0.0300000    1.0080
  100        OS    1  RES    O100   100  -0.4000000   15.9994
  101        CT    1  RES    C101   101   0.1400000   12.0115
  102        CT    1  RES    C102   102   0.1700000   12.0115
  103        CT    1  RES    C103   103   0.1400000   12.0115
  104        OS    1  RES    O104   104  -0.4000000   15.9994
  105        CT    1  RES    C105   105   0.1100000   12.0115
  106        HC    1  RES    H106   106   0.0300000    1.0080
  107        HC    1  RES    H107   107   0.0300000    1.0080
  108        HC    1  RES    H108   108   0.0300000    1.0080
  109        HC    1  RES    H109   109   0.0300000    1.0080
  110        HC    1  RES    H110   110   0.0300000    1.0080
  111        HC    1  RES    H111   111   0.0300000    1.0080
  112        HC    1  RES    H112   112   0.0300000    1.0080
  113        HC    1  RES    H113   113   0.0300000    1.0080
  114        OS    1  RES    O114   114  -0.4000000   15.9994
  115        CT    1  RES    C115   115   0.1400000   12.0115
  116        CT    1  RES    C116   116   0.1700000   12.0115
  117        CT    1  RES    C117   117   0.1400000   12.0115
  118        OS    1  RES    O118   118  -0.4000000   15.9994
  119        CT    1  RES    C119   119   0.1100000   12.0115
  120        HC    1  RES    H120   120   0.0300000    1.0080
  121        HC    1  RES    H121   121   0.0300000    1.0080
  122        HC    1  RES    H122   122   0.0300000    1.0080
  123        HC    1  RES    H123   123   0.0300000    1.0080
  124        HC    1  RES    H124   124   0.0300000    1.0080
  125        HC    1  RES    H125   125   0.0300000    1.0080
  126        HC    1  RES    H126   126   0.0300000    1.0080
  127        HC    1  RES    H127   127   0.0300000    1.0080
  128        OS    1  RES    O128   128  -0.4000000   15.9994
  129        CT    1  RES    C129   129   0.1400000   12.0115
  130        CT    1  RES    C130   130   0.1700000   12.0115
  131        CT    1  RES    C131   131   0.1400000   12.0115
  132        OS    1  RES    O132   132  -0.4000000   15.9994
  133        CT    1  RES    C133   133   0.1100000   12.0115
  134        HC    1  RES    H134   134   0.0300000    1.0080
  135        HC    1  RES    H135   135   0.0300000    1.0080
  136        HC    1  RES    H136   136   0.0300000    1.0080
  137        HC    1  RES    H137   137   0.0300000    1.0080
  138        HC    1  RES    H138   138   0.0300000    1.0080
  139        HC    1  RES    H139   139   0.0300000    1.0080
  140        HC    1  RES    H140   140   0.0300000    1.0080
  141        HC    1  RES    H141   141   0.0300000    1.0080
  142        OS    1  RES    O142   142  -0.4000000   15.9994
  143        CT    1  RES    C143   143   0.1400000   12.0115
  144        CT    1  RES    C144   144   0.1700000   12.0115
  145        CT    1  RES    C145   145   0.1400000   12.0115
  146        OS    1  RES    O146   146  -0.4000000   15.9994
  147        CT    1  RES    C147   147   0.1100000   12.0115
  148        HC    1  RES    H148   148   0.0300000    1.0080
  149        HC    1  RES    H149   149   0.0300000    1.0080
  150        HC    1  RES    H150   150   0.0300000    1.0080
  151        HC    1  RES    H151   151   0.0300000    1.0080
  152        HC    1  RES    H152   152   0.0300000    1.0080
  153        HC    1  RES    H153   153   0.0300000    1.0080
  154        HC    1  RES    H154   154   0.0300000    1.0080
  155        HC    1  RES    H155   155   0.0300000    1.0080
  156        OS    1  RES    O156   156  -0.4000000   15.9994
  157        CT    1  RES    C157   157   0.1400000   12.0115
  158        CT    1  RES    C158   158   0.1700000   12.0115
  159        CT    1  RES    C159   159   0.1400000   12.0115
  160        OS    1  RES    O160   160  -0.4000000   15.9994
  161        CT    1  RES    C161   161   0.1100000   12.0115
  162        HC    1  RES    H162   162   0.0300000    1.0080
  163        HC    1  RES    H163   163   0.0300000    1.0080
  164        HC    1  RES    H164   164   0.0300000    1.0080
  165        HC    1  RES    H165   165   0.0300000    1.0080
  166        HC    1  RES    H166   166   0.0300000    1.0080
  167        HC    1  RES    H167   167   0.0300000    1.0080
  168        HC    1  RES    H168   168   0.0300000    1.0080
  169        HC    1  RES    H169   169   0.0300000    1.0080
  170        OS    1  RES    O170   170  -0.4000000   15.9994
  171        CT    1  RES    C171   171   0.1400000   12.0115
  172        CT    1  RES    C172   172   0.1700000   12.0115
  173        CT    1  RES    C173   173   0.1400000   12.0115
  174        OS    1  RES    O174   174  -0.4000000   15.9994
  175        CT    1  RES    C175   175   0.1100000   12.0115
  176        HC    1  RES    H176   176   0.0300000    1.0080
  177        HC    1  RES    H177   177   0.0300000    1.0080
  178        HC    1  RES    H178   178   0.0300000    1.0080
  179        HC    1  RES    H179   179   0.0300000    1.0080
  180        HC    1  RES    H180   180   0.0300000    1.0080
  181        HC    1  RES    H181   181   0.0300000    1.0080
  182        HC    1  RES    H182   182   0.0300000    1.0080
  183        HC    1  RES    H183   183   0.0300000    1.0080
  184        OS    1  RES    O184   184  -0.4000000   15.9994
  185        CT    1  RES    C185   185   0.1400000   12.0115
  186        CT    1  RES    C186   186   0.1700000   12.0115
  187        CT    1  RES    C187   187   0.1400000   12.0115
  188        OS    1  RES    O188   188  -0.4000000   15.9994
  189        CT    1  RES    C189   189   0.1100000   12.0115
  190        HC    1  RES    H190   190   0.0300000    1.0080
  191        HC    1  RES    H191   191   0.0300000    1.0080
  192        HC    1  RES    H192   192   0.0300000    1.0080
  193        HC    1  RES    H193   193   0.0300000    1.0080
  194        HC    1  RES    H194   194   0.0300000    1.0080
  195        HC    1  RES    H195   195   0.0300000    1.0080
  196        HC    1  RES    H196   196   0.0300000    1.0080
  197        HC    1  RES    H197   197   0.0300000    1.0080
  198        OS    1  RES    O198   198  -0.4000000   15.9994
  199        CT    1  RES    C199   199   0.1400000   12.0115
  200        CT    1  RES    C200   200   0.1700000   12.0115
  201        CT    1  RES    C201   201   0.1400000   12.0115
  202        OS    1  RES    O202   202  -0.4000000   15.9994
  203        CT    1  RES    C203   203   0.1100000   12.0115
  204        HC    1  RES    H204   204   0.0300000    1.0080
  205        HC    1  RES    H205   205   0.0300000    1.0080
  206        HC    1  RES    H206   206   0.0300000    1.0080
  207        HC    1  RES    H207   207   0.0300000    1.0080
  208        HC    1  RES    H208   208   0.0300000    1.0080
  209        HC    1  RES    H209   209   0.0300000    1.0080
  210        HC    1  RES    H210   210   0.0300000    1.0080
  211        HC    1  RES    H211   211   0.0300000    1.0080
  212        OS    1  RES    O212   212  -0.4000000   15.9994
  213        CT    1  RES    C213   213   0.1400000   12.0115
  214        CT    1  RES    C214   214   0.1700000   12.0115
  215        CT    1  RES    C215   215   0.1400000   12.0115
  216        OS    1  RES    O216   216  -0.4000000   15.9994
  217        CT    1  RES    C217   217   0.1100000   12.0115
  218        HC    1  RES    H218   218   0.0300000    1.0080
  219        HC    1  RES    H219   219   0.0300000    1.0080
  220        HC    1  RES    H220   220   0.0300000    1.0080
  221        HC    1  RES    H221   221   0.0300000    1.0080
  222        HC    1  RES    H222   222   0.0300000    1.0080
  223        HC    1  RES    H223   223   0.0300000    1.0080
  224        HC    1  RES    H224   224   0.0300000    1.0080
  225        HC    1  RES    H225   225   0.0300000    1.0080
  226        OS    1  RES    O226   226  -0.4000000   15.9994
  227        CT    1  RES    C227   227   0.1400000   12.0115
  228        CT    1  RES    C228   228   0.1700000   12.0115
  229        CT    1  RES    C229   229   0.1400000   12.0115
  230        OS    1  RES    O230   230  -0.4000000   15.9994
  231        CT    1  RES    C231   231   0.1100000   12.0115
  232        HC    1  RES    H232   232   0.0300000    1.0080
  233        HC    1  RES    H233   233   0.0300000    1.0080
  234        HC    1  RES    H234   234   0.0300000    1.0080
  235        HC    1  RES    H235   235   0.0300000    1.0080
  236        HC    1  RES    H236   236   0.0300000    1.0080
  237        HC    1  RES    H237   237   0.0300000    1.0080
  238        HC    1  RES    H238   238   0.0300000    1.0080
  239        HC    1  RES    H239   239   0.0300000    1.0080
  240        OS    1  RES    O240   240  -0.4000000   15.9994
  241        CT    1  RES    C241   241   0.1400000   12.0115
  242        CT    1  RES    C242   242   0.1700000   12.0115
  243        CT    1  RES    C243   243   0.1400000   12.0115
  244        OS    1  RES    O244   244  -0.4000000   15.9994
  245        CT    1  RES    C245   245   0.1100000   12.0115
  246        HC    1  RES    H246   246   0.0300000    1.0080
  247        HC    1  RES    H247   247   0.0300000    1.0080
  248        HC    1  RES    H248   248   0.0300000    1.0080
  249        HC    1  RES    H249   249   0.0300000    1.0080
  250        HC    1  RES    H250   250   0.0300000    1.0080
  251        HC    1  RES    H251   251   0.0300000    1.0080
  252        HC    1  RES    H252   252   0.0300000    1.0080
  253        HC    1  RES    H253   253   0.0300000    1.0080
  254        OS    1  RES    O254   254  -0.4000000   15.9994
  255        CT    1  RES    C255   255   0.1400000   12.0115
  256        CT    1  RES    C256   256   0.1700000   12.0115
  257        CT    1  RES    C257   257   0.1400000   12.0115
  258        OS    1  RES    O258   258  -0.4000000   15.9994
  259        CT    1  RES    C259   259   0.1100000   12.0115
  260        HC    1  RES    H260   260   0.0300000    1.0080
  261        HC    1  RES    H261   261   0.0300000    1.0080
  262        HC    1  RES    H262   262   0.0300000    1.0080
  263        HC    1  RES    H263   263   0.0300000    1.0080
  264        HC    1  RES    H264   264   0.0300000    1.0080
  265        HC    1  RES    H265   265   0.0300000    1.0080
  266        HC    1  RES    H266   266   0.0300000    1.0080
  267        HC    1  RES    H267   267   0.0300000    1.0080
  268        OS    1  RES    O268   268  -0.4000000   15.9994
  269        CT    1  RES    C269   269   0.1400000   12.0115
  270        CT    1  RES    C270   270  -0.1200000   12.0115
  271        CT    1  RES    C271   271   0.1400000   12.0115
  272        OS    1  RES    O272   272  -0.4000000   15.9994
  273        CT    1  RES    C273   273   0.1100000   12.0115
  274        HC    1  RES    H274   274   0.0300000    1.0080
  275        HC    1  RES    H275   275   0.0300000    1.0080
  276        HC    1  RES    H276   276   0.0600000    1.0080
  277        HC    1  RES    H277   277   0.0300000    1.0080
  278        HC    1  RES    H278   278   0.0300000    1.0080
  279        HC    1  RES    H279   279   0.0300000    1.0080
  280        HC    1  RES    H280   280   0.0300000    1.0080
  281        HC    1  RES    H281   281   0.0300000    1.0080
  282        HC    1  RES    H282   282   0.0600000    1.0080

[ bonds ]
      1      2   1       0.141000  267776.000000
      1     15   1       0.094500  462750.400000
      2      3   1       0.152900  224262.400000
      2      7   1       0.109000  284512.000000
      2      8   1       0.109000  284512.000000
      3      4   1       0.152900  224262.400000
      3      9   1       0.109000  284512.000000
      3     16   1       0.141000  267776.000000
      4      5   1       0.141000  267776.000000
      4     10   1       0.109000  284512.000000
      4     11   1       0.109000  284512.000000
      5      6   1       0.141000  267776.000000
      6     12   1       0.109000  284512.000000
      6     13   1       0.109000  284512.000000
      6     14   1       0.109000  284512.000000
     16     17   1       0.141000  267776.000000
     17     18   1       0.152900  224262.400000
     17     22   1       0.109000  284512.000000
     17     23   1       0.109000  284512.000000
     18     19   1       0.152900  224262.400000
     18     24   1       0.109000  284512.000000
     18     30   1       0.141000  267776.000000
     19     20   1       0.141000  267776.000000
     19     25   1       0.109000  284512.000000
     19     26   1       0.109000  284512.000000
     20     21   1       0.141000  267776.000000
     21     27   1       0.109000  284512.000000
     21     28   1       0.109000  284512.000000
     21     29   1       0.109000  284512.000000
     30     31   1       0.141000  267776.000000
     31     32   1       0.152900  224262.400000
     31     36   1       0.109000  284512.000000
     31     37   1       0.109000  284512.000000
     32     33   1       0.152900  224262.400000
     32     38   1       0.109000  284512.000000
     32     44   1       0.141000  267776.000000
     33     34   1       0.141000  267776.000000
     33     39   1       0.109000  284512.000000
     33     40   1       0.109000  284512.000000
     34     35   1       0.141000  267776.000000
     35     41   1       0.109000  284512.000000
     35     42   1       0.109000  284512.000000
     35     43   1       0.109000  284512.000000
     44     45   1       0.141000  267776.000000
     45     46   1       0.152900  224262.400000
     45     50   1       0.109000  284512.000000
     45     51   1       0.109000  284512.000000
     46     47   1       0.152900  224262.400000
     46     52   1       0.109000  284512.000000
     46     58   1       0.141000  267776.000000
     47     48   1       0.141000  267776.000000
     47     53   1       0.109000  284512.000000
     47     54   1       0.109000  284512.000000
     48     49   1       0.141000  267776.000000
     49     55   1       0.109000  284512.000000
     49     56   1       0.109000  284512.000000
     49     57   1       0.109000  284512.000000
     58     59   1       0.141000  267776.000000
     59     60   1       0.152900  224262.400000
     59     64   1       0.109000  284512.000000
     59     65   1       0.109000  284512.000000
     60     61   1       0.152900  224262.400000
     60     66   1       0.109000  284512.000000
     60     72   1       0.141000  267776.000000
     61     62   1       0.141000  267776.000000
     61     67   1       0.109000  284512.000000
     61     68   1       0.109000  284512.000000
     62     63   1       0.141000  267776.000000
     63     69   1       0.109000  284512.000000
     63     70   1       0.109000  284512.000000
     63     71   1       0.109000  284512.000000
     72     73   1       0.141000  267776.000000
     73     74   1       0.152900  224262.400000
     73     78   1       0.109000  284512.000000
     73     79   1       0.109000  284512.000000
     74     75   1       0.152900  224262.400000
     74     80   1       0.109000  284512.000000
     74     86   1       0.141000  267776.000000
     75     76   1       0.141000  267776.000000
     75     81   1       0.109000  284512.000000
     75     82   1       0.109000  284512.000000
     76     77   1       0.141000  267776.000000
     77     83   1       0.109000  284512.000000
     77     84   1       0.109000  284512.000000
     77     85   1       0.109000  284512.000000
     86     87   1       0.141000  267776.000000
     87     88   1       0.152900  224262.400000
     87     92   1       0.109000  284512.000000
     87     93   1       0.109000  284512.000000
     88     89   1       0.152900  224262.400000
     88     94   1       0.109000  284512.000000
     88    100   1       0.141000  267776.000000
     89     90   1       0.141000  267776.000000
     89     95   1       0.109000  284512.000000
     89     96   1       0.109000  284512.000000
     90     91   1       0.141000  267776.000000
     91     97   1       0.109000  284512.000000
     91     98   1       0.109000  284512.000000
     91     99   1       0.109000  284512.000000
    100    101   1       0.141000  267776.000000
    101    102   1       0.152900  224262.400000
    101    106   1       0.109000  284512.000000
    101    107   1       0.109000  284512.000000
    102    103   1       0.152900  224262.400000
    102    108   1       0.109000  284512.000000
    102    114   1       0.141000  267776.000000
    103    104   1       0.141000  267776.000000
    103    109   1       0.109000  284512.000000
    103    110   1       0.109000  284512.000000
    104    105   1       0.141000  267776.000000
    105    111   1       0.109000  284512.000000
    105    112   1       0.109000  284512.000000
    105    113   1       0.109000  284512.000000
    114    115   1       0.141000  267776.000000
    115    116   1       0.152900  224262.400000
    115    120   1       0.109000  284512.000000
    115    121   1       0.109000  284512.000000
    116    117   1       0.152900  224262.400000
    116    122   1       0.109000  284512.000000
    116    128   1       0.141000  267776.000000
    117    118   1       0.141000  267776.000000
    117    123   1       0.109000  284512.000000
    117    124   1       0.109000  284512.000000
    118    119   1       0.141000  267776.000000
    119    125   1       0.109000  284512.000000
    119    126   1       0.109000  284512.000000
    119    127   1       0.109000  284512.000000
    128    129   1       0.141000  267776.000000
    129    130   1       0.152900  224262.400000
    129    134   1       0.109000  284512.000000
    129    135   1       0.109000  284512.000000
    130    131   1       0.152900  224262.400000
    130    136   1       0.109000  284512.000000
    130    142   1       0.141000  267776.000000
    131    132   1       0.141000  267776.000000
    131    137   1       0.109000  284512.000000
    131    138   1       0.109000  284512.000000
    132    133   1       0.141000  267776.000000
    133    139   1       0.109000  284512.000000
    133    140   1       0.109000  284512.000000
    133    141   1       0.109000  284512.000000
    142    143   1       0.141000  267776.000000
    143    144   1       0.152900  224262.400000
    143    148   1       0.109000  284512.000000
    143    149   1       0.109000  284512.000000
    144    145   1       0.152900  224262.400000
    144    150   1       0.109000  284512.000000
    144    156   1       0.141000  267776.000000
    145    146   1       0.141000  267776.000000
    145    151   1       0.109000  284512.000000
    145    152   1       0.109000  284512.000000
    146    147   1       0.141000  267776.000000
    147    153   1       0.109000  284512.000000
    147    154   1       0.109000  284512.000000
    147    155   1       0.109000  284512.000000
    156    157   1       0.141000  267776.000000
    157    158   1       0.152900  224262.400000
    157    162   1       0.109000  284512.000000
    157    163   1       0.109000  284512.000000
    158    159   1       0.152900  224262.400000
    158    164   1       0.109000  284512.000000
    158    170   1       0.141000  267776.000000
    159    160   1       0.141000  267776.000000
    159    165   1       0.109000  284512.000000
    159    166   1       0.109000  284512.000000
    160    161   1       0.141000  267776.000000
    161    167   1       0.109000  284512.000000
    161    168   1       0.109000  284512.000000
    161    169   1       0.109000  284512.000000
    170    171   1       0.141000  267776.000000
    171    172   1       0.152900  224262.400000
    171    176   1       0.109000  284512.000000
    171    177   1       0.109000  284512.000000
    172    173   1       0.152900  224262.400000
    172    178   1       0.109000  284512.000000
    172    184   1       0.141000  267776.000000
    173    174   1       0.141000  267776.000000
    173    179   1       0.109000  284512.000000
    173    180   1       0.109000  284512.000000
    174    175   1       0.141000  267776.000000
    175    181   1       0.109000  284512.000000
    175    182   1       0.109000  284512.000000
    175    183   1       0.109000  284512.000000
    184    185   1       0.141000  267776.000000
    185    186   1       0.152900  224262.400000
    185    190   1       0.109000  284512.000000
    185    191   1       0.109000  284512.000000
    186    187   1       0.152900  224262.400000
    186    192   1       0.109000  284512.000000
    186    198   1       0.141000  267776.000000
    187    188   1       0.141000  267776.000000
    187    193   1       0.109000  284512.000000
    187    194   1       0.109000  284512.000000
    188    189   1       0.141000  267776.000000
    189    195   1       0.109000  284512.000000
    189    196   1       0.109000  284512.000000
    189    197   1       0.109000  284512.000000
    198    199   1       0.141000  267776.000000
    199    200   1       0.152900  224262.400000
    199    204   1       0.109000  284512.000000
    199    205   1       0.109000  284512.000000
    200    201   1       0.152900  224262.400000
    200    206   1       0.109000  284512.000000
    200    212   1       0.141000  267776.000000
    201    202   1       0.141000  267776.000000
    201    207   1       0.109000  284512.000000
    201    208   1       0.109000  284512.000000
    202    203   1       0.141000  267776.000000
    203    209   1       0.109000  284512.000000
    203    210   1       0.109000  284512.000000
    203    211   1       0.109000  284512.000000
    212    213   1       0.141000  267776.000000
    213    214   1       0.152900  224262.400000
    213    218   1       0.109000  284512.000000
    213    219   1       0.109000  284512.000000
    214    215   1       0.152900  224262.400000
    214    220   1       0.109000  284512.000000
    214    226   1       0.141000  267776.000000
    215    216   1       0.141000  267776.000000
    215    221   1       0.109000  284512.000000
    215    222   1       0.109000  284512.000000
    216    217   1       0.141000  267776.000000
    217    223   1       0.109000  284512.000000
    217    224   1       0.109000  284512.000000
    217    225   1       0.109000  284512.000000
    226    227   1       0.141000  267776.000000
    227    228   1       0.152900  224262.400000
    227    232   1       0.109000  284512.000000
    227    233   1       0.109000  284512.000000
    228    229   1       0.152900  224262.400000
    228    234   1       0.109000  284512.000000
    228    240   1       0.141000  267776.000000
    229    230   1       0.141000  267776.000000
    229    235   1       0.109000  284512.000000
    229    236   1       0.109000  284512.000000
    230    231   1       0.141000  267776.000000
    231    237   1       0.109000  284512.000000
    231    238   1       0.109000  284512.000000
    231    239   1       0.109000  284512.000000
    240    241   1       0.141000  267776.000000
    241    242   1       0.152900  224262.400000
    241    246   1       0.109000  284512.000000
    241    247   1       0.109000  284512.000000
    242    243   1       0.152900  224262.400000
    242    248   1       0.109000  284512.000000
    242    254   1       0.141000  267776.000000
    243    244   1       0.141000  267776.000000
    243    249   1       0.109000  284512.000000
    243    250   1       0.109000  284512.000000
    244    245   1       0.141000  267776.000000
    245    251   1       0.109000  284512.000000
    245    252   1       0.109000  284512.000000
    245    253   1       0.109000  284512.000000
    254    255   1       0.141000  267776.000000
    255    256   1       0.152900  224262.400000
    255    260   1       0.109000  284512.000000
    255    261   1       0.109000  284512.000000
    256    257   1       0.152900  224262.400000
    256    262   1       0.109000  284512.000000
    256    268   1       0.141000  267776.000000
    257    258   1       0.141000  267776.000000
    257    263   1       0.109000  284512.000000
    257    264   1       0.109000  284512.000000
    258    259   1       0.141000  267776.000000
    259    265   1       0.109000  284512.000000
    259    266   1       0.109000  284512.000000
    259    267   1       0.109000  284512.000000
    268    269   1       0.141000  267776.000000
    269    270   1       0.152900  224262.400000
    269    274   1       0.109000  284512.000000
    269    275   1       0.109000  284512.000000
    270    271   1       0.152900  224262.400000
    270    276   1       0.109000  284512.000000
    270    282   1       0.109000  284512.000000
    271    272   1       0.141000  267776.000000
    271    277   1       0.109000  284512.000000
    271    278   1       0.109000  284512.000000
    272    273   1       0.141000  267776.000000
    273    279   1       0.109000  284512.000000
    273    280   1       0.109000  284512.000000
    273    281   1       0.109000  284512.000000

[ pairs ]
; ai   aj   funct   fudge_QQ  charge_i   charge_j   c6    c12
     15      3   2   0.50000     0.4180000    0.1700000   1.995577e-06  1.069504e-11
     15      7   2   0.50000     0.4180000    0.0600000   4.903125e-07  9.576416e-13
     15      8   2   0.50000     0.4180000    0.0600000   4.903125e-07  9.576416e-13
      1      4   2   0.50000    -0.6830000    0.1400000   1.154213e-03  1.502983e-06
      1      9   2   0.50000    -0.6830000    0.0300000   2.835898e-04  1.345781e-07
      1     16   2   0.50000    -0.6830000   -0.4000000   9.562422e-04  7.083138e-07
      7      4   2   0.50000     0.0600000    0.1400000   2.494471e-04  1.671101e-07
      7      9   2   0.50000     0.0600000    0.0300000   6.128906e-05  1.496315e-08
      7     16   2   0.50000     0.0600000   -0.4000000   2.066619e-04  7.875431e-08
      8      4   2   0.50000     0.0600000    0.1400000   2.494471e-04  1.671101e-07
      8      9   2   0.50000     0.0600000    0.0300000   6.128906e-05  1.496315e-08
      8     16   2   0.50000     0.0600000   -0.4000000   2.066619e-04  7.875431e-08
      2      5   2   0.50000     0.1450000   -0.4000000   8.411158e-04  8.795366e-07
      2     10   2   0.50000     0.1450000    0.0300000   2.494471e-04  1.671101e-07
      2     11   2   0.50000     0.1450000    0.0300000   2.494471e-04  1.671101e-07
      9      5   2   0.50000     0.0300000   -0.4000000   2.066619e-04  7.875431e-08
      9     10   2   0.50000     0.0300000    0.0300000   6.128906e-05  1.496315e-08
      9     11   2   0.50000     0.0300000    0.0300000   6.128906e-05  1.496315e-08
     16      5   2   0.50000    -0.4000000   -0.4000000   6.968474e-04  4.145011e-07
     16     10   2   0.50000    -0.4000000    0.0300000   2.066619e-04  7.875431e-08
     16     11   2   0.50000    -0.4000000    0.0300000   2.066619e-04  7.875431e-08
      2     17   2   0.50000     0.1450000    0.1400000   1.015252e-03  1.866303e-06
      4     17   2   0.50000     0.1400000    0.1400000   1.015252e-03  1.866303e-06
      9     17   2   0.50000     0.0300000    0.1400000   2.494471e-04  1.671101e-07
      3      6   2   0.50000     0.1700000    0.1100000   1.015252e-03  1.866303e-06
     10      6   2   0.50000     0.0300000    0.1100000   2.494471e-04  1.671101e-07
     11      6   2   0.50000     0.0300000    0.1100000   2.494471e-04  1.671101e-07
      4     12   2   0.50000     0.1400000    0.0300000   2.494471e-04  1.671101e-07
      4     13   2   0.50000     0.1400000    0.0300000   2.494471e-04  1.671101e-07
      4     14   2   0.50000     0.1400000    0.0300000   2.494471e-04  1.671101e-07
      3     18   2   0.50000     0.1700000    0.1700000   1.015252e-03  1.866303e-06
      3     22   2   0.50000     0.1700000    0.0300000   2.494471e-04  1.671101e-07
      3     23   2   0.50000     0.1700000    0.0300000   2.494471e-04  1.671101e-07
     16     19   2   0.50000    -0.4000000    0.1400000   8.411158e-04  8.795366e-07
     16     24   2   0.50000    -0.4000000    0.0300000   2.066619e-04  7.875431e-08
     16     30   2   0.50000    -0.4000000   -0.4000000   6.968474e-04  4.145011e-07
     22     19   2   0.50000     0.0300000    0.1400000   2.494471e-04  1.671101e-07
     22     24   2   0.50000     0.0300000    0.0300000   6.128906e-05  1.496315e-08
     22     30   2   0.50000     0.0300000   -0.4000000   2.066619e-04  7.875431e-08
     23     19   2   0.50000     0.0300000    0.1400000   2.494471e-04  1.671101e-07
     23     24   2   0.50000     0.0300000    0.0300000   6.128906e-05  1.496315e-08
     23     30   2   0.50000     0.0300000   -0.4000000   2.066619e-04  7.875431e-08
     17     20   2   0.50000     0.1400000   -0.4000000   8.411158e-04  8.795366e-07
     17     25   2   0.50000     0.1400000    0.0300000   2.494471e-04  1.671101e-07
     17     26   2   0.50000     0.1400000    0.0300000   2.494471e-04  1.671101e-07
     24     20   2   0.50000     0.0300000   -0.4000000   2.066619e-04  7.875431e-08
     24     25   2   0.50000     0.0300000    0.0300000   6.128906e-05  1.496315e-08
     24     26   2   0.50000     0.0300000    0.0300000   6.128906e-05  1.496315e-08
     30     20   2   0.50000    -0.4000000   -0.4000000   6.968474e-04  4.145011e-07
     30     25   2   0.50000    -0.4000000    0.0300000   2.066619e-04  7.875431e-08
     30     26   2   0.50000    -0.4000000    0.0300000   2.066619e-04  7.875431e-08
     17     31   2   0.50000     0.1400000    0.1400000   1.015252e-03  1.866303e-06
     19     31   2   0.50000     0.1400000    0.1400000   1.015252e-03  1.866303e-06
     24     31   2   0.50000     0.0300000    0.1400000   2.494471e-04  1.671101e-07
     18     21   2   0.50000     0.1700000    0.1100000   1.015252e-03  1.866303e-06
     25     21   2   0.50000     0.0300000    0.1100000   2.494471e-04  1.671101e-07
     26     21   2   0.50000     0.0300000    0.1100000   2.494471e-04  1.671101e-07
     19     27   2   0.50000     0.1400000    0.0300000   2.494471e-04  1.671101e-07
     19     28   2   0.50000     0.1400000    0.0300000   2.494471e-04  1.671101e-07
     19     29   2   0.50000     0.1400000    0.0300000   2.494471e-04  1.671101e-07
     18     32   2   0.50000     0.1700000    0.1700000   1.015252e-03  1.866303e-06
     18     36   2   0.50000     0.1700000    0.0300000   2.494471e-04  1.671101e-07
     18     37   2   0.50000     0.1700000    0.0300000   2.494471e-04  1.671101e-07
     30     33   2   0.50000    -0.4000000    0.1400000   8.411158e-04  8.795366e-07
     30     38   2   0.50000    -0.4000000    0.0300000   2.066619e-04  7.875431e-08
     30     44   2   0.50000    -0.4000000   -0.4000000   6.968474e-04  4.145011e-07
     36     33   2   0.50000     0.0300000    0.1400000   2.494471e-04  1.671101e-07
     36     38   2   0.50000     0.0300000    0.0300000   6.128906e-05  1.496315e-08
     36     44   2   0.50000     0.0300000   -0.4000000   2.066619e-04  7.875431e-08
     37     33   2   0.50000     0.0300000    0.1400000   2.494471e-04  1.671101e-07
     37     38   2   0.50000     0.0300000    0.0300000   6.128906e-05  1.496315e-08
     37     44   2   0.50000     0.0300000   -0.4000000   2.066619e-04  7.875431e-08
     31     34   2   0.50000     0.1400000   -0.4000000   8.411158e-04  8.795366e-07
     31     39   2   0.50000     0.1400000    0.0300000   2.494471e-04  1.671101e-07
     31     40   2   0.50000     0.1400000    0.0300000   2.494471e-04  1.671101e-07
     38     34   2   0.50000     0.0300000   -0.4000000   2.066619e-04  7.875431e-08
     38     39   2   0.50000     0.0300000    0.0300000   6.128906e-05  1.496315e-08
     38     40   2   0.50000     0.0300000    0.0300000   6.128906e-05  1.496315e-08
     44     34   2   0.50000    -0.4000000   -0.4000000   6.968474e-04  4.145011e-07
     44     39   2   0.50000    -0.4000000    0.0300000   2.066619e-04  7.875431e-08
     44     40   2   0.50000    -0.4000000    0.0300000   2.066619e-04  7.875431e-08
     31     45   2   0.50000     0.1400000    0.1400000   1.015252e-03  1.866303e-06
     33     45   2   0.50000     0.1400000    0.1400000   1.015252e-03  1.866303e-06
     38     45   2   0.50000     0.0300000    0.1400000   2.494471e-04  1.671101e-07
     32     35   2   0.50000     0.1700000    0.1100000   1.015252e-03  1.866303e-06
     39     35   2   0.50000     0.0300000    0.1100000   2.494471e-04  1.671101e-07
     40     35   2   0.50000     0.0300000    0.1100000   2.494471e-04  1.671101e-07
     33     41   2   0.50000     0.1400000    0.0300000   2.494471e-04  1.671101e-07
     33     42   2   0.50000     0.1400000    0.0300000   2.494471e-04  1.671101e-07
     33     43   2   0.50000     0.1400000    0.0300000   2.494471e-04  1.671101e-07
     32     46   2   0.50000     0.1700000    0.1700000   1.015252e-03  1.866303e-06
     32     50   2   0.50000     0.1700000    0.0300000   2.494471e-04  1.671101e-07
     32     51   2   0.50000     0.1700000    0.0300000   2.494471e-04  1.671101e-07
     44     47   2   0.50000    -0.4000000    0.1400000   8.411158e-04  8.795366e-07
     44     52   2   0.50000    -0.4000000    0.0300000   2.066619e-04  7.875431e-08
     44     58   2   0.50000    -0.4000000   -0.4000000   6.968474e-04  4.145011e-07
     50     47   2   0.50000     0.0300000    0.1400000   2.494471e-04  1.671101e-07
     50     52   2   0.50000     0.0300000    0.0300000   6.128906e-05  1.496315e-08
     50     58   2   0.50000     0.0300000   -0.4000000   2.066619e-04  7.875431e-08
     51     47   2   0.50000     0.0300000    0.1400000   2.494471e-04  1.671101e-07
     51     52   2   0.50000     0.0300000    0.0300000   6.128906e-05  1.496315e-08
     51     58   2   0.50000     0.0300000   -0.4000000   2.066619e-04  7.875431e-08
     45     48   2   0.50000     0.1400000   -0.4000000   8.411158e-04  8.795366e-07
     45     53   2   0.50000     0.1400000    0.0300000   2.494471e-04  1.671101e-07
     45     54   2   0.50000     0.1400000    0.0300000   2.494471e-04  1.671101e-07
     52     48   2   0.50000     0.0300000   -0.4000000   2.066619e-04  7.875431e-08
     52     53   2   0.50000     0.0300000    0.0300000   6.128906e-05  1.496315e-08
     52     54   2   0.50000     0.0300000    0.0300000   6.128906e-05  1.496315e-08
     58     48   2   0.50000    -0.4000000   -0.4000000   6.968474e-04  4.145011e-07
     58     53   2   0.50000    -0.4000000    0.0300000   2.066619e-04  7.875431e-08
     58     54   2   0.50000    -0.4000000    0.0300000   2.066619e-04  7.875431e-08
     45     59   2   0.50000     0.1400000    0.1400000   1.015252e-03  1.866303e-06
     47     59   2   0.50000     0.1400000    0.1400000   1.015252e-03  1.866303e-06
     52     59   2   0.50000     0.0300000    0.1400000   2.494471e-04  1.671101e-07
     46     49   2   0.50000     0.1700000    0.1100000   1.015252e-03  1.866303e-06
     53     49   2   0.50000     0.0300000    0.1100000   2.494471e-04  1.671101e-07
     54     49   2   0.50000     0.0300000    0.1100000   2.494471e-04  1.671101e-07
     47     55   2   0.50000     0.1400000    0.0300000   2.494471e-04  1.671101e-07
     47     56   2   0.50000     0.1400000    0.0300000   2.494471e-04  1.671101e-07
     47     57   2   0.50000     0.1400000    0.0300000   2.494471e-04  1.671101e-07
     46     60   2   0.50000     0.1700000    0.1700000   1.015252e-03  1.866303e-06
     46     64   2   0.50000     0.1700000    0.0300000   2.494471e-04  1.671101e-07
     46     65   2   0.50000     0.1700000    0.0300000   2.494471e-04  1.671101e-07
     58     61   2   0.50000    -0.4000000    0.1400000   8.411158e-04  8.795366e-07
     58     66   2   0.50000    -0.4000000    0.0300000   2.066619e-04  7.875431e-08
     58     72   2   0.50000    -0.4000000   -0.4000000   6.968474e-04  4.145011e-07
     64     61   2   0.50000     0.0300000    0.1400000   2.494471e-04  1.671101e-07
     64     66   2   0.50000     0.0300000    0.0300000   6.128906e-05  1.496315e-08
     64     72   2   0.50000     0.0300000   -0.4000000   2.066619e-04  7.875431e-08
     65     61   2   0.50000     0.0300000    0.1400000   2.494471e-04  1.671101e-07
     65     66   2   0.50000     0.0300000    0.0300000   6.128906e-05  1.496315e-08
     65     72   2   0.50000     0.0300000   -0.4000000   2.066619e-04  7.875431e-08
     59     62   2   0.50000     0.1400000   -0.4000000   8.411158e-04  8.795366e-07
     59     67   2   0.50000     0.1400000    0.0300000   2.494471e-04  1.671101e-07
     59     68   2   0.50000     0.1400000    0.0300000   2.494471e-04  1.671101e-07
     66     62   2   0.50000     0.0300000   -0.4000000   2.066619e-04  7.875431e-08
     66     67   2   0.50000     0.0300000    0.0300000   6.128906e-05  1.496315e-08
     66     68   2   0.50000     0.0300000    0.0300000   6.128906e-05  1.496315e-08
     72     62   2   0.50000    -0.4000000   -0.4000000   6.968474e-04  4.145011e-07
     72     67   2   0.50000    -0.4000000    0.0300000   2.066619e-04  7.875431e-08
     72     68   2   0.50000    -0.4000000    0.0300000   2.066619e-04  7.875431e-08
     59     73   2   0.50000     0.1400000    0.1400000   1.015252e-03  1.866303e-06
     61     73   2   0.50000     0.1400000    0.1400000   1.015252e-03  1.866303e-06
     66     73   2   0.50000     0.0300000    0.1400000   2.494471e-04  1.671101e-07
     60     63   2   0.50000     0.1700000    0.1100000   1.015252e-03  1.866303e-06
     67     63   2   0.50000     0.0300000    0.1100000   2.494471e-04  1.671101e-07
     68     63   2   0.50000     0.0300000    0.1100000   2.494471e-04  1.671101e-07
     61     69   2   0.50000     0.1400000    0.0300000   2.494471e-04  1.671101e-07
     61     70   2   0.50000     0.1400000    0.0300000   2.494471e-04  1.671101e-07
     61     71   2   0.50000     0.1400000    0.0300000   2.494471e-04  1.671101e-07
     60     74   2   0.50000     0.1700000    0.1700000   1.015252e-03  1.866303e-06
     60     78   2   0.50000     0.1700000    0.0300000   2.494471e-04  1.671101e-07
     60     79   2   0.50000     0.1700000    0.0300000   2.494471e-04  1.671101e-07
     72     75   2   0.50000    -0.4000000    0.1400000   8.411158e-04  8.795366e-07
     72     80   2   0.50000    -0.4000000    0.0300000   2.066619e-04  7.875431e-08
     72     86   2   0.50000    -0.4000000   -0.4000000   6.968474e-04  4.145011e-07
     78     75   2   0.50000     0.0300000    0.1400000   2.494471e-04  1.671101e-07
     78     80   2   0.50000     0.0300000    0.0300000   6.128906e-05  1.496315e-08
     78     86   2   0.50000     0.0300000   -0.4000000   2.066619e-04  7.875431e-08
     79     75   2   0.50000     0.0300000    0.1400000   2.494471e-04  1.671101e-07
     79     80   2   0.50000     0.0300000    0.0300000   6.128906e-05  1.496315e-08
     79     86   2   0.50000     0.0300000   -0.4000000   2.066619e-04  7.875431e-08
     73     76   2   0.50000     0.1400000   -0.4000000   8.411158e-04  8.795366e-07
     73     81   2   0.50000     0.1400000    0.0300000   2.494471e-04  1.671101e-07
     73     82   2   0.50000     0.1400000    0.0300000   2.494471e-04  1.671101e-07
     80     76   2   0.50000     0.0300000   -0.4000000   2.066619e-04  7.875431e-08
     80     81   2   0.50000     0.0300000    0.0300000   6.128906e-05  1.496315e-08
     80     82   2   0.50000     0.0300000    0.0300000   6.128906e-05  1.496315e-08
     86     76   2   0.50000    -0.4000000   -0.4000000   6.968474e-04  4.145011e-07
     86     81   2   0.50000    -0.4000000    0.0300000   2.066619e-04  7.875431e-08
     86     82   2   0.50000    -0.4000000    0.0300000   2.066619e-04  7.875431e-08
     73     87   2   0.50000     0.1400000    0.1400000   1.015252e-03  1.866303e-06
     75     87   2   0.50000     0.1400000    0.1400000   1.015252e-03  1.866303e-06
     80     87   2   0.50000     0.0300000    0.1400000   2.494471e-04  1.671101e-07
     74     77   2   0.50000     0.1700000    0.1100000   1.015252e-03  1.866303e-06
     81     77   2   0.50000     0.0300000    0.1100000   2.494471e-04  1.671101e-07
     82     77   2   0.50000     0.0300000    0.1100000   2.494471e-04  1.671101e-07
     75     83   2   0.50000     0.1400000    0.0300000   2.494471e-04  1.671101e-07
     75     84   2   0.50000     0.1400000    0.0300000   2.494471e-04  1.671101e-07
     75     85   2   0.50000     0.1400000    0.0300000   2.494471e-04  1.671101e-07
     74     88   2   0.50000     0.1700000    0.1700000   1.015252e-03  1.866303e-06
     74     92   2   0.50000     0.1700000    0.0300000   2.494471e-04  1.671101e-07
     74     93   2   0.50000     0.1700000    0.0300000   2.494471e-04  1.671101e-07
     86     89   2   0.50000    -0.4000000    0.1400000   8.411158e-04  8.795366e-07
     86     94   2   0.50000    -0.4000000    0.0300000   2.066619e-04  7.875431e-08
     86    100   2   0.50000    -0.4000000   -0.4000000   6.968474e-04  4.145011e-07
     92     89   2   0.50000     0.0300000    0.1400000   2.494471e-04  1.671101e-07
     92     94   2   0.50000     0.0300000    0.0300000   6.128906e-05  1.496315e-08
     92    100   2   0.50000     0.0300000   -0.4000000   2.066619e-04  7.875431e-08
     93     89   2   0.50000     0.0300000    0.1400000   2.494471e-04  1.671101e-07
     93     94   2   0.50000     0.0300000    0.0300000   6.128906e-05  1.496315e-08
     93    100   2   0.50000     0.0300000   -0.4000000   2.066619e-04  7.875431e-08
     87     90   2   0.50000     0.1400000   -0.4000000   8.411158e-04  8.795366e-07
     87     95   2   0.50000     0.1400000    0.0300000   2.494471e-04  1.671101e-07
     87     96   2   0.50000     0.1400000    0.0300000   2.494471e-04  1.671101e-07
     94     90   2   0.50000     0.0300000   -0.4000000   2.066619e-04  7.875431e-08
     94     95   2   0.50000     0.0300000    0.0300000   6.128906e-05  1.496315e-08
     94     96   2   0.50000     0.0300000    0.0300000   6.128906e-05  1.496315e-08
    100     90   2   0.50000    -0.4000000   -0.4000000   6.968474e-04  4.145011e-07
    100     95   2   0.50000    -0.4000000    0.0300000   2.066619e-04  7.875431e-08
    100     96   2   0.50000    -0.4000000    0.0300000   2.066619e-04  7.875431e-08
     87    101   2   0.50000     0.1400000    0.1400000   1.015252e-03  1.866303e-06
     89    101   2   0.50000     0.1400000    0.1400000   1.015252e-03  1.866303e-06
     94    101   2   0.50000     0.0300000    0.1400000   2.494471e-04  1.671101e-07
     88     91   2   0.50000     0.1700000    0.1100000   1.015252e-03  1.866303e-06
     95     91   2   0.50000     0.0300000    0.1100000   2.494471e-04  1.671101e-07
     96     91   2   0.50000     0.0300000    0.1100000   2.494471e-04  1.671101e-07
     89     97   2   0.50000     0.1400000    0.0300000   2.494471e-04  1.671101e-07
     89     98   2   0.50000     0.1400000    0.0300000   2.494471e-04  1.671101e-07
     89     99   2   0.50000     0.1400000    0.0300000   2.494471e-04  1.671101e-07
     88    102   2   0.50000     0.1700000    0.1700000   1.015252e-03  1.866303e-06
     88    106   2   0.50000     0.1700000    0.0300000   2.494471e-04  1.671101e-07
     88    107   2   0.50000     0.1700000    0.0300000   2.494471e-04  1.671101e-07
    100    103   2   0.50000    -0.4000000    0.1400000   8.411158e-04  8.795366e-07
    100    108   2   0.50000    -0.4000000    0.0300000   2.066619e-04  7.875431e-08
    100    114   2   0.50000    -0.4000000   -0.4000000   6.968474e-04  4.145011e-07
    106    103   2   0.50000     0.0300000    0.1400000   2.494471e-04  1.671101e-07
    106    108   2   0.50000     0.0300000    0.0300000   6.128906e-05  1.496315e-08
    106    114   2   0.50000     0.0300000   -0.4000000   2.066619e-04  7.875431e-08
    107    103   2   0.50000     0.0300000    0.1400000   2.494471e-04  1.671101e-07
    107    108   2   0.50000     0.0300000    0.0300000   6.128906e-05  1.496315e-08
    107    114   2   0.50000     0.0300000   -0.4000000   2.066619e-04  7.875431e-08
    101    104   2   0.50000     0.1400000   -0.4000000   8.411158e-04  8.795366e-07
    101    109   2   0.50000     0.1400000    0.0300000   2.494471e-04  1.671101e-07
    101    110   2   0.50000     0.1400000    0.0300000   2.494471e-04  1.671101e-07
    108    104   2   0.50000     0.0300000   -0.4000000   2.066619e-04  7.875431e-08
    108    109   2   0.50000     0.0300000    0.0300000   6.128906e-05  1.496315e-08
    108    110   2   0.50000     0.0300000    0.0300000   6.128906e-05  1.496315e-08
    114    104   2   0.50000    -0.4000000   -0.4000000   6.968474e-04  4.145011e-07
    114    109   2   0.50000    -0.4000000    0.0300000   2.066619e-04  7.875431e-08
    114    110   2   0.50000    -0.4000000    0.0300000   2.066619e-04  7.875431e-08
    101    115   2   0.50000     0.1400000    0.1400000   1.015252e-03  1.866303e-06
    103    115   2   0.50000     0.1400000    0.1400000   1.015252e-03  1.866303e-06
    108    115   2   0.50000     0.0300000    0.1400000   2.494471e-04  1.671101e-07
    102    105   2   0.50000     0.1700000    0.1100000   1.015252e-03  1.866303e-06
    109    105   2   0.50000     0.0300000    0.1100000   2.494471e-04  1.671101e-07
    110    105   2   0.50000     0.0300000    0.1100000   2.494471e-04  1.671101e-07
    103    111   2   0.50000     0.1400000    0.0300000   2.494471e-04  1.671101e-07
    103    112   2   0.50000     0.1400000    0.0300000   2.494471e-04  1.671101e-07
    103    113   2   0.50000     0.1400000    0.0300000   2.494471e-04  1.671101e-07
    102    116   2   0.50000     0.1700000    0.1700000   1.015252e-03  1.866303e-06
    102    120   2   0.50000     0.1700000    0.0300000   2.494471e-04  1.671101e-07
    102    121   2   0.50000     0.1700000    0.0300000   2.494471e-04  1.671101e-07
    114    117   2   0.50000    -0.4000000    0.1400000   8.411158e-04  8.795366e-07
    114    122   2   0.50000    -0.4000000    0.0300000   2.066619e-04  7.875431e-08
    114    128   2   0.50000    -0.4000000   -0.4000000   6.968474e-04  4.145011e-07
    120    117   2   0.50000     0.0300000    0.1400000   2.494471e-04  1.671101e-07
    120    122   2   0.50000     0.0300000    0.0300000   6.128906e-05  1.496315e-08
    120    128   2   0.50000     0.0300000   -0.4000000   2.066619e-04  7.875431e-08
    121    117   2   0.50000     0.0300000    0.1400000   2.494471e-04  1.671101e-07
    121    122   2   0.50000     0.0300000    0.0300000   6.128906e-05  1.496315e-08
    121    128   2   0.50000     0.0300000   -0.4000000   2.066619e-04  7.875431e-08
    115    118   2   0.50000     0.1400000   -0.4000000   8.411158e-04  8.795366e-07
    115    123   2   0.50000     0.1400000    0.0300000   2.494471e-04  1.671101e-07
    115    124   2   0.50000     0.1400000    0.0300000   2.494471e-04  1.671101e-07
    122    118   2   0.50000     0.0300000   -0.4000000   2.066619e-04  7.875431e-08
    122    123   2   0.50000     0.0300000    0.0300000   6.128906e-05  1.496315e-08
    122    124   2   0.50000     0.0300000    0.0300000   6.128906e-05  1.496315e-08
    128    118   2   0.50000    -0.4000000   -0.4000000   6.968474e-04  4.145011e-07
    128    123   2   0.50000    -0.4000000    0.0300000   2.066619e-04  7.875431e-08
    128    124   2   0.50000    -0.4000000    0.0300000   2.066619e-04  7.875431e-08
    115    129   2   0.50000     0.1400000    0.1400000   1.015252e-03  1.866303e-06
    117    129   2   0.50000     0.1400000    0.1400000   1.015252e-03  1.866303e-06
    122    129   2   0.50000     0.0300000    0.1400000   2.494471e-04  1.671101e-07
    116    119   2   0.50000     0.1700000    0.1100000   1.015252e-03  1.866303e-06
    123    119   2   0.50000     0.0300000    0.1100000   2.494471e-04  1.671101e-07
    124    119   2   0.50000     0.0300000    0.1100000   2.494471e-04  1.671101e-07
    117    125   2   0.50000     0.1400000    0.0300000   2.494471e-04  1.671101e-07
    117    126   2   0.50000     0.1400000    0.0300000   2.494471e-04  1.671101e-07
    117    127   2   0.50000     0.1400000    0.0300000   2.494471e-04  1.671101e-07
    116    130   2   0.50000     0.1700000    0.1700000   1.015252e-03  1.866303e-06
    116    134   2   0.50000     0.1700000    0.0300000   2.494471e-04  1.671101e-07
    116    135   2   0.50000     0.1700000    0.0300000   2.494471e-04  1.671101e-07
    128    131   2   0.50000    -0.4000000    0.1400000   8.411158e-04  8.795366e-07
    128    136   2   0.50000    -0.4000000    0.0300000   2.066619e-04  7.875431e-08
    128    142   2   0.50000    -0.4000000   -0.4000000   6.968474e-04  4.145011e-07
    134    131   2   0.50000     0.0300000    0.1400000   2.494471e-04  1.671101e-07
    134    136   2   0.50000     0.0300000    0.0300000   6.128906e-05  1.496315e-08
    134    142   2   0.50000     0.0300000   -0.4000000   2.066619e-04  7.875431e-08
    135    131   2   0.50000     0.0300000    0.1400000   2.494471e-04  1.671101e-07
    135    136   2   0.50000     0.0300000    0.0300000   6.128906e-05  1.496315e-08
    135    142   2   0.50000     0.0300000   -0.4000000   2.066619e-04  7.875431e-08
    129    132   2   0.50000     0.1400000   -0.4000000   8.411158e-04  8.795366e-07
    129    137   2   0.50000     0.1400000    0.0300000   2.494471e-04  1.671101e-07
    129    138   2   0.50000     0.1400000    0.0300000   2.494471e-04  1.671101e-07
    136    132   2   0.50000     0.0300000   -0.4000000   2.066619e-04  7.875431e-08
    136    137   2   0.50000     0.0300000    0.0300000   6.128906e-05  1.496315e-08
    136    138   2   0.50000     0.0300000    0.0300000   6.128906e-05  1.496315e-08
    142    132   2   0.50000    -0.4000000   -0.4000000   6.968474e-04  4.145011e-07
    142    137   2   0.50000    -0.4000000    0.0300000   2.066619e-04  7.875431e-08
    142    138   2   0.50000    -0.4000000    0.0300000   2.066619e-04  7.875431e-08
    129    143   2   0.50000     0.1400000    0.1400000   1.015252e-03  1.866303e-06
    131    143   2   0.50000     0.1400000    0.1400000   1.015252e-03  1.866303e-06
    136    143   2   0.50000     0.0300000    0.1400000   2.494471e-04  1.671101e-07
    130    133   2   0.50000     0.1700000    0.1100000   1.015252e-03  1.866303e-06
    137    133   2   0.50000     0.0300000    0.1100000   2.494471e-04  1.671101e-07
    138    133   2   0.50000     0.0300000    0.1100000   2.494471e-04  1.671101e-07
    131    139   2   0.50000     0.1400000    0.0300000   2.494471e-04  1.671101e-07
    131    140   2   0.50000     0.1400000    0.0300000   2.494471e-04  1.671101e-07
    131    141   2   0.50000     0.1400000    0.0300000   2.494471e-04  1.671101e-07
    130    144   2   0.50000     0.1700000    0.1700000   1.015252e-03  1.866303e-06
    130    148   2   0.50000     0.1700000    0.0300000   2.494471e-04  1.671101e-07
    130    149   2   0.50000     0.1700000    0.0300000   2.494471e-04  1.671101e-07
    142    145   2   0.50000    -0.4000000    0.1400000   8.411158e-04  8.795366e-07
    142    150   2   0.50000    -0.4000000    0.0300000   2.066619e-04  7.875431e-08
    142    156   2   0.50000    -0.4000000   -0.4000000   6.968474e-04  4.145011e-07
    148    145   2   0.50000     0.0300000    0.1400000   2.494471e-04  1.671101e-07
    148    150   2   0.50000     0.0300000    0.0300000   6.128906e-05  1.496315e-08
    148    156   2   0.50000     0.0300000   -0.4000000   2.066619e-04  7.875431e-08
    149    145   2   0.50000     0.0300000    0.1400000   2.494471e-04  1.671101e-07
    149    150   2   0.50000     0.0300000    0.0300000   6.128906e-05  1.496315e-08
    149    156   2   0.50000     0.0300000   -0.4000000   2.066619e-04  7.875431e-08
    143    146   2   0.50000     0.1400000   -0.4000000   8.411158e-04  8.795366e-07
    143    151   2   0.50000     0.1400000    0.0300000   2.494471e-04  1.671101e-07
    143    152   2   0.50000     0.1400000    0.0300000   2.494471e-04  1.671101e-07
    150    146   2   0.50000     0.0300000   -0.4000000   2.066619e-04  7.875431e-08
    150    151   2   0.50000     0.0300000    0.0300000   6.128906e-05  1.496315e-08
    150    152   2   0.50000     0.0300000    0.0300000   6.128906e-05  1.496315e-08
    156    146   2   0.50000    -0.4000000   -0.4000000   6.968474e-04  4.145011e-07
    156    151   2   0.50000    -0.4000000    0.0300000   2.066619e-04  7.875431e-08
    156    152   2   0.50000    -0.4000000    0.0300000   2.066619e-04  7.875431e-08
    143    157   2   0.50000     0.1400000    0.1400000   1.015252e-03  1.866303e-06
    145    157   2   0.50000     0.1400000    0.1400000   1.015252e-03  1.866303e-06
    150    157   2   0.50000     0.0300000    0.1400000   2.494471e-04  1.671101e-07
    144    147   2   0.50000     0.1700000    0.1100000   1.015252e-03  1.866303e-06
    151    147   2   0.50000     0.0300000    0.1100000   2.494471e-04  1.671101e-07
    152    147   2   0.50000     0.0300000    0.1100000   2.494471e-04  1.671101e-07
    145    153   2   0.50000     0.1400000    0.0300000   2.494471e-04  1.671101e-07
    145    154   2   0.50000     0.1400000    0.0300000   2.494471e-04  1.671101e-07
    145    155   2   0.50000     0.1400000    0.0300000   2.494471e-04  1.671101e-07
    144    158   2   0.50000     0.1700000    0.1700000   1.015252e-03  1.866303e-06
    144    162   2   0.50000     0.1700000    0.0300000   2.494471e-04  1.671101e-07
    144    163   2   0.50000     0.1700000    0.0300000   2.494471e-04  1.671101e-07
    156    159   2   0.50000    -0.4000000    0.1400000   8.411158e-04  8.795366e-07
    156    164   2   0.50000    -0.4000000    0.0300000   2.066619e-04  7.875431e-08
    156    170   2   0.50000    -0.4000000   -0.4000000   6.968474e-04  4.145011e-07
    162    159   2   0.50000     0.0300000    0.1400000   2.494471e-04  1.671101e-07
    162    164   2   0.50000     0.0300000    0.0300000   6.128906e-05  1.496315e-08
    162    170   2   0.50000     0.0300000   -0.4000000   2.066619e-04  7.875431e-08
    163    159   2   0.50000     0.0300000    0.1400000   2.494471e-04  1.671101e-07
    163    164   2   0.50000     0.0300000    0.0300000   6.128906e-05  1.496315e-08
    163    170   2   0.50000     0.0300000   -0.4000000   2.066619e-04  7.875431e-08
    157    160   2   0.50000     0.1400000   -0.4000000   8.411158e-04  8.795366e-07
    157    165   2   0.50000     0.1400000    0.0300000   2.494471e-04  1.671101e-07
    157    166   2   0.50000     0.1400000    0.0300000   2.494471e-04  1.671101e-07
    164    160   2   0.50000     0.0300000   -0.4000000   2.066619e-04  7.875431e-08
    164    165   2   0.50000     0.0300000    0.0300000   6.128906e-05  1.496315e-08
    164    166   2   0.50000     0.0300000    0.0300000   6.128906e-05  1.496315e-08
    170    160   2   0.50000    -0.4000000   -0.4000000   6.968474e-04  4.145011e-07
    170    165   2   0.50000    -0.4000000    0.0300000   2.066619e-04  7.875431e-08
    170    166   2   0.50000    -0.4000000    0.0300000   2.066619e-04  7.875431e-08
    157    171   2   0.50000     0.1400000    0.1400000   1.015252e-03  1.866303e-06
    159    171   2   0.50000     0.1400000    0.1400000   1.015252e-03  1.866303e-06
    164    171   2   0.50000     0.0300000    0.1400000   2.494471e-04  1.671101e-07
    158    161   2   0.50000     0.1700000    0.1100000   1.015252e-03  1.866303e-06
    165    161   2   0.50000     0.0300000    0.1100000   2.494471e-04  1.671101e-07
    166    161   2   0.50000     0.0300000    0.1100000   2.494471e-04  1.671101e-07
    159    167   2   0.50000     0.1400000    0.0300000   2.494471e-04  1.671101e-07
    159    168   2   0.50000     0.1400000    0.0300000   2.494471e-04  1.671101e-07
    159    169   2   0.50000     0.1400000    0.0300000   2.494471e-04  1.671101e-07
    158    172   2   0.50000     0.1700000    0.1700000   1.015252e-03  1.866303e-06
    158    176   2   0.50000     0.1700000    0.0300000   2.494471e-04  1.671101e-07
    158    177   2   0.50000     0.1700000    0.0300000   2.494471e-04  1.671101e-07
    170    173   2   0.50000    -0.4000000    0.1400000   8.411158e-04  8.795366e-07
    170    178   2   0.50000    -0.4000000    0.0300000   2.066619e-04  7.875431e-08
    170    184   2   0.50000    -0.4000000   -0.4000000   6.968474e-04  4.145011e-07
    176    173   2   0.50000     0.0300000    0.1400000   2.494471e-04  1.671101e-07
    176    178   2   0.50000     0.0300000    0.0300000   6.128906e-05  1.496315e-08
    176    184   2   0.50000     0.0300000   -0.4000000   2.066619e-04  7.875431e-08
    177    173   2   0.50000     0.0300000    0.1400000   2.494471e-04  1.671101e-07
    177    178   2   0.50000     0.0300000    0.0300000   6.128906e-05  1.496315e-08
    177    184   2   0.50000     0.0300000   -0.4000000   2.066619e-04  7.875431e-08
    171    174   2   0.50000     0.1400000   -0.4000000   8.411158e-04  8.795366e-07
    171    179   2   0.50000     0.1400000    0.0300000   2.494471e-04  1.671101e-07
    171    180   2   0.50000     0.1400000    0.0300000   2.494471e-04  1.671101e-07
    178    174   2   0.50000     0.0300000   -0.4000000   2.066619e-04  7.875431e-08
    178    179   2   0.50000     0.0300000    0.0300000   6.128906e-05  1.496315e-08
    178    180   2   0.50000     0.0300000    0.0300000   6.128906e-05  1.496315e-08
    184    174   2   0.50000    -0.4000000   -0.4000000   6.968474e-04  4.145011e-07
    184    179   2   0.50000    -0.4000000    0.0300000   2.066619e-04  7.875431e-08
    184    180   2   0.50000    -0.4000000    0.0300000   2.066619e-04  7.875431e-08
    171    185   2   0.50000     0.1400000    0.1400000   1.015252e-03  1.866303e-06
    173    185   2   0.50000     0.1400000    0.1400000   1.015252e-03  1.866303e-06
    178    185   2   0.50000     0.0300000    0.1400000   2.494471e-04  1.671101e-07
    172    175   2   0.50000     0.1700000    0.1100000   1.015252e-03  1.866303e-06
    179    175   2   0.50000     0.0300000    0.1100000   2.494471e-04  1.671101e-07
    180    175   2   0.50000     0.0300000    0.1100000   2.494471e-04  1.671101e-07
    173    181   2   0.50000     0.1400000    0.0300000   2.494471e-04  1.671101e-07
    173    182   2   0.50000     0.1400000    0.0300000   2.494471e-04  1.671101e-07
    173    183   2   0.50000     0.1400000    0.0300000   2.494471e-04  1.671101e-07
    172    186   2   0.50000     0.1700000    0.1700000   1.015252e-03  1.866303e-06
    172    190   2   0.50000     0.1700000    0.0300000   2.494471e-04  1.671101e-07
    172    191   2   0.50000     0.1700000    0.0300000   2.494471e-04  1.671101e-07
    184    187   2   0.50000    -0.4000000    0.1400000   8.411158e-04  8.795366e-07
    184    192   2   0.50000    -0.4000000    0.0300000   2.066619e-04  7.875431e-08
    184    198   2   0.50000    -0.4000000   -0.4000000   6.968474e-04  4.145011e-07
    190    187   2   0.50000     0.0300000    0.1400000   2.494471e-04  1.671101e-07
    190    192   2   0.50000     0.0300000    0.0300000   6.128906e-05  1.496315e-08
    190    198   2   0.50000     0.0300000   -0.4000000   2.066619e-04  7.875431e-08
    191    187   2   0.50000     0.0300000    0.1400000   2.494471e-04  1.671101e-07
    191    192   2   0.50000     0.0300000    0.0300000   6.128906e-05  1.496315e-08
    191    198   2   0.50000     0.0300000   -0.4000000   2.066619e-04  7.875431e-08
    185    188   2   0.50000     0.1400000   -0.4000000   8.411158e-04  8.795366e-07
    185    193   2   0.50000     0.1400000    0.0300000   2.494471e-04  1.671101e-07
    185    194   2   0.50000     0.1400000    0.0300000   2.494471e-04  1.671101e-07
    192    188   2   0.50000     0.0300000   -0.4000000   2.066619e-04  7.875431e-08
    192    193   2   0.50000     0.0300000    0.0300000   6.128906e-05  1.496315e-08
    192    194   2   0.50000     0.0300000    0.0300000   6.128906e-05  1.496315e-08
    198    188   2   0.50000    -0.4000000   -0.4000000   6.968474e-04  4.145011e-07
    198    193   2   0.50000    -0.4000000    0.0300000   2.066619e-04  7.875431e-08
    198    194   2   0.50000    -0.4000000    0.0300000   2.066619e-04  7.875431e-08
    185    199   2   0.50000     0.1400000    0.1400000   1.015252e-03  1.866303e-06
    187    199   2   0.50000     0.1400000    0.1400000   1.015252e-03  1.866303e-06
    192    199   2   0.50000     0.0300000    0.1400000   2.494471e-04  1.671101e-07
    186    189   2   0.50000     0.1700000    0.1100000   1.015252e-03  1.866303e-06
    193    189   2   0.50000     0.0300000    0.1100000   2.494471e-04  1.671101e-07
    194    189   2   0.50000     0.0300000    0.1100000   2.494471e-04  1.671101e-07
    187    195   2   0.50000     0.1400000    0.0300000   2.494471e-04  1.671101e-07
    187    196   2   0.50000     0.1400000    0.0300000   2.494471e-04  1.671101e-07
    187    197   2   0.50000     0.1400000    0.0300000   2.494471e-04  1.671101e-07
    186    200   2   0.50000     0.1700000    0.1700000   1.015252e-03  1.866303e-06
    186    204   2   0.50000     0.1700000    0.0300000   2.494471e-04  1.671101e-07
    186    205   2   0.50000     0.1700000    0.0300000   2.494471e-04  1.671101e-07
    198    201   2   0.50000    -0.4000000    0.1400000   8.411158e-04  8.795366e-07
    198    206   2   0.50000    -0.4000000    0.0300000   2.066619e-04  7.875431e-08
    198    212   2   0.50000    -0.4000000   -0.4000000   6.968474e-04  4.145011e-07
    204    201   2   0.50000     0.0300000    0.1400000   2.494471e-04  1.671101e-07
    204    206   2   0.50000     0.0300000    0.0300000   6.128906e-05  1.496315e-08
    204    212   2   0.50000     0.0300000   -0.4000000   2.066619e-04  7.875431e-08
    205    201   2   0.50000     0.0300000    0.1400000   2.494471e-04  1.671101e-07
    205    206   2   0.50000     0.0300000    0.0300000   6.128906e-05  1.496315e-08
    205    212   2   0.50000     0.0300000   -0.4000000   2.066619e-04  7.875431e-08
    199    202   2   0.50000     0.1400000   -0.4000000   8.411158e-04  8.795366e-07
    199    207   2   0.50000     0.1400000    0.0300000   2.494471e-04  1.671101e-07
    199    208   2   0.50000     0.1400000    0.0300000   2.494471e-04  1.671101e-07
    206    202   2   0.50000     0.0300000   -0.4000000   2.066619e-04  7.875431e-08
    206    207   2   0.50000     0.0300000    0.0300000   6.128906e-05  1.496315e-08
    206    208   2   0.50000     0.0300000    0.0300000   6.128906e-05  1.496315e-08
    212    202   2   0.50000    -0.4000000   -0.4000000   6.968474e-04  4.145011e-07
    212    207   2   0.50000    -0.4000000    0.0300000   2.066619e-04  7.875431e-08
    212    208   2   0.50000    -0.4000000    0.0300000   2.066619e-04  7.875431e-08
    199    213   2   0.50000     0.1400000    0.1400000   1.015252e-03  1.866303e-06
    201    213   2   0.50000     0.1400000    0.1400000   1.015252e-03  1.866303e-06
    206    213   2   0.50000     0.0300000    0.1400000   2.494471e-04  1.671101e-07
    200    203   2   0.50000     0.1700000    0.1100000   1.015252e-03  1.866303e-06
    207    203   2   0.50000     0.0300000    0.1100000   2.494471e-04  1.671101e-07
    208    203   2   0.50000     0.0300000    0.1100000   2.494471e-04  1.671101e-07
    201    209   2   0.50000     0.1400000    0.0300000   2.494471e-04  1.671101e-07
    201    210   2   0.50000     0.1400000    0.0300000   2.494471e-04  1.671101e-07
    201    211   2   0.50000     0.1400000    0.0300000   2.494471e-04  1.671101e-07
    200    214   2   0.50000     0.1700000    0.1700000   1.015252e-03  1.866303e-06
    200    218   2   0.50000     0.1700000    0.0300000   2.494471e-04  1.671101e-07
    200    219   2   0.50000     0.1700000    0.0300000   2.494471e-04  1.671101e-07
    212    215   2   0.50000    -0.4000000    0.1400000   8.411158e-04  8.795366e-07
    212    220   2   0.50000    -0.4000000    0.0300000   2.066619e-04  7.875431e-08
    212    226   2   0.50000    -0.4000000   -0.4000000   6.968474e-04  4.145011e-07
    218    215   2   0.50000     0.0300000    0.1400000   2.494471e-04  1.671101e-07
    218    220   2   0.50000     0.0300000    0.0300000   6.128906e-05  1.496315e-08
    218    226   2   0.50000     0.0300000   -0.4000000   2.066619e-04  7.875431e-08
    219    215   2   0.50000     0.0300000    0.1400000   2.494471e-04  1.671101e-07
    219    220   2   0.50000     0.0300000    0.0300000   6.128906e-05  1.496315e-08
    219    226   2   0.50000     0.0300000   -0.4000000   2.066619e-04  7.875431e-08
    213    216   2   0.50000     0.1400000   -0.4000000   8.411158e-04  8.795366e-07
    213    221   2   0.50000     0.1400000    0.0300000   2.494471e-04  1.671101e-07
    213    222   2   0.50000     0.1400000    0.0300000   2.494471e-04  1.671101e-07
    220    216   2   0.50000     0.0300000   -0.4000000   2.066619e-04  7.875431e-08
    220    221   2   0.50000     0.0300000    0.0300000   6.128906e-05  1.496315e-08
    220    222   2   0.50000     0.0300000    0.0300000   6.128906e-05  1.496315e-08
    226    216   2   0.50000    -0.4000000   -0.4000000   6.968474e-04  4.145011e-07
    226    221   2   0.50000    -0.4000000    0.0300000   2.066619e-04  7.875431e-08
    226    222   2   0.50000    -0.4000000    0.0300000   2.066619e-04  7.875431e-08
    213    227   2   0.50000     0.1400000    0.1400000   1.015252e-03  1.866303e-06
    215    227   2   0.50000     0.1400000    0.1400000   1.015252e-03  1.866303e-06
    220    227   2   0.50000     0.0300000    0.1400000   2.494471e-04  1.671101e-07
    214    217   2   0.50000     0.1700000    0.1100000   1.015252e-03  1.866303e-06
    221    217   2   0.50000     0.0300000    0.1100000   2.494471e-04  1.671101e-07
    222    217   2   0.50000     0.0300000    0.1100000   2.494471e-04  1.671101e-07
    215    223   2   0.50000     0.1400000    0.0300000   2.494471e-04  1.671101e-07
    215    224   2   0.50000     0.1400000    0.0300000   2.494471e-04  1.671101e-07
    215    225   2   0.50000     0.1400000    0.0300000   2.494471e-04  1.671101e-07
    214    228   2   0.50000     0.1700000    0.1700000   1.015252e-03  1.866303e-06
    214    232   2   0.50000     0.1700000    0.0300000   2.494471e-04  1.671101e-07
    214    233   2   0.50000     0.1700000    0.0300000   2.494471e-04  1.671101e-07
    226    229   2   0.50000    -0.4000000    0.1400000   8.411158e-04  8.795366e-07
    226    234   2   0.50000    -0.4000000    0.0300000   2.066619e-04  7.875431e-08
    226    240   2   0.50000    -0.4000000   -0.4000000   6.968474e-04  4.145011e-07
    232    229   2   0.50000     0.0300000    0.1400000   2.494471e-04  1.671101e-07
    232    234   2   0.50000     0.0300000    0.0300000   6.128906e-05  1.496315e-08
    232    240   2   0.50000     0.0300000   -0.4000000   2.066619e-04  7.875431e-08
    233    229   2   0.50000     0.0300000    0.1400000   2.494471e-04  1.671101e-07
    233    234   2   0.50000     0.0300000    0.0300000   6.128906e-05  1.496315e-08
    233    240   2   0.50000     0.0300000   -0.4000000   2.066619e-04  7.875431e-08
    227    230   2   0.50000     0.1400000   -0.4000000   8.411158e-04  8.795366e-07
    227    235   2   0.50000     0.1400000    0.0300000   2.494471e-04  1.671101e-07
    227    236   2   0.50000     0.1400000    0.0300000   2.494471e-04  1.671101e-07
    234    230   2   0.50000     0.0300000   -0.4000000   2.066619e-04  7.875431e-08
    234    235   2   0.50000     0.0300000    0.0300000   6.128906e-05  1.496315e-08
    234    236   2   0.50000     0.0300000    0.0300000   6.128906e-05  1.496315e-08
    240    230   2   0.50000    -0.4000000   -0.4000000   6.968474e-04  4.145011e-07
    240    235   2   0.50000    -0.4000000    0.0300000   2.066619e-04  7.875431e-08
    240    236   2   0.50000    -0.4000000    0.0300000   2.066619e-04  7.875431e-08
    227    241   2   0.50000     0.1400000    0.1400000   1.015252e-03  1.866303e-06
    229    241   2   0.50000     0.1400000    0.1400000   1.015252e-03  1.866303e-06
    234    241   2   0.50000     0.0300000    0.1400000   2.494471e-04  1.671101e-07
    228    231   2   0.50000     0.1700000    0.1100000   1.015252e-03  1.866303e-06
    235    231   2   0.50000     0.0300000    0.1100000   2.494471e-04  1.671101e-07
    236    231   2   0.50000     0.0300000    0.1100000   2.494471e-04  1.671101e-07
    229    237   2   0.50000     0.1400000    0.0300000   2.494471e-04  1.671101e-07
    229    238   2   0.50000     0.1400000    0.0300000   2.494471e-04  1.671101e-07
    229    239   2   0.50000     0.1400000    0.0300000   2.494471e-04  1.671101e-07
    228    242   2   0.50000     0.1700000    0.1700000   1.015252e-03  1.866303e-06
    228    246   2   0.50000     0.1700000    0.0300000   2.494471e-04  1.671101e-07
    228    247   2   0.50000     0.1700000    0.0300000   2.494471e-04  1.671101e-07
    240    243   2   0.50000    -0.4000000    0.1400000   8.411158e-04  8.795366e-07
    240    248   2   0.50000    -0.4000000    0.0300000   2.066619e-04  7.875431e-08
    240    254   2   0.50000    -0.4000000   -0.4000000   6.968474e-04  4.145011e-07
    246    243   2   0.50000     0.0300000    0.1400000   2.494471e-04  1.671101e-07
    246    248   2   0.50000     0.0300000    0.0300000   6.128906e-05  1.496315e-08
    246    254   2   0.50000     0.0300000   -0.4000000   2.066619e-04  7.875431e-08
    247    243   2   0.50000     0.0300000    0.1400000   2.494471e-04  1.671101e-07
    247    248   2   0.50000     0.0300000    0.0300000   6.128906e-05  1.496315e-08
    247    254   2   0.50000     0.0300000   -0.4000000   2.066619e-04  7.875431e-08
    241    244   2   0.50000     0.1400000   -0.4000000   8.411158e-04  8.795366e-07
    241    249   2   0.50000     0.1400000    0.0300000   2.494471e-04  1.671101e-07
    241    250   2   0.50000     0.1400000    0.0300000   2.494471e-04  1.671101e-07
    248    244   2   0.50000     0.0300000   -0.4000000   2.066619e-04  7.875431e-08
    248    249   2   0.50000     0.0300000    0.0300000   6.128906e-05  1.496315e-08
    248    250   2   0.50000     0.0300000    0.0300000   6.128906e-05  1.496315e-08
    254    244   2   0.50000    -0.4000000   -0.4000000   6.968474e-04  4.145011e-07
    254    249   2   0.50000    -0.4000000    0.0300000   2.066619e-04  7.875431e-08
    254    250   2   0.50000    -0.4000000    0.0300000   2.066619e-04  7.875431e-08
    241    255   2   0.50000     0.1400000    0.1400000   1.015252e-03  1.866303e-06
    243    255   2   0.50000     0.1400000    0.1400000   1.015252e-03  1.866303e-06
    248    255   2   0.50000     0.0300000    0.1400000   2.494471e-04  1.671101e-07
    242    245   2   0.50000     0.1700000    0.1100000   1.015252e-03  1.866303e-06
    249    245   2   0.50000     0.0300000    0.1100000   2.494471e-04  1.671101e-07
    250    245   2   0.50000     0.0300000    0.1100000   2.494471e-04  1.671101e-07
    243    251   2   0.50000     0.1400000    0.0300000   2.494471e-04  1.671101e-07
    243    252   2   0.50000     0.1400000    0.0300000   2.494471e-04  1.671101e-07
    243    253   2   0.50000     0.1400000    0.0300000   2.494471e-04  1.671101e-07
    242    256   2   0.50000     0.1700000    0.1700000   1.015252e-03  1.866303e-06
    242    260   2   0.50000     0.1700000    0.0300000   2.494471e-04  1.671101e-07
    242    261   2   0.50000     0.1700000    0.0300000   2.494471e-04  1.671101e-07
    254    257   2   0.50000    -0.4000000    0.1400000   8.411158e-04  8.795366e-07
    254    262   2   0.50000    -0.4000000    0.0300000   2.066619e-04  7.875431e-08
    254    268   2   0.50000    -0.4000000   -0.4000000   6.968474e-04  4.145011e-07
    260    257   2   0.50000     0.0300000    0.1400000   2.494471e-04  1.671101e-07
    260    262   2   0.50000     0.0300000    0.0300000   6.128906e-05  1.496315e-08
    260    268   2   0.50000     0.0300000   -0.4000000   2.066619e-04  7.875431e-08
    261    257   2   0.50000     0.0300000    0.1400000   2.494471e-04  1.671101e-07
    261    262   2   0.50000     0.0300000    0.0300000   6.128906e-05  1.496315e-08
    261    268   2   0.50000     0.0300000   -0.4000000   2.066619e-04  7.875431e-08
    255    258   2   0.50000     0.1400000   -0.4000000   8.411158e-04  8.795366e-07
    255    263   2   0.50000     0.1400000    0.0300000   2.494471e-04  1.671101e-07
    255    264   2   0.50000     0.1400000    0.0300000   2.494471e-04  1.671101e-07
    262    258   2   0.50000     0.0300000   -0.4000000   2.066619e-04  7.875431e-08
    262    263   2   0.50000     0.0300000    0.0300000   6.128906e-05  1.496315e-08
    262    264   2   0.50000     0.0300000    0.0300000   6.128906e-05  1.496315e-08
    268    258   2   0.50000    -0.4000000   -0.4000000   6.968474e-04  4.145011e-07
    268    263   2   0.50000    -0.4000000    0.0300000   2.066619e-04  7.875431e-08
    268    264   2   0.50000    -0.4000000    0.0300000   2.066619e-04  7.875431e-08
    255    269   2   0.50000     0.1400000    0.1400000   1.015252e-03  1.866303e-06
    257    269   2   0.50000     0.1400000    0.1400000   1.015252e-03  1.866303e-06
    262    269   2   0.50000     0.0300000    0.1400000   2.494471e-04  1.671101e-07
    256    259   2   0.50000     0.1700000    0.1100000   1.015252e-03  1.866303e-06
    263    259   2   0.50000     0.0300000    0.1100000   2.494471e-04  1.671101e-07
    264    259   2   0.50000     0.0300000    0.1100000   2.494471e-04  1.671101e-07
    257    265   2   0.50000     0.1400000    0.0300000   2.494471e-04  1.671101e-07
    257    266   2   0.50000     0.1400000    0.0300000   2.494471e-04  1.671101e-07
    257    267   2   0.50000     0.1400000    0.0300000   2.494471e-04  1.671101e-07
    256    270   2   0.50000     0.1700000   -0.1200000   1.015252e-03  1.866303e-06
    256    274   2   0.50000     0.1700000    0.0300000   2.494471e-04  1.671101e-07
    256    275   2   0.50000     0.1700000    0.0300000   2.494471e-04  1.671101e-07
    268    271   2   0.50000    -0.4000000    0.1400000   8.411158e-04  8.795366e-07
    268    276   2   0.50000    -0.4000000    0.0600000   2.066619e-04  7.875431e-08
    268    282   2   0.50000    -0.4000000    0.0600000   2.066619e-04  7.875431e-08
    274    271   2   0.50000     0.0300000    0.1400000   2.494471e-04  1.671101e-07
    274    276   2   0.50000     0.0300000    0.0600000   6.128906e-05  1.496315e-08
    274    282   2   0.50000     0.0300000    0.0600000   6.128906e-05  1.496315e-08
    275    271   2   0.50000     0.0300000    0.1400000   2.494471e-04  1.671101e-07
    275    276   2   0.50000     0.0300000    0.0600000   6.128906e-05  1.496315e-08
    275    282   2   0.50000     0.0300000    0.0600000   6.128906e-05  1.496315e-08
    269    272   2   0.50000     0.1400000   -0.4000000   8.411158e-04  8.795366e-07
    269    277   2   0.50000     0.1400000    0.0300000   2.494471e-04  1.671101e-07
    269    278   2   0.50000     0.1400000    0.0300000   2.494471e-04  1.671101e-07
    276    272   2   0.50000     0.0600000   -0.4000000   2.066619e-04  7.875431e-08
    276    277   2   0.50000     0.0600000    0.0300000   6.128906e-05  1.496315e-08
    276    278   2   0.50000     0.0600000    0.0300000   6.128906e-05  1.496315e-08
    282    272   2   0.50000     0.0600000   -0.4000000   2.066619e-04  7.875431e-08
    282    277   2   0.50000     0.0600000    0.0300000   6.128906e-05  1.496315e-08
    282    278   2   0.50000     0.0600000    0.0300000   6.128906e-05  1.496315e-08
    270    273   2   0.50000    -0.1200000    0.1100000   1.015252e-03  1.866303e-06
    277    273   2   0.50000     0.0300000    0.1100000   2.494471e-04  1.671101e-07
    278    273   2   0.50000     0.0300000    0.1100000   2.494471e-04  1.671101e-07
    271    279   2   0.50000     0.1400000    0.0300000   2.494471e-04  1.671101e-07
    271    280   2   0.50000     0.1400000    0.0300000   2.494471e-04  1.671101e-07
    271    281   2   0.50000     0.1400000    0.0300000   2.494471e-04  1.671101e-07

[ angles ]
; ai  aj  ak
      2      1     15   1  108.500000  460.240000
      1      2      3   1  109.500000  418.400000
      1      2      7   1  109.500000  292.880000
      1      2      8   1  109.500000  292.880000
      3      2      7   1  110.700000  313.800000
      3      2      8   1  110.700000  313.800000
      7      2      8   1  107.800000  276.144000
      2      3      4   1  112.700000  488.272800
      2      3      9   1  110.700000  313.800000
      2      3     16   1  109.500000  418.400000
      4      3      9   1  110.700000  313.800000
      4      3     16   1  109.500000  418.400000
      9      3     16   1  109.500000  292.880000
      3      4      5   1  109.500000  418.400000
      3      4     10   1  110.700000  313.800000
      3      4     11   1  110.700000  313.800000
      5      4     10   1  109.500000  292.880000
      5      4     11   1  109.500000  292.880000
     10      4     11   1  107.800000  276.144000
      4      5      6   1  109.500000  502.080000
      5      6     12   1  109.500000  292.880000
      5      6     13   1  109.500000  292.880000
      5      6     14   1  109.500000  292.880000
     12      6     13   1  107.800000  276.144000
     12      6     14   1  107.800000  276.144000
     13      6     14   1  107.800000  276.144000
      3     16     17   1  109.500000  502.080000
     16     17     18   1  109.500000  418.400000
     16     17     22   1  109.500000  292.880000
     16     17     23   1  109.500000  292.880000
     18     17     22   1  110.700000  313.800000
     18     17     23   1  110.700000  313.800000
     22     17     23   1  107.800000  276.144000
     17     18     19   1  112.700000  488.272800
     17     18     24   1  110.700000  313.800000
     17     18     30   1  109.500000  418.400000
     19     18     24   1  110.700000  313.800000
     19     18     30   1  109.500000  418.400000
     24     18     30   1  109.500000  292.880000
     18     19     20   1  109.500000  418.400000
     18     19     25   1  110.700000  313.800000
     18     19     26   1  110.700000  313.800000
     20     19     25   1  109.500000  292.880000
     20     19     26   1  109.500000  292.880000
     25     19     26   1  107.800000  276.144000
     19     20     21   1  109.500000  502.080000
     20     21     27   1  109.500000  292.880000
     20     21     28   1  109.500000  292.880000
     20     21     29   1  109.500000  292.880000
     27     21     28   1  107.800000  276.144000
     27     21     29   1  107.800000  276.144000
     28     21     29   1  107.800000  276.144000
     18     30     31   1  109.500000  502.080000
     30     31     32   1  109.500000  418.400000
     30     31     36   1  109.500000  292.880000
     30     31     37   1  109.500000  292.880000
     32     31     36   1  110.700000  313.800000
     32     31     37   1  110.700000  313.800000
     36     31     37   1  107.800000  276.144000
     31     32     33   1  112.700000  488.272800
     31     32     38   1  110.700000  313.800000
     31     32     44   1  109.500000  418.400000
     33     32     38   1  110.700000  313.800000
     33     32     44   1  109.500000  418.400000
     38     32     44   1  109.500000  292.880000
     32     33     34   1  109.500000  418.400000
     32     33     39   1  110.700000  313.800000
     32     33     40   1  110.700000  313.800000
     34     33     39   1  109.500000  292.880000
     34     33     40   1  109.500000  292.880000
     39     33     40   1  107.800000  276.144000
     33     34     35   1  109.500000  502.080000
     34     35     41   1  109.500000  292.880000
     34     35     42   1  109.500000  292.880000
     34     35     43   1  109.500000  292.880000
     41     35     42   1  107.800000  276.144000
     41     35     43   1  107.800000  276.144000
     42     35     43   1  107.800000  276.144000
     32     44     45   1  109.500000  502.080000
     44     45     46   1  109.500000  418.400000
     44     45     50   1  109.500000  292.880000
     44     45     51   1  109.500000  292.880000
     46     45     50   1  110.700000  313.800000
     46     45     51   1  110.700000  313.800000
     50     45     51   1  107.800000  276.144000
     45     46     47   1  112.700000  488.272800
     45     46     52   1  110.700000  313.800000
     45     46     58   1  109.500000  418.400000
     47     46     52   1  110.700000  313.800000
     47     46     58   1  109.500000  418.400000
     52     46     58   1  109.500000  292.880000
     46     47     48   1  109.500000  418.400000
     46     47     53   1  110.700000  313.800000
     46     47     54   1  110.700000  313.800000
     48     47     53   1  109.500000  292.880000
     48     47     54   1  109.500000  292.880000
     53     47     54   1  107.800000  276.144000
     47     48     49   1  109.500000  502.080000
     48     49     55   1  109.500000  292.880000
     48     49     56   1  109.500000  292.880000
     48     49     57   1  109.500000  292.880000
     55     49     56   1  107.800000  276.144000
     55     49     57   1  107.800000  276.144000
     56     49     57   1  107.800000  276.144000
     46     58     59   1  109.500000  502.080000
     58     59     60   1  109.500000  418.400000
     58     59     64   1  109.500000  292.880000
     58     59     65   1  109.500000  292.880000
     60     59     64   1  110.700000  313.800000
     60     59     65   1  110.700000  313.800000
     64     59     65   1  107.800000  276.144000
     59     60     61   1  112.700000  488.272800
     59     60     66   1  110.700000  313.800000
     59     60     72   1  109.500000  418.400000
     61     60     66   1  110.700000  313.800000
     61     60     72   1  109.500000  418.400000
     66     60     72   1  109.500000  292.880000
     60     61     62   1  109.500000  418.400000
     60     61     67   1  110.700000  313.800000
     60     61     68   1  110.700000  313.800000
     62     61     67   1  109.500000  292.880000
     62     61     68   1  109.500000  292.880000
     67     61     68   1  107.800000  276.144000
     61     62     63   1  109.500000  502.080000
     62     63     69   1  109.500000  292.880000
     62     63     70   1  109.500000  292.880000
     62     63     71   1  109.500000  292.880000
     69     63     70   1  107.800000  276.144000
     69     63     71   1  107.800000  276.144000
     70     63     71   1  107.800000  276.144000
     60     72     73   1  109.500000  502.080000
     72     73     74   1  109.500000  418.400000
     72     73     78   1  109.500000  292.880000
     72     73     79   1  109.500000  292.880000
     74     73     78   1  110.700000  313.800000
     74     73     79   1  110.700000  313.800000
     78     73     79   1  107.800000  276.144000
     73     74     75   1  112.700000  488.272800
     73     74     80   1  110.700000  313.800000
     73     74     86   1  109.500000  418.400000
     75     74     80   1  110.700000  313.800000
     75     74     86   1  109.500000  418.400000
     80     74     86   1  109.500000  292.880000
     74     75     76   1  109.500000  418.400000
     74     75     81   1  110.700000  313.800000
     74     75     82   1  110.700000  313.800000
     76     75     81   1  109.500000  292.880000
     76     75     82   1  109.500000  292.880000
     81     75     82   1  107.800000  276.144000
     75     76     77   1  109.500000  502.080000
     76     77     83   1  109.500000  292.880000
     76     77     84   1  109.500000  292.880000
     76     77     85   1  109.500000  292.880000
     83     77     84   1  107.800000  276.144000
     83     77     85   1  107.800000  276.144000
     84     77     85   1  107.800000  276.144000
     74     86     87   1  109.500000  502.080000
     86     87     88   1  109.500000  418.400000
     86     87     92   1  109.500000  292.880000
     86     87     93   1  109.500000  292.880000
     88     87     92   1  110.700000  313.800000
     88     87     93   1  110.700000  313.800000
     92     87     93   1  107.800000  276.144000
     87     88     89   1  112.700000  488.272800
     87     88     94   1  110.700000  313.800000
     87     88    100   1  109.500000  418.400000
     89     88     94   1  110.700000  313.800000
     89     88    100   1  109.500000  418.400000
     94     88    100   1  109.500000  292.880000
     88     89     90   1  109.500000  418.400000
     88     89     95   1  110.700000  313.800000
     88     89     96   1  110.700000  313.800000
     90     89     95   1  109.500000  292.880000
     90     89     96   1  109.500000  292.880000
     95     89     96   1  107.800000  276.144000
     89     90     91   1  109.500000  502.080000
     90     91     97   1  109.500000  292.880000
     90     91     98   1  109.500000  292.880000
     90     91     99   1  109.500000  292.880000
     97     91     98   1  107.800000  276.144000
     97     91     99   1  107.800000  276.144000
     98     91     99   1  107.800000  276.144000
     88    100    101   1  109.500000  502.080000
    100    101    102   1  109.500000  418.400000
    100    101    106   1  109.500000  292.880000
    100    101    107   1  109.500000  292.880000
    102    101    106   1  110.700000  313.800000
    102    101    107   1  110.700000  313.800000
    106    101    107   1  107.800000  276.144000
    101    102    103   1  112.700000  488.272800
    101    102    108   1  110.700000  313.800000
    101    102    114   1  109.500000  418.400000
    103    102    108   1  110.700000  313.800000
    103    102    114   1  109.500000  418.400000
    108    102    114   1  109.500000  292.880000
    102    103    104   1  109.500000  418.400000
    102    103    109   1  110.700000  313.800000
    102    103    110   1  110.700000  313.800000
    104    103    109   1  109.500000  292.880000
    104    103    110   1  109.500000  292.880000
    109    103    110   1  107.800000  276.144000
    103    104    105   1  109.500000  502.080000
    104    105    111   1  109.500000  292.880000
    104    105    112   1  109.500000  292.880000
    104    105    113   1  109.500000  292.880000
    111    105    112   1  107.800000  276.144000
    111    105    113   1  107.800000  276.144000
    112    105    113   1  107.800000  276.144000
    102    114    115   1  109.500000  502.080000
    114    115    116   1  109.500000  418.400000
    114    115    120   1  109.500000  292.880000
    114    115    121   1  109.500000  292.880000
    116    115    120   1  110.700000  313.800000
    116    115    121   1  110.700000  313.800000
    120    115    121   1  107.800000  276.144000
    115    116    117   1  112.700000  488.272800
    115    116    122   1  110.700000  313.800000
    115    116    128   1  109.500000  418.400000
    117    116    122   1  110.700000  313.800000
    117    116    128   1  109.500000  418.400000
    122    116    128   1  109.500000  292.880000
    116    117    118   1  109.500000  418.400000
    116    117    123   1  110.700000  313.800000
    116    117    124   1  110.700000  313.800000
    118    117    123   1  109.500000  292.880000
    118    117    124   1  109.500000  292.880000
    123    117    124   1  107.800000  276.144000
    117    118    119   1  109.500000  502.080000
    118    119    125   1  109.500000  292.880000
    118    119    126   1  109.500000  292.880000
    118    119    127   1  109.500000  292.880000
    125    119    126   1  107.800000  276.144000
    125    119    127   1  107.800000  276.144000
    126    119    127   1  107.800000  276.144000
    116    128    129   1  109.500000  502.080000
    128    129    130   1  109.500000  418.400000
    128    129    134   1  109.500000  292.880000
    128    129    135   1  109.500000  292.880000
    130    129    134   1  110.700000  313.800000
    130    129    135   1  110.700000  313.800000
    134    129    135   1  107.800000  276.144000
    129    130    131   1  112.700000  488.272800
    129    130    136   1  110.700000  313.800000
    129    130    142   1  109.500000  418.400000
    131    130    136   1  110.700000  313.800000
    131    130    142   1  109.500000  418.400000
    136    130    142   1  109.500000  292.880000
    130    131    132   1  109.500000  418.400000
    130    131    137   1  110.700000  313.800000
    130    131    138   1  110.700000  313.800000
    132    131    137   1  109.500000  292.880000
    132    131    138   1  109.500000  292.880000
    137    131    138   1  107.800000  276.144000
    131    132    133   1  109.500000  502.080000
    132    133    139   1  109.500000  292.880000
    132    133    140   1  109.500000  292.880000
    132    133    141   1  109.500000  292.880000
    139    133    140   1  107.800000  276.144000
    139    133    141   1  107.800000  276.144000
    140    133    141   1  107.800000  276.144000
    130    142    143   1  109.500000  502.080000
    142    143    144   1  109.500000  418.400000
    142    143    148   1  109.500000  292.880000
    142    143    149   1  109.500000  292.880000
    144    143    148   1  110.700000  313.800000
    144    143    149   1  110.700000  313.800000
    148    143    149   1  107.800000  276.144000
    143    144    145   1  112.700000  488.272800
    143    144    150   1  110.700000  313.800000
    143    144    156   1  109.500000  418.400000
    145    144    150   1  110.700000  313.800000
    145    144    156   1  109.500000  418.400000
    150    144    156   1  109.500000  292.880000
    144    145    146   1  109.500000  418.400000
    144    145    151   1  110.700000  313.800000
    144    145    152   1  110.700000  313.800000
    146    145    151   1  109.500000  292.880000
    146    145    152   1  109.500000  292.880000
    151    145    152   1  107.800000  276.144000
    145    146    147   1  109.500000  502.080000
    146    147    153   1  109.500000  292.880000
    146    147    154   1  109.500000  292.880000
    146    147    155   1  109.500000  292.880000
    153    147    154   1  107.800000  276.144000
    153    147    155   1  107.800000  276.144000
    154    147    155   1  107.800000  276.144000
    144    156    157   1  109.500000  502.080000
    156    157    158   1  109.500000  418.400000
    156    157    162   1  109.500000  292.880000
    156    157    163   1  109.500000  292.880000
    158    157    162   1  110.700000  313.800000
    158    157    163   1  110.700000  313.800000
    162    157    163   1  107.800000  276.144000
    157    158    159   1  112.700000  488.272800
    157    158    164   1  110.700000  313.800000
    157    158    170   1  109.500000  418.400000
    159    158    164   1  110.700000  313.800000
    159    158    170   1  109.500000  418.400000
    164    158    170   1  109.500000  292.880000
    158    159    160   1  109.500000  418.400000
    158    159    165   1  110.700000  313.800000
    158    159    166   1  110.700000  313.800000
    160    159    165   1  109.500000  292.880000
    160    159    166   1  109.500000  292.880000
    165    159    166   1  107.800000  276.144000
    159    160    161   1  109.500000  502.080000
    160    161    167   1  109.500000  292.880000
    160    161    168   1  109.500000  292.880000
    160    161    169   1  109.500000  292.880000
    167    161    168   1  107.800000  276.144000
    167    161    169   1  107.800000  276.144000
    168    161    169   1  107.800000  276.144000
    158    170    171   1  109.500000  502.080000
    170    171    172   1  109.500000  418.400000
    170    171    176   1  109.500000  292.880000
    170    171    177   1  109.500000  292.880000
    172    171    176   1  110.700000  313.800000
    172    171    177   1  110.700000  313.800000
    176    171    177   1  107.800000  276.144000
    171    172    173   1  112.700000  488.272800
    171    172    178   1  110.700000  313.800000
    171    172    184   1  109.500000  418.400000
    173    172    178   1  110.700000  313.800000
    173    172    184   1  109.500000  418.400000
    178    172    184   1  109.500000  292.880000
    172    173    174   1  109.500000  418.400000
    172    173    179   1  110.700000  313.800000
    172    173    180   1  110.700000  313.800000
    174    173    179   1  109.500000  292.880000
    174    173    180   1  109.500000  292.880000
    179    173    180   1  107.800000  276.144000
    173    174    175   1  109.500000  502.080000
    174    175    181   1  109.500000  292.880000
    174    175    182   1  109.500000  292.880000
    174    175    183   1  109.500000  292.880000
    181    175    182   1  107.800000  276.144000
    181    175    183   1  107.800000  276.144000
    182    175    183   1  107.800000  276.144000
    172    184    185   1  109.500000  502.080000
    184    185    186   1  109.500000  418.400000
    184    185    190   1  109.500000  292.880000
    184    185    191   1  109.500000  292.880000
    186    185    190   1  110.700000  313.800000
    186    185    191   1  110.700000  313.800000
    190    185    191   1  107.800000  276.144000
    185    186    187   1  112.700000  488.272800
    185    186    192   1  110.700000  313.800000
    185    186    198   1  109.500000  418.400000
    187    186    192   1  110.700000  313.800000
    187    186    198   1  109.500000  418.400000
    192    186    198   1  109.500000  292.880000
    186    187    188   1  109.500000  418.400000
    186    187    193   1  110.700000  313.800000
    186    187    194   1  110.700000  313.800000
    188    187    193   1  109.500000  292.880000
    188    187    194   1  109.500000  292.880000
    193    187    194   1  107.800000  276.144000
    187    188    189   1  109.500000  502.080000
    188    189    195   1  109.500000  292.880000
    188    189    196   1  109.500000  292.880000
    188    189    197   1  109.500000  292.880000
    195    189    196   1  107.800000  276.144000
    195    189    197   1  107.800000  276.144000
    196    189    197   1  107.800000  276.144000
    186    198    199   1  109.500000  502.080000
    198    199    200   1  109.500000  418.400000
    198    199    204   1  109.500000  292.880000
    198    199    205   1  109.500000  292.880000
    200    199    204   1  110.700000  313.800000
    200    199    205   1  110.700000  313.800000
    204    199    205   1  107.800000  276.144000
    199    200    201   1  112.700000  488.272800
    199    200    206   1  110.700000  313.800000
    199    200    212   1  109.500000  418.400000
    201    200    206   1  110.700000  313.800000
    201    200    212   1  109.500000  418.400000
    206    200    212   1  109.500000  292.880000
    200    201    202   1  109.500000  418.400000
    200    201    207   1  110.700000  313.800000
    200    201    208   1  110.700000  313.800000
    202    201    207   1  109.500000  292.880000
    202    201    208   1  109.500000  292.880000
    207    201    208   1  107.800000  276.144000
    201    202    203   1  109.500000  502.080000
    202    203    209   1  109.500000  292.880000
    202    203    210   1  109.500000  292.880000
    202    203    211   1  109.500000  292.880000
    209    203    210   1  107.800000  276.144000
    209    203    211   1  107.800000  276.144000
    210    203    211   1  107.800000  276.144000
    200    212    213   1  109.500000  502.080000
    212    213    214   1  109.500000  418.400000
    212    213    218   1  109.500000  292.880000
    212    213    219   1  109.500000  292.880000
    214    213    218   1  110.700000  313.800000
    214    213    219   1  110.700000  313.800000
    218    213    219   1  107.800000  276.144000
    213    214    215   1  112.700000  488.272800
    213    214    220   1  110.700000  313.800000
    213    214    226   1  109.500000  418.400000
    215    214    220   1  110.700000  313.800000
    215    214    226   1  109.500000  418.400000
    220    214    226   1  109.500000  292.880000
    214    215    216   1  109.500000  418.400000
    214    215    221   1  110.700000  313.800000
    214    215    222   1  110.700000  313.800000
    216    215    221   1  109.500000  292.880000
    216    215    222   1  109.500000  292.880000
    221    215    222   1  107.800000  276.144000
    215    216    217   1  109.500000  502.080000
    216    217    223   1  109.500000  292.880000
    216    217    224   1  109.500000  292.880000
    216    217    225   1  109.500000  292.880000
    223    217    224   1  107.800000  276.144000
    223    217    225   1  107.800000  276.144000
    224    217    225   1  107.800000  276.144000
    214    226    227   1  109.500000  502.080000
    226    227    228   1  109.500000  418.400000
    226    227    232   1  109.500000  292.880000
    226    227    233   1  109.500000  292.880000
    228    227    232   1  110.700000  313.800000
    228    227    233   1  110.700000  313.800000
    232    227    233   1  107.800000  276.144000
    227    228    229   1  112.700000  488.272800
    227    228    234   1  110.700000  313.800000
    227    228    240   1  109.500000  418.400000
    229    228    234   1  110.700000  313.800000
    229    228    240   1  109.500000  418.400000
    234    228    240   1  109.500000  292.880000
    228    229    230   1  109.500000  418.400000
    228    229    235   1  110.700000  313.800000
    228    229    236   1  110.700000  313.800000
    230    229    235   1  109.500000  292.880000
    230    229    236   1  109.500000  292.880000
    235    229    236   1  107.800000  276.144000
    229    230    231   1  109.500000  502.080000
    230    231    237   1  109.500000  292.880000
    230    231    238   1  109.500000  292.880000
    230    231    239   1  109.500000  292.880000
    237    231    238   1  107.800000  276.144000
    237    231    239   1  107.800000  276.144000
    238    231    239   1  107.800000  276.144000
    228    240    241   1  109.500000  502.080000
    240    241    242   1  109.500000  418.400000
    240    241    246   1  109.500000  292.880000
    240    241    247   1  109.500000  292.880000
    242    241    246   1  110.700000  313.800000
    242    241    247   1  110.700000  313.800000
    246    241    247   1  107.800000  276.144000
    241    242    243   1  112.700000  488.272800
    241    242    248   1  110.700000  313.800000
    241    242    254   1  109.500000  418.400000
    243    242    248   1  110.700000  313.800000
    243    242    254   1  109.500000  418.400000
    248    242    254   1  109.500000  292.880000
    242    243    244   1  109.500000  418.400000
    242    243    249   1  110.700000  313.800000
    242    243    250   1  110.700000  313.800000
    244    243    249   1  109.500000  292.880000
    244    243    250   1  109.500000  292.880000
    249    243    250   1  107.800000  276.144000
    243    244    245   1  109.500000  502.080000
    244    245    251   1  109.500000  292.880000
    244    245    252   1  109.500000  292.880000
    244    245    253   1  109.500000  292.880000
    251    245    252   1  107.800000  276.144000
    251    245    253   1  107.800000  276.144000
    252    245    253   1  107.800000  276.144000
    242    254    255   1  109.500000  502.080000
    254    255    256   1  109.500000  418.400000
    254    255    260   1  109.500000  292.880000
    254    255    261   1  109.500000  292.880000
    256    255    260   1  110.700000  313.800000
    256    255    261   1  110.700000  313.800000
    260    255    261   1  107.800000  276.144000
    255    256    257   1  112.700000  488.272800
    255    256    262   1  110.700000  313.800000
    255    256    268   1  109.500000  418.400000
    257    256    262   1  110.700000  313.800000
    257    256    268   1  109.500000  418.400000
    262    256    268   1  109.500000  292.880000
    256    257    258   1  109.500000  418.400000
    256    257    263   1  110.700000  313.800000
    256    257    264   1  110.700000  313.800000
    258    257    263   1  109.500000  292.880000
    258    257    264   1  109.500000  292.880000
    263    257    264   1  107.800000  276.144000
    257    258    259   1  109.500000  502.080000
    258    259    265   1  109.500000  292.880000
    258    259    266   1  109.500000  292.880000
    258    259    267   1  109.500000  292.880000
    265    259    266   1  107.800000  276.144000
    265    259    267   1  107.800000  276.144000
    266    259    267   1  107.800000  276.144000
    256    268    269   1  109.500000  502.080000
    268    269    270   1  109.500000  418.400000
    268    269    274   1  109.500000  292.880000
    268    269    275   1  109.500000  292.880000
    270    269    274   1  110.700000  313.800000
    270    269    275   1  110.700000  313.800000
    274    269    275   1  107.800000  276.144000
    269    270    271   1  112.700000  488.272800
    269    270    276   1  110.700000  313.800000
    269    270    282   1  110.700000  313.800000
    271    270    276   1  110.700000  313.800000
    271    270    282   1  110.700000  313.800000
    276    270    282   1  107.800000  276.144000
    270    271    272   1  109.500000  418.400000
    270    271    277   1  110.700000  313.800000
    270    271    278   1  110.700000  313.800000
    272    271    277   1  109.500000  292.880000
    272    271    278   1  109.500000  292.880000
    277    271    278   1  107.800000  276.144000
    271    272    273   1  109.500000  502.080000
    272    273    279   1  109.500000  292.880000
    272    273    280   1  109.500000  292.880000
    272    273    281   1  109.500000  292.880000
    279    273    280   1  107.800000  276.144000
    279    273    281   1  107.800000  276.144000
    280    273    281   1  107.800000  276.144000

[ dihedrals ]
; Proper dihedrals
     15      1      2      3   5   -0.970688   -0.790776    1.778200  0.0
     15      1      2      7   5    0.000000    0.000000    1.627576  0.0
     15      1      2      8   5    0.000000    0.000000    1.627576  0.0
      1      2      3      4   5    7.238320   -1.464400    1.740544  0.0
      1      2      3      9   5    0.000000    0.000000    1.958112  0.0
      1      2      3     16   5   30.907208  -15.309256    0.000000  0.0
      7      2      3      4   5    0.000000    0.000000    1.255200  0.0
      7      2      3      9   5    0.000000    0.000000    1.255200  0.0
      7      2      3     16   5    0.000000    0.000000    1.958112  0.0
      8      2      3      4   5    0.000000    0.000000    1.255200  0.0
      8      2      3      9   5    0.000000    0.000000    1.255200  0.0
      8      2      3     16   5    0.000000    0.000000    1.958112  0.0
      2      3      4      5   5    5.250920   -2.589896    2.284464  0.0
      2      3      4     10   5    0.000000    0.000000    1.255200  0.0
      2      3      4     11   5    0.000000    0.000000    1.255200  0.0
      9      3      4      5   5    0.000000    0.000000    1.958112  0.0
      9      3      4     10   5    0.000000    0.000000    1.255200  0.0
      9      3      4     11   5    0.000000    0.000000    1.255200  0.0
     16      3      4      5   5    9.363792   -9.736168   -2.857672  0.0
     16      3      4     10   5    0.000000    0.000000    1.958112  0.0
     16      3      4     11   5    0.000000    0.000000    1.958112  0.0
      2      3     16     17   5    0.523000   -0.092048    2.347224  0.0
      4      3     16     17   5    0.523000   -0.092048    2.347224  0.0
      9      3     16     17   5    0.000000    0.000000    3.100344  0.0
      3      4      5      6   5    0.523000   -0.092048    2.347224  0.0
     10      4      5      6   5    0.000000    0.000000    3.100344  0.0
     11      4      5      6   5    0.000000    0.000000    3.100344  0.0
      4      5      6     12   5    0.000000    0.000000    3.100344  0.0
      4      5      6     13   5    0.000000    0.000000    3.100344  0.0
      4      5      6     14   5    0.000000    0.000000    3.100344  0.0
      3     16     17     18   5    0.523000   -0.092048    2.347224  0.0
      3     16     17     22   5    0.000000    0.000000    3.100344  0.0
      3     16     17     23   5    0.000000    0.000000    3.100344  0.0
     16     17     18     19   5    5.250920   -2.589896    2.284464  0.0
     16     17     18     24   5    0.000000    0.000000    1.958112  0.0
     16     17     18     30   5    9.363792   -9.736168   -2.857672  0.0
     22     17     18     19   5    0.000000    0.000000    1.255200  0.0
     22     17     18     24   5    0.000000    0.000000    1.255200  0.0
     22     17     18     30   5    0.000000    0.000000    1.958112  0.0
     23     17     18     19   5    0.000000    0.000000    1.255200  0.0
     23     17     18     24   5    0.000000    0.000000    1.255200  0.0
     23     17     18     30   5    0.000000    0.000000    1.958112  0.0
     17     18     19     20   5    5.250920   -2.589896    2.284464  0.0
     17     18     19     25   5    0.000000    0.000000    1.255200  0.0
     17     18     19     26   5    0.000000    0.000000    1.255200  0.0
     24     18     19     20   5    0.000000    0.000000    1.958112  0.0
     24     18     19     25   5    0.000000    0.000000    1.255200  0.0
     24     18     19     26   5    0.000000    0.000000    1.255200  0.0
     30     18     19     20   5    9.363792   -9.736168   -2.857672  0.0
     30     18     19     25   5    0.000000    0.000000    1.958112  0.0
     30     18     19     26   5    0.000000    0.000000    1.958112  0.0
     17     18     30     31   5    0.523000   -0.092048    2.347224  0.0
     19     18     30     31   5    0.523000   -0.092048    2.347224  0.0
     24     18     30     31   5    0.000000    0.000000    3.100344  0.0
     18     19     20     21   5    0.523000   -0.092048    2.347224  0.0
     25     19     20     21   5    0.000000    0.000000    3.100344  0.0
     26     19     20     21   5    0.000000    0.000000    3.100344  0.0
     19     20     21     27   5    0.000000    0.000000    3.100344  0.0
     19     20     21     28   5    0.000000    0.000000    3.100344  0.0
     19     20     21     29   5    0.000000    0.000000    3.100344  0.0
     18     30     31     32   5    0.523000   -0.092048    2.347224  0.0
     18     30     31     36   5    0.000000    0.000000    3.100344  0.0
     18     30     31     37   5    0.000000    0.000000    3.100344  0.0
     30     31     32     33   5    5.250920   -2.589896    2.284464  0.0
     30     31     32     38   5    0.000000    0.000000    1.958112  0.0
     30     31     32     44   5    9.363792   -9.736168   -2.857672  0.0
     36     31     32     33   5    0.000000    0.000000    1.255200  0.0
     36     31     32     38   5    0.000000    0.000000    1.255200  0.0
     36     31     32     44   5    0.000000    0.000000    1.958112  0.0
     37     31     32     33   5    0.000000    0.000000    1.255200  0.0
     37     31     32     38   5    0.000000    0.000000    1.255200  0.0
     37     31     32     44   5    0.000000    0.000000    1.958112  0.0
     31     32     33     34   5    5.250920   -2.589896    2.284464  0.0
     31     32     33     39   5    0.000000    0.000000    1.255200  0.0
     31     32     33     40   5    0.000000    0.000000    1.255200  0.0
     38     32     33     34   5    0.000000    0.000000    1.958112  0.0
     38     32     33     39   5    0.000000    0.000000    1.255200  0.0
     38     32     33     40   5    0.000000    0.000000    1.255200  0.0
     44     32     33     34   5    9.363792   -9.736168   -2.857672  0.0
     44     32     33     39   5    0.000000    0.000000    1.958112  0.0
     44     32     33     40   5    0.000000    0.000000    1.958112  0.0
     31     32     44     45   5    0.523000   -0.092048    2.347224  0.0
     33     32     44     45   5    0.523000   -0.092048    2.347224  0.0
     38     32     44     45   5    0.000000    0.000000    3.100344  0.0
     32     33     34     35   5    0.523000   -0.092048    2.347224  0.0
     39     33     34     35   5    0.000000    0.000000    3.100344  0.0
     40     33     34     35   5    0.000000    0.000000    3.100344  0.0
     33     34     35     41   5    0.000000    0.000000    3.100344  0.0
     33     34     35     42   5    0.000000    0.000000    3.100344  0.0
     33     34     35     43   5    0.000000    0.000000    3.100344  0.0
     32     44     45     46   5    0.523000   -0.092048    2.347224  0.0
     32     44     45     50   5    0.000000    0.000000    3.100344  0.0
     32     44     45     51   5    0.000000    0.000000    3.100344  0.0
     44     45     46     47   5    5.250920   -2.589896    2.284464  0.0
     44     45     46     52   5    0.000000    0.000000    1.958112  0.0
     44     45     46     58   5    9.363792   -9.736168   -2.857672  0.0
     50     45     46     47   5    0.000000    0.000000    1.255200  0.0
     50     45     46     52   5    0.000000    0.000000    1.255200  0.0
     50     45     46     58   5    0.000000    0.000000    1.958112  0.0
     51     45     46     47   5    0.000000    0.000000    1.255200  0.0
     51     45     46     52   5    0.000000    0.000000    1.255200  0.0
     51     45     46     58   5    0.000000    0.000000    1.958112  0.0
     45     46     47     48   5    5.250920   -2.589896    2.284464  0.0
     45     46     47     53   5    0.000000    0.000000    1.255200  0.0
     45     46     47     54   5    0.000000    0.000000    1.255200  0.0
     52     46     47     48   5    0.000000    0.000000    1.958112  0.0
     52     46     47     53   5    0.000000    0.000000    1.255200  0.0
     52     46     47     54   5    0.000000    0.000000    1.255200  0.0
     58     46     47     48   5    9.363792   -9.736168   -2.857672  0.0
     58     46     47     53   5    0.000000    0.000000    1.958112  0.0
     58     46     47     54   5    0.000000    0.000000    1.958112  0.0
     45     46     58     59   5    0.523000   -0.092048    2.347224  0.0
     47     46     58     59   5    0.523000   -0.092048    2.347224  0.0
     52     46     58     59   5    0.000000    0.000000    3.100344  0.0
     46     47     48     49   5    0.523000   -0.092048    2.347224  0.0
     53     47     48     49   5    0.000000    0.000000    3.100344  0.0
     54     47     48     49   5    0.000000    0.000000    3.100344  0.0
     47     48     49     55   5    0.000000    0.000000    3.100344  0.0
     47     48     49     56   5    0.000000    0.000000    3.100344  0.0
     47     48     49     57   5    0.000000    0.000000    3.100344  0.0
     46     58     59     60   5    0.523000   -0.092048    2.347224  0.0
     46     58     59     64   5    0.000000    0.000000    3.100344  0.0
     46     58     59     65   5    0.000000    0.000000    3.100344  0.0
     58     59     60     61   5    5.250920   -2.589896    2.284464  0.0
     58     59     60     66   5    0.000000    0.000000    1.958112  0.0
     58     59     60     72   5    9.363792   -9.736168   -2.857672  0.0
     64     59     60     61   5    0.000000    0.000000    1.255200  0.0
     64     59     60     66   5    0.000000    0.000000    1.255200  0.0
     64     59     60     72   5    0.000000    0.000000    1.958112  0.0
     65     59     60     61   5    0.000000    0.000000    1.255200  0.0
     65     59     60     66   5    0.000000    0.000000    1.255200  0.0
     65     59     60     72   5    0.000000    0.000000    1.958112  0.0
     59     60     61     62   5    5.250920   -2.589896    2.284464  0.0
     59     60     61     67   5    0.000000    0.000000    1.255200  0.0
     59     60     61     68   5    0.000000    0.000000    1.255200  0.0
     66     60     61     62   5    0.000000    0.000000    1.958112  0.0
     66     60     61     67   5    0.000000    0.000000    1.255200  0.0
     66     60     61     68   5    0.000000    0.000000    1.255200  0.0
     72     60     61     62   5    9.363792   -9.736168   -2.857672  0.0
     72     60     61     67   5    0.000000    0.000000    1.958112  0.0
     72     60     61     68   5    0.000000    0.000000    1.958112  0.0
     59     60     72     73   5    0.523000   -0.092048    2.347224  0.0
     61     60     72     73   5    0.523000   -0.092048    2.347224  0.0
     66     60     72     73   5    0.000000    0.000000    3.100344  0.0
     60     61     62     63   5    0.523000   -0.092048    2.347224  0.0
     67     61     62     63   5    0.000000    0.000000    3.100344  0.0
     68     61     62     63   5    0.000000    0.000000    3.100344  0.0
     61     62     63     69   5    0.000000    0.000000    3.100344  0.0
     61     62     63     70   5    0.000000    0.000000    3.100344  0.0
     61     62     63     71   5    0.000000    0.000000    3.100344  0.0
     60     72     73     74   5    0.523000   -0.092048    2.347224  0.0
     60     72     73     78   5    0.000000    0.000000    3.100344  0.0
     60     72     73     79   5    0.000000    0.000000    3.100344  0.0
     72     73     74     75   5    5.250920   -2.589896    2.284464  0.0
     72     73     74     80   5    0.000000    0.000000    1.958112  0.0
     72     73     74     86   5    9.363792   -9.736168   -2.857672  0.0
     78     73     74     75   5    0.000000    0.000000    1.255200  0.0
     78     73     74     80   5    0.000000    0.000000    1.255200  0.0
     78     73     74     86   5    0.000000    0.000000    1.958112  0.0
     79     73     74     75   5    0.000000    0.000000    1.255200  0.0
     79     73     74     80   5    0.000000    0.000000    1.255200  0.0
     79     73     74     86   5    0.000000    0.000000    1.958112  0.0
     73     74     75     76   5    5.250920   -2.589896    2.284464  0.0
     73     74     75     81   5    0.000000    0.000000    1.255200  0.0
     73     74     75     82   5    0.000000    0.000000    1.255200  0.0
     80     74     75     76   5    0.000000    0.000000    1.958112  0.0
     80     74     75     81   5    0.000000    0.000000    1.255200  0.0
     80     74     75     82   5    0.000000    0.000000    1.255200  0.0
     86     74     75     76   5    9.363792   -9.736168   -2.857672  0.0
     86     74     75     81   5    0.000000    0.000000    1.958112  0.0
     86     74     75     82   5    0.000000    0.000000    1.958112  0.0
     73     74     86     87   5    0.523000   -0.092048    2.347224  0.0
     75     74     86     87   5    0.523000   -0.092048    2.347224  0.0
     80     74     86     87   5    0.000000    0.000000    3.100344  0.0
     74     75     76     77   5    0.523000   -0.092048    2.347224  0.0
     81     75     76     77   5    0.000000    0.000000    3.100344  0.0
     82     75     76     77   5    0.000000    0.000000    3.100344  0.0
     75     76     77     83   5    0.000000    0.000000    3.100344  0.0
     75     76     77     84   5    0.000000    0.000000    3.100344  0.0
     75     76     77     85   5    0.000000    0.000000    3.100344  0.0
     74     86     87     88   5    0.523000   -0.092048    2.347224  0.0
     74     86     87     92   5    0.000000    0.000000    3.100344  0.0
     74     86     87     93   5    0.000000    0.000000    3.100344  0.0
     86     87     88     89   5    5.250920   -2.589896    2.284464  0.0
     86     87     88     94   5    0.000000    0.000000    1.958112  0.0
     86     87     88    100   5    9.363792   -9.736168   -2.857672  0.0
     92     87     88     89   5    0.000000    0.000000    1.255200  0.0
     92     87     88     94   5    0.000000    0.000000    1.255200  0.0
     92     87     88    100   5    0.000000    0.000000    1.958112  0.0
     93     87     88     89   5    0.000000    0.000000    1.255200  0.0
     93     87     88     94   5    0.000000    0.000000    1.255200  0.0
     93     87     88    100   5    0.000000    0.000000    1.958112  0.0
     87     88     89     90   5    5.250920   -2.589896    2.284464  0.0
     87     88     89     95   5    0.000000    0.000000    1.255200  0.0
     87     88     89     96   5    0.000000    0.000000    1.255200  0.0
     94     88     89     90   5    0.000000    0.000000    1.958112  0.0
     94     88     89     95   5    0.000000    0.000000    1.255200  0.0
     94     88     89     96   5    0.000000    0.000000    1.255200  0.0
    100     88     89     90   5    9.363792   -9.736168   -2.857672  0.0
    100     88     89     95   5    0.000000    0.000000    1.958112  0.0
    100     88     89     96   5    0.000000    0.000000    1.958112  0.0
     87     88    100    101   5    0.523000   -0.092048    2.347224  0.0
     89     88    100    101   5    0.523000   -0.092048    2.347224  0.0
     94     88    100    101   5    0.000000    0.000000    3.100344  0.0
     88     89     90     91   5    0.523000   -0.092048    2.347224  0.0
     95     89     90     91   5    0.000000    0.000000    3.100344  0.0
     96     89     90     91   5    0.000000    0.000000    3.100344  0.0
     89     90     91     97   5    0.000000    0.000000    3.100344  0.0
     89     90     91     98   5    0.000000    0.000000    3.100344  0.0
     89     90     91     99   5    0.000000    0.000000    3.100344  0.0
     88    100    101    102   5    0.523000   -0.092048    2.347224  0.0
     88    100    101    106   5    0.000000    0.000000    3.100344  0.0
     88    100    101    107   5    0.000000    0.000000    3.100344  0.0
    100    101    102    103   5    5.250920   -2.589896    2.284464  0.0
    100    101    102    108   5    0.000000    0.000000    1.958112  0.0
    100    101    102    114   5    9.363792   -9.736168   -2.857672  0.0
    106    101    102    103   5    0.000000    0.000000    1.255200  0.0
    106    101    102    108   5    0.000000    0.000000    1.255200  0.0
    106    101    102    114   5    0.000000    0.000000    1.958112  0.0
    107    101    102    103   5    0.000000    0.000000    1.255200  0.0
    107    101    102    108   5    0.000000    0.000000    1.255200  0.0
    107    101    102    114   5    0.000000    0.000000    1.958112  0.0
    101    102    103    104   5    5.250920   -2.589896    2.284464  0.0
    101    102    103    109   5    0.000000    0.000000    1.255200  0.0
    101    102    103    110   5    0.000000    0.000000    1.255200  0.0
    108    102    103    104   5    0.000000    0.000000    1.958112  0.0
    108    102    103    109   5    0.000000    0.000000    1.255200  0.0
    108    102    103    110   5    0.000000    0.000000    1.255200  0.0
    114    102    103    104   5    9.363792   -9.736168   -2.857672  0.0
    114    102    103    109   5    0.000000    0.000000    1.958112  0.0
    114    102    103    110   5    0.000000    0.000000    1.958112  0.0
    101    102    114    115   5    0.523000   -0.092048    2.347224  0.0
    103    102    114    115   5    0.523000   -0.092048    2.347224  0.0
    108    102    114    115   5    0.000000    0.000000    3.100344  0.0
    102    103    104    105   5    0.523000   -0.092048    2.347224  0.0
    109    103    104    105   5    0.000000    0.000000    3.100344  0.0
    110    103    104    105   5    0.000000    0.000000    3.100344  0.0
    103    104    105    111   5    0.000000    0.000000    3.100344  0.0
    103    104    105    112   5    0.000000    0.000000    3.100344  0.0
    103    104    105    113   5    0.000000    0.000000    3.100344  0.0
    102    114    115    116   5    0.523000   -0.092048    2.347224  0.0
    102    114    115    120   5    0.000000    0.000000    3.100344  0.0
    102    114    115    121   5    0.000000    0.000000    3.100344  0.0
    114    115    116    117   5    5.250920   -2.589896    2.284464  0.0
    114    115    116    122   5    0.000000    0.000000    1.958112  0.0
    114    115    116    128   5    9.363792   -9.736168   -2.857672  0.0
    120    115    116    117   5    0.000000    0.000000    1.255200  0.0
    120    115    116    122   5    0.000000    0.000000    1.255200  0.0
    120    115    116    128   5    0.000000    0.000000    1.958112  0.0
    121    115    116    117   5    0.000000    0.000000    1.255200  0.0
    121    115    116    122   5    0.000000    0.000000    1.255200  0.0
    121    115    116    128   5    0.000000    0.000000    1.958112  0.0
    115    116    117    118   5    5.250920   -2.589896    2.284464  0.0
    115    116    117    123   5    0.000000    0.000000    1.255200  0.0
    115    116    117    124   5    0.000000    0.000000    1.255200  0.0
    122    116    117    118   5    0.000000    0.000000    1.958112  0.0
    122    116    117    123   5    0.000000    0.000000    1.255200  0.0
    122    116    117    124   5    0.000000    0.000000    1.255200  0.0
    128    116    117    118   5    9.363792   -9.736168   -2.857672  0.0
    128    116    117    123   5    0.000000    0.000000    1.958112  0.0
    128    116    117    124   5    0.000000    0.000000    1.958112  0.0
    115    116    128    129   5    0.523000   -0.092048    2.347224  0.0
    117    116    128    129   5    0.523000   -0.092048    2.347224  0.0
    122    116    128    129   5    0.000000    0.000000    3.100344  0.0
    116    117    118    119   5    0.523000   -0.092048    2.347224  0.0
    123    117    118    119   5    0.000000    0.000000    3.100344  0.0
    124    117    118    119   5    0.000000    0.000000    3.100344  0.0
    117    118    119    125   5    0.000000    0.000000    3.100344  0.0
    117    118    119    126   5    0.000000    0.000000    3.100344  0.0
    117    118    119    127   5    0.000000    0.000000    3.100344  0.0
    116    128    129    130   5    0.523000   -0.092048    2.347224  0.0
    116    128    129    134   5    0.000000    0.000000    3.100344  0.0
    116    128    129    135   5    0.000000    0.000000    3.100344  0.0
    128    129    130    131   5    5.250920   -2.589896    2.284464  0.0
    128    129    130    136   5    0.000000    0.000000    1.958112  0.0
    128    129    130    142   5    9.363792   -9.736168   -2.857672  0.0
    134    129    130    131   5    0.000000    0.000000    1.255200  0.0
    134    129    130    136   5    0.000000    0.000000    1.255200  0.0
    134    129    130    142   5    0.000000    0.000000    1.958112  0.0
    135    129    130    131   5    0.000000    0.000000    1.255200  0.0
    135    129    130    136   5    0.000000    0.000000    1.255200  0.0
    135    129    130    142   5    0.000000    0.000000    1.958112  0.0
    129    130    131    132   5    5.250920   -2.589896    2.284464  0.0
    129    130    131    137   5    0.000000    0.000000    1.255200  0.0
    129    130    131    138   5    0.000000    0.000000    1.255200  0.0
    136    130    131    132   5    0.000000    0.000000    1.958112  0.0
    136    130    131    137   5    0.000000    0.000000    1.255200  0.0
    136    130    131    138   5    0.000000    0.000000    1.255200  0.0
    142    130    131    132   5    9.363792   -9.736168   -2.857672  0.0
    142    130    131    137   5    0.000000    0.000000    1.958112  0.0
    142    130    131    138   5    0.000000    0.000000    1.958112  0.0
    129    130    142    143   5    0.523000   -0.092048    2.347224  0.0
    131    130    142    143   5    0.523000   -0.092048    2.347224  0.0
    136    130    142    143   5    0.000000    0.000000    3.100344  0.0
    130    131    132    133   5    0.523000   -0.092048    2.347224  0.0
    137    131    132    133   5    0.000000    0.000000    3.100344  0.0
    138    131    132    133   5    0.000000    0.000000    3.100344  0.0
    131    132    133    139   5    0.000000    0.000000    3.100344  0.0
    131    132    133    140   5    0.000000    0.000000    3.100344  0.0
    131    132    133    141   5    0.000000    0.000000    3.100344  0.0
    130    142    143    144   5    0.523000   -0.092048    2.347224  0.0
    130    142    143    148   5    0.000000    0.000000    3.100344  0.0
    130    142    143    149   5    0.000000    0.000000    3.100344  0.0
    142    143    144    145   5    5.250920   -2.589896    2.284464  0.0
    142    143    144    150   5    0.000000    0.000000    1.958112  0.0
    142    143    144    156   5    9.363792   -9.736168   -2.857672  0.0
    148    143    144    145   5    0.000000    0.000000    1.255200  0.0
    148    143    144    150   5    0.000000    0.000000    1.255200  0.0
    148    143    144    156   5    0.000000    0.000000    1.958112  0.0
    149    143    144    145   5    0.000000    0.000000    1.255200  0.0
    149    143    144    150   5    0.000000    0.000000    1.255200  0.0
    149    143    144    156   5    0.000000    0.000000    1.958112  0.0
    143    144    145    146   5    5.250920   -2.589896    2.284464  0.0
    143    144    145    151   5    0.000000    0.000000    1.255200  0.0
    143    144    145    152   5    0.000000    0.000000    1.255200  0.0
    150    144    145    146   5    0.000000    0.000000    1.958112  0.0
    150    144    145    151   5    0.000000    0.000000    1.255200  0.0
    150    144    145    152   5    0.000000    0.000000    1.255200  0.0
    156    144    145    146   5    9.363792   -9.736168   -2.857672  0.0
    156    144    145    151   5    0.000000    0.000000    1.958112  0.0
    156    144    145    152   5    0.000000    0.000000    1.958112  0.0
    143    144    156    157   5    0.523000   -0.092048    2.347224  0.0
    145    144    156    157   5    0.523000   -0.092048    2.347224  0.0
    150    144    156    157   5    0.000000    0.000000    3.100344  0.0
    144    145    146    147   5    0.523000   -0.092048    2.347224  0.0
    151    145    146    147   5    0.000000    0.000000    3.100344  0.0
    152    145    146    147   5    0.000000    0.000000    3.100344  0.0
    145    146    147    153   5    0.000000    0.000000    3.100344  0.0
    145    146    147    154   5    0.000000    0.000000    3.100344  0.0
    145    146    147    155   5    0.000000    0.000000    3.100344  0.0
    144    156    157    158   5    0.523000   -0.092048    2.347224  0.0
    144    156    157    162   5    0.000000    0.000000    3.100344  0.0
    144    156    157    163   5    0.000000    0.000000    3.100344  0.0
    156    157    158    159   5    5.250920   -2.589896    2.284464  0.0
    156    157    158    164   5    0.000000    0.000000    1.958112  0.0
    156    157    158    170   5    9.363792   -9.736168   -2.857672  0.0
    162    157    158    159   5    0.000000    0.000000    1.255200  0.0
    162    157    158    164   5    0.000000    0.000000    1.255200  0.0
    162    157    158    170   5    0.000000    0.000000    1.958112  0.0
    163    157    158    159   5    0.000000    0.000000    1.255200  0.0
    163    157    158    164   5    0.000000    0.000000    1.255200  0.0
    163    157    158    170   5    0.000000    0.000000    1.958112  0.0
    157    158    159    160   5    5.250920   -2.589896    2.284464  0.0
    157    158    159    165   5    0.000000    0.000000    1.255200  0.0
    157    158    159    166   5    0.000000    0.000000    1.255200  0.0
    164    158    159    160   5    0.000000    0.000000    1.958112  0.0
    164    158    159    165   5    0.000000    0.000000    1.255200  0.0
    164    158    159    166   5    0.000000    0.000000    1.255200  0.0
    170    158    159    160   5    9.363792   -9.736168   -2.857672  0.0
    170    158    159    165   5    0.000000    0.000000    1.958112  0.0
    170    158    159    166   5    0.000000    0.000000    1.958112  0.0
    157    158    170    171   5    0.523000   -0.092048    2.347224  0.0
    159    158    170    171   5    0.523000   -0.092048    2.347224  0.0
    164    158    170    171   5    0.000000    0.000000    3.100344  0.0
    158    159    160    161   5    0.523000   -0.092048    2.347224  0.0
    165    159    160    161   5    0.000000    0.000000    3.100344  0.0
    166    159    160    161   5    0.000000    0.000000    3.100344  0.0
    159    160    161    167   5    0.000000    0.000000    3.100344  0.0
    159    160    161    168   5    0.000000    0.000000    3.100344  0.0
    159    160    161    169   5    0.000000    0.000000    3.100344  0.0
    158    170    171    172   5    0.523000   -0.092048    2.347224  0.0
    158    170    171    176   5    0.000000    0.000000    3.100344  0.0
    158    170    171    177   5    0.000000    0.000000    3.100344  0.0
    170    171    172    173   5    5.250920   -2.589896    2.284464  0.0
    170    171    172    178   5    0.000000    0.000000    1.958112  0.0
    170    171    172    184   5    9.363792   -9.736168   -2.857672  0.0
    176    171    172    173   5    0.000000    0.000000    1.255200  0.0
    176    171    172    178   5    0.000000    0.000000    1.255200  0.0
    176    171    172    184   5    0.000000    0.000000    1.958112  0.0
    177    171    172    173   5    0.000000    0.000000    1.255200  0.0
    177    171    172    178   5    0.000000    0.000000    1.255200  0.0
    177    171    172    184   5    0.000000    0.000000    1.958112  0.0
    171    172    173    174   5    5.250920   -2.589896    2.284464  0.0
    171    172    173    179   5    0.000000    0.000000    1.255200  0.0
    171    172    173    180   5    0.000000    0.000000    1.255200  0.0
    178    172    173    174   5    0.000000    0.000000    1.958112  0.0
    178    172    173    179   5    0.000000    0.000000    1.255200  0.0
    178    172    173    180   5    0.000000    0.000000    1.255200  0.0
    184    172    173    174   5    9.363792   -9.736168   -2.857672  0.0
    184    172    173    179   5    0.000000    0.000000    1.958112  0.0
    184    172    173    180   5    0.000000    0.000000    1.958112  0.0
    171    172    184    185   5    0.523000   -0.092048    2.347224  0.0
    173    172    184    185   5    0.523000   -0.092048    2.347224  0.0
    178    172    184    185   5    0.000000    0.000000    3.100344  0.0
    172    173    174    175   5    0.523000   -0.092048    2.347224  0.0
    179    173    174    175   5    0.000000    0.000000    3.100344  0.0
    180    173    174    175   5    0.000000    0.000000    3.100344  0.0
    173    174    175    181   5    0.000000    0.000000    3.100344  0.0
    173    174    175    182   5    0.000000    0.000000    3.100344  0.0
    173    174    175    183   5    0.000000    0.000000    3.100344  0.0
    172    184    185    186   5    0.523000   -0.092048    2.347224  0.0
    172    184    185    190   5    0.000000    0.000000    3.100344  0.0
    172    184    185    191   5    0.000000    0.000000    3.100344  0.0
    184    185    186    187   5    5.250920   -2.589896    2.284464  0.0
    184    185    186    192   5    0.000000    0.000000    1.958112  0.0
    184    185    186    198   5    9.363792   -9.736168   -2.857672  0.0
    190    185    186    187   5    0.000000    0.000000    1.255200  0.0
    190    185    186    192   5    0.000000    0.000000    1.255200  0.0
    190    185    186    198   5    0.000000    0.000000    1.958112  0.0
    191    185    186    187   5    0.000000    0.000000    1.255200  0.0
    191    185    186    192   5    0.000000    0.000000    1.255200  0.0
    191    185    186    198   5    0.000000    0.000000    1.958112  0.0
    185    186    187    188   5    5.250920   -2.589896    2.284464  0.0
    185    186    187    193   5    0.000000    0.000000    1.255200  0.0
    185    186    187    194   5    0.000000    0.000000    1.255200  0.0
    192    186    187    188   5    0.000000    0.000000    1.958112  0.0
    192    186    187    193   5    0.000000    0.000000    1.255200  0.0
    192    186    187    194   5    0.000000    0.000000    1.255200  0.0
    198    186    187    188   5    9.363792   -9.736168   -2.857672  0.0
    198    186    187    193   5    0.000000    0.000000    1.958112  0.0
    198    186    187    194   5    0.000000    0.000000    1.958112  0.0
    185    186    198    199   5    0.523000   -0.092048    2.347224  0.0
    187    186    198    199   5    0.523000   -0.092048    2.347224  0.0
    192    186    198    199   5    0.000000    0.000000    3.100344  0.0
    186    187    188    189   5    0.523000   -0.092048    2.347224  0.0
    193    187    188    189   5    0.000000    0.000000    3.100344  0.0
    194    187    188    189   5    0.000000    0.000000    3.100344  0.0
    187    188    189    195   5    0.000000    0.000000    3.100344  0.0
    187    188    189    196   5    0.000000    0.000000    3.100344  0.0
    187    188    189    197   5    0.000000    0.000000    3.100344  0.0
    186    198    199    200   5    0.523000   -0.092048    2.347224  0.0
    186    198    199    204   5    0.000000    0.000000    3.100344  0.0
    186    198    199    205   5    0.000000    0.000000    3.100344  0.0
    198    199    200    201   5    5.250920   -2.589896    2.284464  0.0
    198    199    200    206   5    0.000000    0.000000    1.958112  0.0
    198    199    200    212   5    9.363792   -9.736168   -2.857672  0.0
    204    199    200    201   5    0.000000    0.000000    1.255200  0.0
    204    199    200    206   5    0.000000    0.000000    1.255200  0.0
    204    199    200    212   5    0.000000    0.000000    1.958112  0.0
    205    199    200    201   5    0.000000    0.000000    1.255200  0.0
    205    199    200    206   5    0.000000    0.000000    1.255200  0.0
    205    199    200    212   5    0.000000    0.000000    1.958112  0.0
    199    200    201    202   5    5.250920   -2.589896    2.284464  0.0
    199    200    201    207   5    0.000000    0.000000    1.255200  0.0
    199    200    201    208   5    0.000000    0.000000    1.255200  0.0
    206    200    201    202   5    0.000000    0.000000    1.958112  0.0
    206    200    201    207   5    0.000000    0.000000    1.255200  0.0
    206    200    201    208   5    0.000000    0.000000    1.255200  0.0
    212    200    201    202   5    9.363792   -9.736168   -2.857672  0.0
    212    200    201    207   5    0.000000    0.000000    1.958112  0.0
    212    200    201    208   5    0.000000    0.000000    1.958112  0.0
    199    200    212    213   5    0.523000   -0.092048    2.347224  0.0
    201    200    212    213   5    0.523000   -0.092048    2.347224  0.0
    206    200    212    213   5    0.000000    0.000000    3.100344  0.0
    200    201    202    203   5    0.523000   -0.092048    2.347224  0.0
    207    201    202    203   5    0.000000    0.000000    3.100344  0.0
    208    201    202    203   5    0.000000    0.000000    3.100344  0.0
    201    202    203    209   5    0.000000    0.000000    3.100344  0.0
    201    202    203    210   5    0.000000    0.000000    3.100344  0.0
    201    202    203    211   5    0.000000    0.000000    3.100344  0.0
    200    212    213    214   5    0.523000   -0.092048    2.347224  0.0
    200    212    213    218   5    0.000000    0.000000    3.100344  0.0
    200    212    213    219   5    0.000000    0.000000    3.100344  0.0
    212    213    214    215   5    5.250920   -2.589896    2.284464  0.0
    212    213    214    220   5    0.000000    0.000000    1.958112  0.0
    212    213    214    226   5    9.363792   -9.736168   -2.857672  0.0
    218    213    214    215   5    0.000000    0.000000    1.255200  0.0
    218    213    214    220   5    0.000000    0.000000    1.255200  0.0
    218    213    214    226   5    0.000000    0.000000    1.958112  0.0
    219    213    214    215   5    0.000000    0.000000    1.255200  0.0
    219    213    214    220   5    0.000000    0.000000    1.255200  0.0
    219    213    214    226   5    0.000000    0.000000    1.958112  0.0
    213    214    215    216   5    5.250920   -2.589896    2.284464  0.0
    213    214    215    221   5    0.000000    0.000000    1.255200  0.0
    213    214    215    222   5    0.000000    0.000000    1.255200  0.0
    220    214    215    216   5    0.000000    0.000000    1.958112  0.0
    220    214    215    221   5    0.000000    0.000000    1.255200  0.0
    220    214    215    222   5    0.000000    0.000000    1.255200  0.0
    226    214    215    216   5    9.363792   -9.736168   -2.857672  0.0
    226    214    215    221   5    0.000000    0.000000    1.958112  0.0
    226    214    215    222   5    0.000000    0.000000    1.958112  0.0
    213    214    226    227   5    0.523000   -0.092048    2.347224  0.0
    215    214    226    227   5    0.523000   -0.092048    2.347224  0.0
    220    214    226    227   5    0.000000    0.000000    3.100344  0.0
    214    215    216    217   5    0.523000   -0.092048    2.347224  0.0
    221    215    216    217   5    0.000000    0.000000    3.100344  0.0
    222    215    216    217   5    0.000000    0.000000    3.100344  0.0
    215    216    217    223   5    0.000000    0.000000    3.100344  0.0
    215    216    217    224   5    0.000000    0.000000    3.100344  0.0
    215    216    217    225   5    0.000000    0.000000    3.100344  0.0
    214    226    227    228   5    0.523000   -0.092048    2.347224  0.0
    214    226    227    232   5    0.000000    0.000000    3.100344  0.0
    214    226    227    233   5    0.000000    0.000000    3.100344  0.0
    226    227    228    229   5    5.250920   -2.589896    2.284464  0.0
    226    227    228    234   5    0.000000    0.000000    1.958112  0.0
    226    227    228    240   5    9.363792   -9.736168   -2.857672  0.0
    232    227    228    229   5    0.000000    0.000000    1.255200  0.0
    232    227    228    234   5    0.000000    0.000000    1.255200  0.0
    232    227    228    240   5    0.000000    0.000000    1.958112  0.0
    233    227    228    229   5    0.000000    0.000000    1.255200  0.0
    233    227    228    234   5    0.000000    0.000000    1.255200  0.0
    233    227    228    240   5    0.000000    0.000000    1.958112  0.0
    227    228    229    230   5    5.250920   -2.589896    2.284464  0.0
    227    228    229    235   5    0.000000    0.000000    1.255200  0.0
    227    228    229    236   5    0.000000    0.000000    1.255200  0.0
    234    228    229    230   5    0.000000    0.000000    1.958112  0.0
    234    228    229    235   5    0.000000    0.000000    1.255200  0.0
    234    228    229    236   5    0.000000    0.000000    1.255200  0.0
    240    228    229    230   5    9.363792   -9.736168   -2.857672  0.0
    240    228    229    235   5    0.000000    0.000000    1.958112  0.0
    240    228    229    236   5    0.000000    0.000000    1.958112  0.0
    227    228    240    241   5    0.523000   -0.092048    2.347224  0.0
    229    228    240    241   5    0.523000   -0.092048    2.347224  0.0
    234    228    240    241   5    0.000000    0.000000    3.100344  0.0
    228    229    230    231   5    0.523000   -0.092048    2.347224  0.0
    235    229    230    231   5    0.000000    0.000000    3.100344  0.0
    236    229    230    231   5    0.000000    0.000000    3.100344  0.0
    229    230    231    237   5    0.000000    0.000000    3.100344  0.0
    229    230    231    238   5    0.000000    0.000000    3.100344  0.0
    229    230    231    239   5    0.000000    0.000000    3.100344  0.0
    228    240    241    242   5    0.523000   -0.092048    2.347224  0.0
    228    240    241    246   5    0.000000    0.000000    3.100344  0.0
    228    240    241    247   5    0.000000    0.000000    3.100344  0.0
    240    241    242    243   5    5.250920   -2.589896    2.284464  0.0
    240    241    242    248   5    0.000000    0.000000    1.958112  0.0
    240    241    242    254   5    9.363792   -9.736168   -2.857672  0.0
    246    241    242    243   5    0.000000    0.000000    1.255200  0.0
    246    241    242    248   5    0.000000    0.000000    1.255200  0.0
    246    241    242    254   5    0.000000    0.000000    1.958112  0.0
    247    241    242    243   5    0.000000    0.000000    1.255200  0.0
    247    241    242    248   5    0.000000    0.000000    1.255200  0.0
    247    241    242    254   5    0.000000    0.000000    1.958112  0.0
    241    242    243    244   5    5.250920   -2.589896    2.284464  0.0
    241    242    243    249   5    0.000000    0.000000    1.255200  0.0
    241    242    243    250   5    0.000000    0.000000    1.255200  0.0
    248    242    243    244   5    0.000000    0.000000    1.958112  0.0
    248    242    243    249   5    0.000000    0.000000    1.255200  0.0
    248    242    243    250   5    0.000000    0.000000    1.255200  0.0
    254    242    243    244   5    9.363792   -9.736168   -2.857672  0.0
    254    242    243    249   5    0.000000    0.000000    1.958112  0.0
    254    242    243    250   5    0.000000    0.000000    1.958112  0.0
    241    242    254    255   5    0.523000   -0.092048    2.347224  0.0
    243    242    254    255   5    0.523000   -0.092048    2.347224  0.0
    248    242    254    255   5    0.000000    0.000000    3.100344  0.0
    242    243    244    245   5    0.523000   -0.092048    2.347224  0.0
    249    243    244    245   5    0.000000    0.000000    3.100344  0.0
    250    243    244    245   5    0.000000    0.000000    3.100344  0.0
    243    244    245    251   5    0.000000    0.000000    3.100344  0.0
    243    244    245    252   5    0.000000    0.000000    3.100344  0.0
    243    244    245    253   5    0.000000    0.000000    3.100344  0.0
    242    254    255    256   5    0.523000   -0.092048    2.347224  0.0
    242    254    255    260   5    0.000000    0.000000    3.100344  0.0
    242    254    255    261   5    0.000000    0.000000    3.100344  0.0
    254    255    256    257   5    5.250920   -2.589896    2.284464  0.0
    254    255    256    262   5    0.000000    0.000000    1.958112  0.0
    254    255    256    268   5    9.363792   -9.736168   -2.857672  0.0
    260    255    256    257   5    0.000000    0.000000    1.255200  0.0
    260    255    256    262   5    0.000000    0.000000    1.255200  0.0
    260    255    256    268   5    0.000000    0.000000    1.958112  0.0
    261    255    256    257   5    0.000000    0.000000    1.255200  0.0
    261    255    256    262   5    0.000000    0.000000    1.255200  0.0
    261    255    256    268   5    0.000000    0.000000    1.958112  0.0
    255    256    257    258   5    5.250920   -2.589896    2.284464  0.0
    255    256    257    263   5    0.000000    0.000000    1.255200  0.0
    255    256    257    264   5    0.000000    0.000000    1.255200  0.0
    262    256    257    258   5    0.000000    0.000000    1.958112  0.0
    262    256    257    263   5    0.000000    0.000000    1.255200  0.0
    262    256    257    264   5    0.000000    0.000000    1.255200  0.0
    268    256    257    258   5    9.363792   -9.736168   -2.857672  0.0
    268    256    257    263   5    0.000000    0.000000    1.958112  0.0
    268    256    257    264   5    0.000000    0.000000    1.958112  0.0
    255    256    268    269   5    0.523000   -0.092048    2.347224  0.0
    257    256    268    269   5    0.523000   -0.092048    2.347224  0.0
    262    256    268    269   5    0.000000    0.000000    3.100344  0.0
    256    257    258    259   5    0.523000   -0.092048    2.347224  0.0
    263    257    258    259   5    0.000000    0.000000    3.100344  0.0
    264    257    258    259   5    0.000000    0.000000    3.100344  0.0
    257    258    259    265   5    0.000000    0.000000    3.100344  0.0
    257    258    259    266   5    0.000000    0.000000    3.100344  0.0
    257    258    259    267   5    0.000000    0.000000    3.100344  0.0
    256    268    269    270   5    0.523000   -0.092048    2.347224  0.0
    256    268    269    274   5    0.000000    0.000000    3.100344  0.0
    256    268    269    275   5    0.000000    0.000000    3.100344  0.0
    268    269    270    271   5    5.250920   -2.589896    2.284464  0.0
    268    269    270    276   5    0.000000    0.000000    1.958112  0.0
    268    269    270    282   5    0.000000    0.000000    1.958112  0.0
    274    269    270    271   5    0.000000    0.000000    1.255200  0.0
    274    269    270    276   5    0.000000    0.000000    1.255200  0.0
    274    269    270    282   5    0.000000    0.000000    1.255200  0.0
    275    269    270    271   5    0.000000    0.000000    1.255200  0.0
    275    269    270    276   5    0.000000    0.000000    1.255200  0.0
    275    269    270    282   5    0.000000    0.000000    1.255200  0.0
    269    270    271    272   5    5.250920   -2.589896    2.284464  0.0
    269    270    271    277   5    0.000000    0.000000    1.255200  0.0
    269    270    271    278   5    0.000000    0.000000    1.255200  0.0
    276    270    271    272   5    0.000000    0.000000    1.958112  0.0
    276    270    271    277   5    0.000000    0.000000    1.255200  0.0
    276    270    271    278   5    0.000000    0.000000    1.255200  0.0
    282    270    271    272   5    0.000000    0.000000    1.958112  0.0
    282    270    271    277   5    0.000000    0.000000    1.255200  0.0
    282    270    271    278   5    0.000000    0.000000    1.255200  0.0
    270    271    272    273   5    0.523000   -0.092048    2.347224  0.0
    277    271    272    273   5    0.000000    0.000000    3.100344  0.0
    278    271    272    273   5    0.000000    0.000000    3.100344  0.0
    271    272    273    279   5    0.000000    0.000000    3.100344  0.0
    271    272    273    280   5    0.000000    0.000000    3.100344  0.0
    271    272    273    281   5    0.000000    0.000000    3.100344  0.0
